 DBCSR| CPU Multiplication driver                                           XSMM (U)
 DBCSR| Multrec recursion limit                                              512 (U)
 DBCSR| Multiplication stack size                                           1000 (D)
 DBCSR| Maximum elements for images                                    UNLIMITED (U)
 DBCSR| Multiplicative factor virtual images                                   1 (U)
 DBCSR| Use multiplication densification                                       T (D)
 DBCSR| Multiplication size stacks                                             3 (U)
 DBCSR| Use memory pool for CPU allocation                                     F (U)
 DBCSR| Number of 3D layers                                               SINGLE (U)
 DBCSR| Use MPI memory allocation                                              F (U)
 DBCSR| Use RMA algorithm                                                      F (U)
 DBCSR| Use Communication thread                                               T (U)
 DBCSR| Communication thread load                                             87 (D)
 DBCSR| MPI: My process id                                                     0
 DBCSR| MPI: Number of processes                                              32
 DBCSR| OMP: Current number of threads                                         1
 DBCSR| OMP: Max number of threads                                             1
 DBCSR| Split modifier for TAS multiplication algorithm                  1.0E+00 (U)


  **** **** ******  **  PROGRAM STARTED AT               2024-09-24 03:00:13.697
 ***** ** ***  *** **   PROGRAM STARTED ON                                moritz
 **    ****   ******    PROGRAM STARTED BY                                   ole
 ***** **    ** ** **   PROGRAM PROCESS ID                                167396
  **** **  *******  **  PROGRAM STARTED IN /home/ole/git/pao_ml_equivar/64H2O_MD
                                           /Frame3800

 CP2K| version string:                 CP2K version 2024.3 (Development Version)
 CP2K| source code revision number:                                  git:3f890bb
 CP2K| cp2kflags: omp libint fftw3 libxc libgrpp pexsi elpa parallel scalapack c
 CP2K|            osma quip deepmd xsmm plumed2 spglib libdftd4 sirius libvori l
 CP2K|            libbqb libvdwxc hdf5
 CP2K| is freely available from                            https://www.cp2k.org/
 CP2K| Program compiled at                          Mo 23 Sep 2024 17:17:04 CEST
 CP2K| Program compiled on                                                moritz
 CP2K| Program compiled for                                                local
 CP2K| Data directory path                               /home/ole/git/cp2k/data
 CP2K| Input file name                                           64H2O_pao44.inp

 GLOBAL| Force Environment number                                              1
 GLOBAL| Basis set file name                                        BASIS_MOLOPT
 GLOBAL| Potential file name                                      GTH_POTENTIALS
 GLOBAL| MM Potential file name                                     MM_POTENTIAL
 GLOBAL| Coordinate file name                                         coords.xyz
 GLOBAL| Method name                                                        CP2K
 GLOBAL| Project name                                                64H2O_pao44
 GLOBAL| Run type                                                         ENERGY
 GLOBAL| FFT library                                                       FFTW3
 GLOBAL| Diagonalization library                                            ELPA
 GLOBAL| DGEMM library                                                      BLAS
 GLOBAL| Minimum number of eigenvectors for ELPA usage                        16
 GLOBAL| Orthonormality check for eigenvectors                          DISABLED
 GLOBAL| Matrix multiplication library                                     COSMA
 GLOBAL| All-to-all communication in single precision                          F
 GLOBAL| FFTs using library dependent lengths                                  F
 GLOBAL| Grid backend                                                       AUTO
 GLOBAL| Global print level                                                  LOW
 GLOBAL| MPI I/O enabled                                                       T
 GLOBAL| Total number of message passing processes                            32
 GLOBAL| Number of threads for this process                                    1
 GLOBAL| This output is from process                                           0
 GLOBAL| Stack size for threads created by OpenMP (OMP_STACKSIZE)        default
 GLOBAL| CPU model name           AMD Ryzen Threadripper 3970X 32-Core Processor
 GLOBAL| CPUID                                                              1002

 MEMORY| system memory details [Kb]
 MEMORY|                        rank 0           min           max       average
 MEMORY| MemTotal            131752136     131752136     131752136     131752136
 MEMORY| MemFree             114318300     114318300     114318300     114318300
 MEMORY| Buffers               2009920       2009920       2009920       2009920
 MEMORY| Cached                8671652       8671652       8671652       8671652
 MEMORY| Slab                  1643380       1643380       1643380       1643380
 MEMORY| SReclaimable          1144672       1144672       1144672       1144672
 MEMORY| MemLikelyFree       126144544     126144544     126144544     126144544


 GENERATE|  Preliminary Number of Bonds generated:                             0
 GENERATE|  Achieved consistency in connectivity generation.

 *******************************************************************************
 *******************************************************************************
 **                                                                           **
 **     #####                         ##              ##                      **
 **    ##   ##            ##          ##              ##                      **
 **   ##     ##                       ##            ######                    **
 **   ##     ##  ##   ##  ##   #####  ##  ##   ####   ##    #####    #####    **
 **   ##     ##  ##   ##  ##  ##      ## ##   ##      ##   ##   ##  ##   ##   **
 **   ##  ## ##  ##   ##  ##  ##      ####     ###    ##   ######   ######    **
 **    ##  ###   ##   ##  ##  ##      ## ##      ##   ##   ##       ##        **
 **     #######   #####   ##   #####  ##  ##  ####    ##    #####   ##        **
 **           ##                                                    ##        **
 **                                                                           **
 **                                                ... make the atoms dance   **
 **                                                                           **
 **            Copyright (C) by CP2K developers group (2000-2024)             **
 **                      J. Chem. Phys. 152, 194103 (2020)                    **
 **                                                                           **
 *******************************************************************************


 TOTAL NUMBERS AND MAXIMUM NUMBERS

  Total number of            - Atomic kinds:                                   2
                             - Atoms:                                        192
                             - Shell sets:                                   192
                             - Shells:                                       704
                             - Primitive Cartesian functions:               1344
                             - Cartesian basis functions:                   1536
                             - Spherical basis functions:                   1472

  Maximum angular momentum of- Orbital basis functions:                        2
                             - Local part of the GTH pseudopotential:          2
                             - Non-local part of the GTH pseudopotential:      0

 ------------------------------ Linear scaling SCF -----------------------------
 eps_scf:                                                              0.100E-07
 eps_filter:                                                           0.100E-11
 mixing_fraction:                                                      0.450E+00
 max_scf:                                                                     25
 fixed chemical potential (mu)                                                 F
 has unit metric:                                                              F
 Computing inv(S):                                                             T
 Computing sqrt(S):                                                            T
 Computing S preconditioner                                                    F
 S sqrt method:                                                     NEWTONSCHULZ
 S sqrt order:                                                                 3
 Extrapolation order:                                                          1
 S preconditioner type                                                      NONE
 Polarized Atomic Orbitals (PAO)                                               T
 Purification method                                   Trace resetting 4th order
 Cluster type                                                             ATOMIC
 Computing Chebyshev                                                       FALSE
 Using PAO                                                                     T
 -------------------------------------------------------------------------------

 
 PAO|                                  EPS_PAO                           0.5E-06
 PAO|                                  MIXING                            0.5E+00
 PAO|                                  MAX_PAO                              1500
 PAO|                                  MAX_CYCLES                           1000
 PAO|                                  PARAMETERIZATION              EQUIVARIANT
 PAO|                                  PRECONDITION                            F
 PAO|                                  REGULARIZATION                    0.0E+00
 PAO|                                  EPS_PGF                           0.1E-09
 PAO|                                  PENALTY_DISTANCE                  0.1E+00
 PAO|                                  PENALTY_STRENGTH                  0.5E-02
 PAO|                                  LINPOT_PRECONDITION_DELTA         0.0E+00
 PAO|                                  LINPOT_INITGUESS_DELT             0.0E+00
 PAO|                                  LINPOT_REGULARIZATION_DELTA       0.0E+00
 PAO|                                  LINPOT_REGULARIZATION_STRENGTH    0.0E+00
 PAO|                                  OPTIMIZER                              CG
 PAO|                                  CG_INIT_STEPS                           2
 PAO|                                  CG_RESET_LIMIT                    0.1E+00
 PAO|                                  CHECK_UNITARY_TOL                -0.1E+01
 PAO|                                  CHECK_GRADIENT_TOL               -0.1E+01
 PAO|                                  NUM_GRADIENT_ORDER                      2
 PAO|                                  NUM_GRADIENT_EPS                  0.1E-07
 PAO|                                  PRINT%RESTART%WRITE_CYCLES            100
 PAO|                                  RESTART_FILE 
 PAO|                                  PREOPT_DM_FILE 64H2O_ref_LS_DM_SPIN_1_RESTART.dm
 PAO|                                  MACHINE_LEARNING%METHOD       GAUSSIAN_PR
 PAO|                                  MACHINE_LEARNING%PRIOR               ZERO
 PAO|                                  MACHINE_LEARNING%DESCRIPTOR     POTENTIAL
 PAO|                                  MACHINE_LEARNING%TOLERANCE        0.1E-01
 PAO|                                  MACHINE_LEARNING%GP_NOISE_VAR     0.1E+00
 PAO|                                  MACHINE_LEARNING%GP_SCALE         0.5E-01
 

 Calculating atomic Fock matrix for atomic kind: O

 Electronic structure
    Total number of core electrons                                          2.00
    Total number of valence electrons                                       6.00
    Total number of electrons                                               8.00
    Multiplicity                                                   not specified
    S   [  2.00] 2.00
    P      4.00


 *******************************************************************************
                  Iteration          Convergence                     Energy [au]
 *******************************************************************************
                          1        0.708315                     -15.576645311500
                          2        0.608879                     -15.587933561584
                          3        0.102828E-01                 -15.656849565404
                          4        0.113889E-02                 -15.656866888140
                          5        0.434197E-03                 -15.656867072159
                          6        0.263771E-03                 -15.656867091904
                          7        0.478536E-06                 -15.656867103452

 Energy components [Hartree]           Total Energy ::          -15.656867103452
                                        Band Energy ::           -3.000198112285
                                     Kinetic Energy ::           11.759971203220
                                   Potential Energy ::          -27.416838306672
                                      Virial (-V/T) ::            2.331369510426
                                        Core Energy ::          -26.140716385623
                                          XC Energy ::           -3.154051012914
                                     Coulomb Energy ::           13.637900295084
                       Total Pseudopotential Energy ::          -37.935781716540
                       Local Pseudopotential Energy ::          -39.218907440693
                    Nonlocal Pseudopotential Energy ::            1.283125724153
                                        Confinement ::            0.350941276976

 Orbital energies  State     L     Occupation   Energy[a.u.]          Energy[eV]

                       1     0          2.000      -0.864471          -23.523463

                       1     1          4.000      -0.317814           -8.648154


 Total Electron Density at R=0:                                         0.000068

 Calculating atomic Fock matrix for atomic kind: H

 Electronic structure
    Total number of core electrons                                          0.00
    Total number of valence electrons                                       1.00
    Total number of electrons                                               1.00
    Multiplicity                                                   not specified
    S      1.00


 *******************************************************************************
                  Iteration          Convergence                     Energy [au]
 *******************************************************************************
                          1        0.437545E-02                  -0.424159432110
                          2        0.531356E-03                  -0.424178438213
                          3        0.259176E-06                  -0.424178722480

 Energy components [Hartree]           Total Energy ::           -0.424178722480
                                        Band Energy ::           -0.199015229016
                                     Kinetic Energy ::            0.464007633961
                                   Potential Energy ::           -0.888186356441
                                      Virial (-V/T) ::            1.914163240935
                                        Core Energy ::           -0.479160803564
                                          XC Energy ::           -0.244352904054
                                     Coulomb Energy ::            0.299334985138
                       Total Pseudopotential Energy ::           -0.962295316385
                       Local Pseudopotential Energy ::           -0.962295316385
                    Nonlocal Pseudopotential Energy ::            0.000000000000
                                        Confinement ::            0.191268788606

 Orbital energies  State     L     Occupation   Energy[a.u.]          Energy[eV]

                       1     0          1.000      -0.199015           -5.415480


 Total Electron Density at R=0:                                         0.242907
 PAO| Made initial guess for matrix_X with norm:   27.712812921102035     

     Lanczos converged:  T threshold:   0.100E-02
     Est. extremal eigenvalues:    0.609E+01   0.894E-01
     Est. condition number :    0.681E+02

 Order=           3
     NS sqrt iter    1 1.00000000   0.148E+01       0.021     2686.213
     NS sqrt iter    2 1.00000000   0.809E+00       0.034     3368.093
     NS sqrt iter    3 1.00000000   0.325E+00       0.034     3324.225
     NS sqrt iter    4 1.00000000   0.896E-01       0.034     3327.700
     NS sqrt iter    5 1.00000000   0.307E-02       0.034     3351.733
     NS sqrt iter    6 1.00000000   0.251E-06       0.029     2932.980
     Symmetrizing Results
     Final NS sqrt iter    6 1.00000000   0.196E-12

 PAO| Read restart DM 64H2O_ref_LS_DM_SPIN_1_RESTART.dm with checksum:    6256.5263180008078     
 PAO| Quickstep energy from restart density:  -1103.1397613516069     
 PAO| ======================= Iteration:         1 =============================

     Lanczos converged:  T threshold:   0.100E-02
     Est. extremal eigenvalues:    0.609E+01   0.894E-01
     Est. condition number :    0.681E+02

 Order=           3
     NS sqrt iter    1 1.00000000   0.148E+01       0.021     2695.921
     NS sqrt iter    2 1.00000000   0.809E+00       0.034     3369.890
     NS sqrt iter    3 1.00000000   0.325E+00       0.033     3380.941
     NS sqrt iter    4 1.00000000   0.896E-01       0.034     3344.507
     NS sqrt iter    5 1.00000000   0.307E-02       0.034     3364.516
     NS sqrt iter    6 1.00000000   0.251E-06       0.029     2927.560
     Symmetrizing Results
     Final NS sqrt iter    6 1.00000000   0.196E-12

     Est. extremal eigenvalues     -0.82010     2.67000  converged:  T
     TRS4 it   1 1.00000000   0.275E+02       0.007     2123.193   0.100E-11
     TRS4 it   2 1.00000000   0.239E+02       0.013     2178.510   0.100E-11
     TRS4 it   3 1.00000000   0.161E+02       0.013     2187.767   0.100E-11
     TRS4 it   4 1.00000000   0.101E+02       0.013     2197.910   0.100E-11
     TRS4 it   5 1.00000000   0.488E+01       0.013     2208.080   0.100E-11
     TRS4 it   6 1.00000000   0.163E+01       0.013     2190.741   0.100E-11
     TRS4 it   7 1.00000000   0.325E+00       0.013     2195.055   0.100E-11
     TRS4 it   8 1.00000000   0.234E-01       0.013     2203.908   0.100E-11
     TRS4 it   9 1.00000000   0.213E-03       0.013     2207.330   0.100E-11
     TRS4 it  10 1.00000000   0.190E-07       0.013     2176.079   0.100E-11
     TRS4 it  11 1.00000000   0.355E-13       0.013     2182.579   0.100E-11
     Final TRS4 iteration   11 1.00000000   0.355E-13
     Chemical potential (mu):       0.00860
 
 PAO| energy:  -186.39861233840895      penalty:   1.4088562729181507E-031
 PAO|CG| warming up with steepest descent
 PAO|CG| beta:    0.0000000000000000     
 PAO| norm of gradient:   3.9898024374796837     
 PAO|LS| adapt:  T F F
 PAO|LS| adapt: scan_steps:    0.0000000000000000        0.0000000000000000        0.0000000000000000     
 PAO|LS| adapt: energies:   -186.39861233840895        0.0000000000000000        0.0000000000000000     
 PAO| ======================= Iteration:         2 =============================

     Lanczos converged:  T threshold:   0.100E-02
     Est. extremal eigenvalues:    0.587E+01   0.948E-01
     Est. condition number :    0.619E+02

 Order=           3
     NS sqrt iter    1 1.00000000   0.144E+01       0.021     2691.373
     NS sqrt iter    2 1.00000000   0.779E+00       0.034     3361.990
     NS sqrt iter    3 1.00000000   0.304E+00       0.034     3375.302
     NS sqrt iter    4 1.00000000   0.750E-01       0.034     3363.150
     NS sqrt iter    5 1.00000000   0.190E-02       0.034     3352.702
     NS sqrt iter    6 1.00000000   0.745E-07       0.029     2918.102
     Symmetrizing Results
     Final NS sqrt iter    6 1.00000000   0.228E-13

     Est. extremal eigenvalues     -0.82351     2.66461  converged:  T
     TRS4 it   1 1.00000000   0.277E+02       0.007     2114.963   0.100E-11
     TRS4 it   2 1.00000000   0.239E+02       0.013     2207.664   0.100E-11
     TRS4 it   3 1.00000000   0.160E+02       0.013     2213.572   0.100E-11
     TRS4 it   4 1.00000000   0.988E+01       0.013     2163.573   0.100E-11
     TRS4 it   5 1.00000000   0.467E+01       0.013     2185.588   0.100E-11
     TRS4 it   6 1.00000000   0.150E+01       0.013     2196.354   0.100E-11
     TRS4 it   7 1.00000000   0.279E+00       0.013     2178.503   0.100E-11
     TRS4 it   8 1.00000000   0.168E-01       0.013     2219.182   0.100E-11
     TRS4 it   9 1.00000000   0.993E-04       0.013     2196.588   0.100E-11
     TRS4 it  10 1.00000000   0.471E-08       0.013     2197.382   0.100E-11
     TRS4 it  11 1.00000000   0.107E-13       0.013     2196.963   0.100E-11
     Final TRS4 iteration   11 1.00000000   0.107E-13
     Chemical potential (mu):       0.01435
 
 PAO| energy:  -187.85947094160588      penalty:   4.7464228914657504E-007
 PAO|LS| adapt:  T T F
 PAO|LS| adapt: scan_steps:    0.0000000000000000       0.10000000000000001        0.0000000000000000     
 PAO|LS| adapt: energies:   -186.39861233840895       -187.85947094160588        0.0000000000000000     
 PAO| ======================= Iteration:         3 =============================

     Lanczos converged:  T threshold:   0.100E-02
     Est. extremal eigenvalues:    0.565E+01   0.997E-01
     Est. condition number :    0.567E+02

 Order=           3
     NS sqrt iter    1 1.00000000   0.140E+01       0.021     2682.208
     NS sqrt iter    2 1.00000000   0.750E+00       0.034     3377.962
     NS sqrt iter    3 1.00000000   0.284E+00       0.034     3362.869
     NS sqrt iter    4 1.00000000   0.625E-01       0.033     3384.835
     NS sqrt iter    5 1.00000000   0.119E-02       0.034     3363.542
     NS sqrt iter    6 1.00000000   0.231E-07       0.029     2910.321
     Symmetrizing Results
     Final NS sqrt iter    6 1.00000000   0.408E-14

     Est. extremal eigenvalues     -0.82673     2.66064  converged:  T
     TRS4 it   1 1.00000000   0.279E+02       0.007     2126.925   0.100E-11
     TRS4 it   2 1.00000000   0.239E+02       0.013     2225.394   0.100E-11
     TRS4 it   3 1.00000000   0.159E+02       0.013     2200.278   0.100E-11
     TRS4 it   4 1.00000000   0.969E+01       0.013     2217.610   0.100E-11
     TRS4 it   5 1.00000000   0.447E+01       0.013     2220.856   0.100E-11
     TRS4 it   6 1.00000000   0.138E+01       0.013     2188.307   0.100E-11
     TRS4 it   7 1.00000000   0.237E+00       0.013     2218.623   0.100E-11
     TRS4 it   8 1.00000000   0.117E-01       0.013     2184.389   0.100E-11
     TRS4 it   9 1.00000000   0.425E-04       0.013     2223.831   0.100E-11
     TRS4 it  10 1.00000000   0.992E-09       0.013     2201.504   0.100E-11
     TRS4 it  11 1.00000000   0.355E-13       0.013     2184.308   0.100E-11
     Final TRS4 iteration   11 1.00000000   0.355E-13
     Chemical potential (mu):       0.02098
 
 PAO| energy:  -189.04187908682152      penalty:   7.5942766263818560E-006
 PAO|LS| adapt:  T T F
 PAO|LS| adapt: scan_steps:    0.0000000000000000       0.20000000000000001        0.0000000000000000     
 PAO|LS| adapt: energies:   -186.39861233840895       -189.04187908682152        0.0000000000000000     
 PAO| ======================= Iteration:         4 =============================

     Lanczos converged:  T threshold:   0.100E-02
     Est. extremal eigenvalues:    0.523E+01   0.109E+00
     Est. condition number :    0.482E+02

 Order=           3
     NS sqrt iter    1 1.00000000   0.131E+01       0.021     2684.693
     NS sqrt iter    2 1.00000000   0.692E+00       0.034     3366.160
     NS sqrt iter    3 1.00000000   0.246E+00       0.034     3346.235
     NS sqrt iter    4 1.00000000   0.433E-01       0.034     3363.969
     NS sqrt iter    5 1.00000000   0.476E-03       0.034     3305.925
     NS sqrt iter    6 1.00000000   0.220E-08       0.029     2838.133
     Symmetrizing Results
     Final NS sqrt iter    6 1.00000000   0.191E-13

     Est. extremal eigenvalues     -0.83203     2.65555  converged:  T
     TRS4 it   1 1.00000000   0.283E+02       0.007     2118.777   0.100E-11
     TRS4 it   2 1.00000000   0.238E+02       0.013     2197.097   0.100E-11
     TRS4 it   3 1.00000000   0.157E+02       0.013     2177.028   0.100E-11
     TRS4 it   4 1.00000000   0.936E+01       0.013     2215.105   0.100E-11
     TRS4 it   5 1.00000000   0.411E+01       0.013     2181.019   0.100E-11
     TRS4 it   6 1.00000000   0.116E+01       0.013     2201.277   0.100E-11
     TRS4 it   7 1.00000000   0.169E+00       0.013     2206.688   0.100E-11
     TRS4 it   8 1.00000000   0.540E-02       0.013     2210.237   0.100E-11
     TRS4 it   9 1.00000000   0.711E-05       0.013     2204.437   0.100E-11
     TRS4 it  10 1.00000000   0.281E-10       0.013     2201.514   0.100E-11
     Final TRS4 iteration   10 1.00000000   0.281E-10
     Chemical potential (mu):       0.04145
 
 PAO| energy:  -190.52911940302144      penalty:   1.2150842602239994E-004
 PAO|LS| Need extra step
 PAO|LS| adapt:  T T F
 PAO|LS| adapt: scan_steps:    0.0000000000000000       0.40000000000000002        0.0000000000000000     
 PAO|LS| adapt: energies:   -186.39861233840895       -190.52911940302144        0.0000000000000000     
 PAO| ======================= Iteration:         5 =============================

     Lanczos converged:  T threshold:   0.100E-02
     Est. extremal eigenvalues:    0.458E+01   0.124E+00
     Est. condition number :    0.368E+02

 Order=           3
     NS sqrt iter    1 1.00000000   0.119E+01       0.021     2693.933
     NS sqrt iter    2 1.00000000   0.603E+00       0.034     3373.889
     NS sqrt iter    3 1.00000000   0.189E+00       0.034     3366.004
     NS sqrt iter    4 1.00000000   0.223E-01       0.034     3362.082
     NS sqrt iter    5 1.00000000   0.877E-04       0.034     3337.760
     NS sqrt iter    6 1.00000000   0.226E-10       0.016     2167.458
     Symmetrizing Results
     Final NS sqrt iter    6 1.00000000   0.197E-11

     Est. extremal eigenvalues     -0.83564     2.64837  converged:  T
     TRS4 it   1 1.00000000   0.289E+02       0.007     2114.856   0.100E-11
     TRS4 it   2 1.00000000   0.238E+02       0.013     2174.980   0.100E-11
     TRS4 it   3 1.00000000   0.155E+02       0.013     2173.040   0.100E-11
     TRS4 it   4 1.00000000   0.888E+01       0.013     2179.347   0.100E-11
     TRS4 it   5 1.00000000   0.359E+01       0.013     2163.695   0.100E-11
     TRS4 it   6 1.00000000   0.864E+00       0.013     2217.036   0.100E-11
     TRS4 it   7 1.00000000   0.918E-01       0.013     2173.012   0.100E-11
     TRS4 it   8 1.00000000   0.146E-02       0.013     2212.626   0.100E-11
     TRS4 it   9 1.00000000   0.491E-06       0.013     2183.107   0.100E-11
     TRS4 it  10 1.00000000   0.124E-12       0.013     2164.453   0.100E-11
     Final TRS4 iteration   10 1.00000000   0.124E-12
     Chemical potential (mu):       0.06467
 
 PAO| energy:  -190.12314286772886      penalty:   1.9441348163607270E-003
 PAO|LS| Need extra step
 PAO|LS| adapt:  T T T
 PAO|LS| adapt: scan_steps:    0.0000000000000000       0.40000000000000002       0.80000000000000004     
 PAO|LS| adapt: energies:   -186.39861233840895       -190.52911940302144       -190.12314286772886     
 PAO|LS| adapt: suggested step_size:   0.56420341646987759     
 PAO|LS| adapt: predicted energy  -190.91135730155938     
 PAO| ======================= Iteration:         6 =============================

     Lanczos converged:  T threshold:   0.100E-02
     Est. extremal eigenvalues:    0.493E+01   0.115E+00
     Est. condition number :    0.427E+02

 Order=           3
     NS sqrt iter    1 1.00000000   0.125E+01       0.021     2692.591
     NS sqrt iter    2 1.00000000   0.651E+00       0.034     3358.944
     NS sqrt iter    3 1.00000000   0.219E+00       0.034     3360.738
     NS sqrt iter    4 1.00000000   0.324E-01       0.033     3380.911
     NS sqrt iter    5 1.00000000   0.231E-03       0.033     3384.067
     NS sqrt iter    6 1.00000000   0.318E-09       0.027     2642.880
     Symmetrizing Results
     Final NS sqrt iter    6 1.00000000   0.742E-12

     Est. extremal eigenvalues     -0.83477     2.65245  converged:  T
     TRS4 it   1 1.00000000   0.286E+02       0.007     2123.130   0.100E-11
     TRS4 it   2 1.00000000   0.238E+02       0.013     2184.662   0.100E-11
     TRS4 it   3 1.00000000   0.156E+02       0.013     2205.629   0.100E-11
     TRS4 it   4 1.00000000   0.914E+01       0.013     2198.730   0.100E-11
     TRS4 it   5 1.00000000   0.386E+01       0.013     2187.229   0.100E-11
     TRS4 it   6 1.00000000   0.102E+01       0.013     2179.632   0.100E-11
     TRS4 it   7 1.00000000   0.129E+00       0.013     2190.278   0.100E-11
     TRS4 it   8 1.00000000   0.296E-02       0.013     2187.649   0.100E-11
     TRS4 it   9 1.00000000   0.196E-05       0.013     2186.423   0.100E-11
     TRS4 it  10 1.00000000   0.175E-11       0.013     2184.660   0.100E-11
     Final TRS4 iteration   10 1.00000000   0.175E-11
     Chemical potential (mu):       0.05247
 
 PAO| energy:  -190.88467892480523      penalty:   4.8096035170240608E-004
 PAO|CG| warming up with steepest descent
 PAO|CG| beta:    0.0000000000000000     
 PAO| norm of gradient:   2.1081954728452321     
 PAO| energy improvement:  -4.4860665863962765     
 PAO| step      6                 -190.884678925  0.412E-02  0.564E+00     2.362
 PAO|LS| adapt:  T F F
 PAO|LS| adapt: scan_steps:    0.0000000000000000        0.0000000000000000        0.0000000000000000     
 PAO|LS| adapt: energies:   -190.88467892480523        0.0000000000000000        0.0000000000000000     
 PAO| ======================= Iteration:         7 =============================

     Lanczos converged:  T threshold:   0.100E-02
     Est. extremal eigenvalues:    0.478E+01   0.123E+00
     Est. condition number :    0.387E+02

 Order=           3
     NS sqrt iter    1 1.00000000   0.122E+01       0.021     2702.461
     NS sqrt iter    2 1.00000000   0.626E+00       0.034     3379.429
     NS sqrt iter    3 1.00000000   0.202E+00       0.034     3368.662
     NS sqrt iter    4 1.00000000   0.260E-01       0.034     3359.618
     NS sqrt iter    5 1.00000000   0.128E-03       0.034     3338.025
     NS sqrt iter    6 1.00000000   0.590E-10       0.022     2259.140
     Symmetrizing Results
     Final NS sqrt iter    6 1.00000000   0.218E-11

     Est. extremal eigenvalues     -0.83419     2.64212  converged:  T
     TRS4 it   1 1.00000000   0.287E+02       0.007     2140.594   0.100E-11
     TRS4 it   2 1.00000000   0.239E+02       0.013     2188.716   0.100E-11
     TRS4 it   3 1.00000000   0.157E+02       0.013     2191.750   0.100E-11
     TRS4 it   4 1.00000000   0.925E+01       0.013     2194.598   0.100E-11
     TRS4 it   5 1.00000000   0.395E+01       0.013     2176.617   0.100E-11
     TRS4 it   6 1.00000000   0.104E+01       0.013     2190.278   0.100E-11
     TRS4 it   7 1.00000000   0.129E+00       0.013     2209.396   0.100E-11
     TRS4 it   8 1.00000000   0.294E-02       0.013     2164.333   0.100E-11
     TRS4 it   9 1.00000000   0.201E-05       0.013     2174.791   0.100E-11
     TRS4 it  10 1.00000000   0.200E-11       0.013     2188.783   0.100E-11
     Final TRS4 iteration   10 1.00000000   0.200E-11
     Chemical potential (mu):       0.05504
 
 PAO| energy:  -189.96206715733709      penalty:   6.8276001142507760E-004
 PAO|LS| adapt:  T F T
 PAO|LS| adapt: scan_steps:    0.0000000000000000        0.0000000000000000       0.56420341646987759     
 PAO|LS| adapt: energies:   -190.88467892480523        0.0000000000000000       -189.96206715733709     
 PAO| ======================= Iteration:         8 =============================

     Lanczos converged:  T threshold:   0.100E-02
     Est. extremal eigenvalues:    0.485E+01   0.119E+00
     Est. condition number :    0.406E+02

 Order=           3
     NS sqrt iter    1 1.00000000   0.124E+01       0.021     2692.935
     NS sqrt iter    2 1.00000000   0.638E+00       0.034     3350.738
     NS sqrt iter    3 1.00000000   0.210E+00       0.034     3375.747
     NS sqrt iter    4 1.00000000   0.291E-01       0.034     3335.736
     NS sqrt iter    5 1.00000000   0.172E-03       0.034     3372.272
     NS sqrt iter    6 1.00000000   0.138E-09       0.025     2454.309
     Symmetrizing Results
     Final NS sqrt iter    6 1.00000000   0.174E-11

     Est. extremal eigenvalues     -0.83581     2.64698  converged:  T
     TRS4 it   1 1.00000000   0.286E+02       0.007     2117.112   0.100E-11
     TRS4 it   2 1.00000000   0.238E+02       0.013     2203.181   0.100E-11
     TRS4 it   3 1.00000000   0.156E+02       0.013     2187.693   0.100E-11
     TRS4 it   4 1.00000000   0.916E+01       0.013     2194.686   0.100E-11
     TRS4 it   5 1.00000000   0.388E+01       0.013     2201.315   0.100E-11
     TRS4 it   6 1.00000000   0.102E+01       0.013     2192.583   0.100E-11
     TRS4 it   7 1.00000000   0.128E+00       0.013     2180.429   0.100E-11
     TRS4 it   8 1.00000000   0.293E-02       0.013     2206.317   0.100E-11
     TRS4 it   9 1.00000000   0.195E-05       0.013     2175.903   0.100E-11
     TRS4 it  10 1.00000000   0.176E-11       0.013     2190.074   0.100E-11
     Final TRS4 iteration   10 1.00000000   0.176E-11
     Chemical potential (mu):       0.05260
 
 PAO| energy:  -191.26722874847147      penalty:   5.1136940571170058E-004
 PAO|LS| adapt:  T T T
 PAO|LS| adapt: scan_steps:    0.0000000000000000       0.28210170823493880       0.56420341646987759     
 PAO|LS| adapt: energies:   -190.88467892480523       -191.26722874847147       -189.96206715733709     
 PAO|LS| adapt: suggested step_size:   0.20499422606768503     
 PAO|LS| adapt: predicted energy  -191.33027362584252     
 PAO| ======================= Iteration:         9 =============================

     Lanczos converged:  T threshold:   0.100E-02
     Est. extremal eigenvalues:    0.487E+01   0.118E+00
     Est. condition number :    0.412E+02

 Order=           3
     NS sqrt iter    1 1.00000000   0.124E+01       0.021     2679.953
     NS sqrt iter    2 1.00000000   0.642E+00       0.034     3360.681
     NS sqrt iter    3 1.00000000   0.213E+00       0.034     3364.792
     NS sqrt iter    4 1.00000000   0.300E-01       0.034     3375.359
     NS sqrt iter    5 1.00000000   0.187E-03       0.034     3365.045
     NS sqrt iter    6 1.00000000   0.174E-09       0.026     2499.034
     Symmetrizing Results
     Final NS sqrt iter    6 1.00000000   0.150E-11

     Est. extremal eigenvalues     -0.83580     2.64842  converged:  T
     TRS4 it   1 1.00000000   0.286E+02       0.007     2115.259   0.100E-11
     TRS4 it   2 1.00000000   0.238E+02       0.013     2183.760   0.100E-11
     TRS4 it   3 1.00000000   0.156E+02       0.013     2165.398   0.100E-11
     TRS4 it   4 1.00000000   0.915E+01       0.013     2176.083   0.100E-11
     TRS4 it   5 1.00000000   0.387E+01       0.013     2188.450   0.100E-11
     TRS4 it   6 1.00000000   0.102E+01       0.013     2166.490   0.100E-11
     TRS4 it   7 1.00000000   0.128E+00       0.013     2165.814   0.100E-11
     TRS4 it   8 1.00000000   0.293E-02       0.013     2187.512   0.100E-11
     TRS4 it   9 1.00000000   0.195E-05       0.013     2195.251   0.100E-11
     TRS4 it  10 1.00000000   0.170E-11       0.013     2204.765   0.100E-11
     Final TRS4 iteration   10 1.00000000   0.170E-11
     Chemical potential (mu):       0.05234
 
 PAO| energy:  -191.33461689922765      penalty:   4.9363570872137041E-004
 PAO|CG| trace_G_new   0.73561341244283684     
 PAO|CG| trace_G_prev    4.4444881517251327     
 PAO|CG| trace_G_mix   -4.3107330950206781E-002
 PAO|CG| trace_D    4.4444881517251327     
 PAO|CG| trace_D_Gnew   4.3107330950206781E-002
 PAO|CG| beta:   0.17521044421972018     
 PAO| norm of gradient:  0.85767908476471366     
 PAO| energy improvement: -0.44993797442242567     
 PAO| step      9                 -191.334616899  0.168E-02  0.205E+00     1.453
 PAO|LS| adapt:  T F F
 PAO|LS| adapt: scan_steps:    0.0000000000000000        0.0000000000000000        0.0000000000000000     
 PAO|LS| adapt: energies:   -191.33461689922765        0.0000000000000000        0.0000000000000000     
 PAO| ======================= Iteration:        10 =============================

     Lanczos converged:  T threshold:   0.100E-02
     Est. extremal eigenvalues:    0.482E+01   0.122E+00
     Est. condition number :    0.395E+02

 Order=           3
     NS sqrt iter    1 1.00000000   0.123E+01       0.021     2715.760
     NS sqrt iter    2 1.00000000   0.633E+00       0.034     3351.552
     NS sqrt iter    3 1.00000000   0.207E+00       0.034     3359.961
     NS sqrt iter    4 1.00000000   0.277E-01       0.034     3350.725
     NS sqrt iter    5 1.00000000   0.148E-03       0.034     3362.648
     NS sqrt iter    6 1.00000000   0.850E-10       0.023     2366.163
     Symmetrizing Results
     Final NS sqrt iter    6 1.00000000   0.211E-11

     Est. extremal eigenvalues     -0.83645     2.63069  converged:  T
     TRS4 it   1 1.00000000   0.286E+02       0.007     2136.368   0.100E-11
     TRS4 it   2 1.00000000   0.237E+02       0.013     2202.264   0.100E-11
     TRS4 it   3 1.00000000   0.156E+02       0.013     2161.399   0.100E-11
     TRS4 it   4 1.00000000   0.913E+01       0.013     2176.174   0.100E-11
     TRS4 it   5 1.00000000   0.385E+01       0.013     2197.348   0.100E-11
     TRS4 it   6 1.00000000   0.100E+01       0.013     2170.877   0.100E-11
     TRS4 it   7 1.00000000   0.124E+00       0.013     2162.593   0.100E-11
     TRS4 it   8 1.00000000   0.277E-02       0.013     2200.251   0.100E-11
     TRS4 it   9 1.00000000   0.174E-05       0.013     2175.286   0.100E-11
     TRS4 it  10 1.00000000   0.140E-11       0.013     2197.406   0.100E-11
     Final TRS4 iteration   10 1.00000000   0.140E-11
     Chemical potential (mu):       0.05325
 
 PAO| energy:  -191.43616234521298      penalty:   4.9633401319723700E-004
 PAO|LS| adapt:  T T F
 PAO|LS| adapt: scan_steps:    0.0000000000000000       0.20499422606768503        0.0000000000000000     
 PAO|LS| adapt: energies:   -191.33461689922765       -191.43616234521298        0.0000000000000000     
 PAO| ======================= Iteration:        11 =============================

     Lanczos converged:  T threshold:   0.100E-02
     Est. extremal eigenvalues:    0.477E+01   0.126E+00
     Est. condition number :    0.379E+02

 Order=           3
     NS sqrt iter    1 1.00000000   0.122E+01       0.021     2707.283
     NS sqrt iter    2 1.00000000   0.625E+00       0.034     3379.052
     NS sqrt iter    3 1.00000000   0.201E+00       0.034     3374.505
     NS sqrt iter    4 1.00000000   0.257E-01       0.034     3377.560
     NS sqrt iter    5 1.00000000   0.117E-03       0.034     3360.734
     NS sqrt iter    6 1.00000000   0.410E-10       0.019     2220.113
     Symmetrizing Results
     Final NS sqrt iter    6 1.00000000   0.221E-11

     Est. extremal eigenvalues     -0.83662     2.61300  converged:  T
     TRS4 it   1 1.00000000   0.286E+02       0.007     2125.556   0.100E-11
     TRS4 it   2 1.00000000   0.236E+02       0.013     2207.533   0.100E-11
     TRS4 it   3 1.00000000   0.156E+02       0.013     2195.795   0.100E-11
     TRS4 it   4 1.00000000   0.911E+01       0.013     2194.234   0.100E-11
     TRS4 it   5 1.00000000   0.382E+01       0.013     2155.517   0.100E-11
     TRS4 it   6 1.00000000   0.987E+00       0.013     2186.248   0.100E-11
     TRS4 it   7 1.00000000   0.120E+00       0.013     2209.506   0.100E-11
     TRS4 it   8 1.00000000   0.258E-02       0.013     2211.072   0.100E-11
     TRS4 it   9 1.00000000   0.153E-05       0.013     2194.886   0.100E-11
     TRS4 it  10 1.00000000   0.112E-11       0.013     2191.217   0.100E-11
     Final TRS4 iteration   10 1.00000000   0.112E-11
     Chemical potential (mu):       0.05423
 
 PAO| energy:  -191.44489327452837      penalty:   5.0898727160103943E-004
 PAO|LS| adapt:  T T F
 PAO|LS| adapt: scan_steps:    0.0000000000000000       0.40998845213537005        0.0000000000000000     
 PAO|LS| adapt: energies:   -191.33461689922765       -191.44489327452837        0.0000000000000000     
 PAO| ======================= Iteration:        12 =============================

     Lanczos converged:  T threshold:   0.100E-02
     Est. extremal eigenvalues:    0.467E+01   0.133E+00
     Est. condition number :    0.350E+02

 Order=           3
     NS sqrt iter    1 1.00000000   0.120E+01       0.021     2680.620
     NS sqrt iter    2 1.00000000   0.609E+00       0.034     3372.477
     NS sqrt iter    3 1.00000000   0.191E+00       0.034     3348.581
     NS sqrt iter    4 1.00000000   0.219E-01       0.034     3371.548
     NS sqrt iter    5 1.00000000   0.726E-04       0.034     3374.015
     NS sqrt iter    6 1.00000000   0.910E-11       0.014     2143.526
     Symmetrizing Results
     Final NS sqrt iter    6 1.00000000   0.143E-11

     Est. extremal eigenvalues     -0.83559     2.57830  converged:  T
     TRS4 it   1 1.00000000   0.285E+02       0.007     2115.844   0.100E-11
     TRS4 it   2 1.00000000   0.234E+02       0.013     2192.696   0.100E-11
     TRS4 it   3 1.00000000   0.155E+02       0.013     2190.261   0.100E-11
     TRS4 it   4 1.00000000   0.904E+01       0.013     2197.626   0.100E-11
     TRS4 it   5 1.00000000   0.376E+01       0.013     2208.652   0.100E-11
     TRS4 it   6 1.00000000   0.951E+00       0.013     2179.961   0.100E-11
     TRS4 it   7 1.00000000   0.111E+00       0.013     2185.818   0.100E-11
     TRS4 it   8 1.00000000   0.220E-02       0.013     2190.901   0.100E-11
     TRS4 it   9 1.00000000   0.113E-05       0.013     2205.891   0.100E-11
     TRS4 it  10 1.00000000   0.602E-12       0.013     2198.558   0.100E-11
     Final TRS4 iteration   10 1.00000000   0.602E-12
     Chemical potential (mu):       0.05638
 
 PAO| energy:  -191.20022621839931      penalty:   5.7127546096642908E-004
 PAO|LS| Need extra step
 PAO|LS| adapt:  T T T
 PAO|LS| adapt: scan_steps:    0.0000000000000000       0.40998845213537005       0.81997690427074010     
 PAO|LS| adapt: energies:   -191.33461689922765       -191.44489327452837       -191.20022621839931     
 PAO|LS| adapt: suggested step_size:   0.33237238386177870     
 PAO|LS| adapt: predicted energy  -191.45125374407584     
 PAO| ======================= Iteration:        13 =============================

     Lanczos converged:  T threshold:   0.100E-02
     Est. extremal eigenvalues:    0.479E+01   0.124E+00
     Est. condition number :    0.385E+02

 Order=           3
     NS sqrt iter    1 1.00000000   0.122E+01       0.021     2704.683
     NS sqrt iter    2 1.00000000   0.628E+00       0.034     3356.328
     NS sqrt iter    3 1.00000000   0.204E+00       0.034     3341.866
     NS sqrt iter    4 1.00000000   0.264E-01       0.034     3355.790
     NS sqrt iter    5 1.00000000   0.128E-03       0.034     3358.863
     NS sqrt iter    6 1.00000000   0.541E-10       0.021     2265.985
     Symmetrizing Results
     Final NS sqrt iter    6 1.00000000   0.221E-11

     Est. extremal eigenvalues     -0.83661     2.61969  converged:  T
     TRS4 it   1 1.00000000   0.286E+02       0.007     2123.589   0.100E-11
     TRS4 it   2 1.00000000   0.237E+02       0.013     2185.487   0.100E-11
     TRS4 it   3 1.00000000   0.156E+02       0.013     2190.824   0.100E-11
     TRS4 it   4 1.00000000   0.912E+01       0.013     2211.917   0.100E-11
     TRS4 it   5 1.00000000   0.383E+01       0.013     2211.207   0.100E-11
     TRS4 it   6 1.00000000   0.993E+00       0.013     2206.038   0.100E-11
     TRS4 it   7 1.00000000   0.122E+00       0.013     2216.368   0.100E-11
     TRS4 it   8 1.00000000   0.265E-02       0.013     2222.971   0.100E-11
     TRS4 it   9 1.00000000   0.161E-05       0.013     2169.646   0.100E-11
     TRS4 it  10 1.00000000   0.120E-11       0.013     2213.001   0.100E-11
     Final TRS4 iteration   10 1.00000000   0.120E-11
     Chemical potential (mu):       0.05386
 
 PAO| energy:  -191.45225249227713      penalty:   5.0294349973040728E-004
 PAO|CG| trace_G_new   0.27901125271297611     
 PAO|CG| trace_G_prev   0.73561341244283684     
 PAO|CG| trace_G_mix   -1.1953232650794152E-002
 PAO|CG| trace_D   0.85694771060601826     
 PAO|CG| trace_D_Gnew   1.1866429206026921E-002
 PAO|CG| beta:   0.39553994046618962     
 PAO| norm of gradient:  0.52821515759487259     
 PAO| energy improvement: -0.11763559304947080     
 PAO| step     13                 -191.452252492  0.103E-02  0.332E+00     1.889
 PAO|LS| adapt:  T F F
 PAO|LS| adapt: scan_steps:    0.0000000000000000        0.0000000000000000        0.0000000000000000     
 PAO|LS| adapt: energies:   -191.45225249227713        0.0000000000000000        0.0000000000000000     
 PAO| ======================= Iteration:        14 =============================

     Lanczos converged:  T threshold:   0.100E-02
     Est. extremal eigenvalues:    0.472E+01   0.127E+00
     Est. condition number :    0.370E+02

 Order=           3
     NS sqrt iter    1 1.00000000   0.121E+01       0.021     2694.836
     NS sqrt iter    2 1.00000000   0.617E+00       0.034     3368.523
     NS sqrt iter    3 1.00000000   0.197E+00       0.034     3355.930
     NS sqrt iter    4 1.00000000   0.243E-01       0.034     3358.135
     NS sqrt iter    5 1.00000000   0.102E-03       0.034     3356.342
     NS sqrt iter    6 1.00000000   0.268E-10       0.017     2164.197
     Symmetrizing Results
     Final NS sqrt iter    6 1.00000000   0.212E-11

     Est. extremal eigenvalues     -0.83709     2.61382  converged:  T
     TRS4 it   1 1.00000000   0.286E+02       0.007     2121.696   0.100E-11
     TRS4 it   2 1.00000000   0.236E+02       0.013     2210.546   0.100E-11
     TRS4 it   3 1.00000000   0.155E+02       0.013     2211.295   0.100E-11
     TRS4 it   4 1.00000000   0.906E+01       0.013     2188.137   0.100E-11
     TRS4 it   5 1.00000000   0.378E+01       0.013     2187.644   0.100E-11
     TRS4 it   6 1.00000000   0.963E+00       0.013     2203.553   0.100E-11
     TRS4 it   7 1.00000000   0.114E+00       0.013     2176.604   0.100E-11
     TRS4 it   8 1.00000000   0.233E-02       0.013     2211.436   0.100E-11
     TRS4 it   9 1.00000000   0.125E-05       0.013     2203.990   0.100E-11
     TRS4 it  10 1.00000000   0.741E-12       0.013     2211.503   0.100E-11
     Final TRS4 iteration   10 1.00000000   0.741E-12
     Chemical potential (mu):       0.05580
 
 PAO| energy:  -191.50487889362881      penalty:   5.0546205707823757E-004
 PAO|LS| adapt:  T T F
 PAO|LS| adapt: scan_steps:    0.0000000000000000       0.33237238386177870        0.0000000000000000     
 PAO|LS| adapt: energies:   -191.45225249227713       -191.50487889362881        0.0000000000000000     
 PAO| ======================= Iteration:        15 =============================

     Lanczos converged:  T threshold:   0.100E-02
     Est. extremal eigenvalues:    0.465E+01   0.130E+00
     Est. condition number :    0.357E+02

 Order=           3
     NS sqrt iter    1 1.00000000   0.119E+01       0.021     2695.700
     NS sqrt iter    2 1.00000000   0.607E+00       0.034     3375.541
     NS sqrt iter    3 1.00000000   0.191E+00       0.034     3364.204
     NS sqrt iter    4 1.00000000   0.224E-01       0.034     3373.041
     NS sqrt iter    5 1.00000000   0.812E-04       0.034     3339.744
     NS sqrt iter    6 1.00000000   0.135E-10       0.015     2141.740
     Symmetrizing Results
     Final NS sqrt iter    6 1.00000000   0.161E-11

     Est. extremal eigenvalues     -0.83710     2.60794  converged:  T
     TRS4 it   1 1.00000000   0.286E+02       0.007     2131.104   0.100E-11
     TRS4 it   2 1.00000000   0.236E+02       0.013     2220.129   0.100E-11
     TRS4 it   3 1.00000000   0.155E+02       0.013     2185.863   0.100E-11
     TRS4 it   4 1.00000000   0.900E+01       0.013     2198.297   0.100E-11
     TRS4 it   5 1.00000000   0.372E+01       0.013     2202.731   0.100E-11
     TRS4 it   6 1.00000000   0.932E+00       0.013     2196.354   0.100E-11
     TRS4 it   7 1.00000000   0.107E+00       0.013     2186.495   0.100E-11
     TRS4 it   8 1.00000000   0.205E-02       0.013     2174.148   0.100E-11
     TRS4 it   9 1.00000000   0.978E-06       0.013     2204.932   0.100E-11
     TRS4 it  10 1.00000000   0.437E-12       0.013     2202.434   0.100E-11
     Final TRS4 iteration   10 1.00000000   0.437E-12
     Chemical potential (mu):       0.05764
 
 PAO| energy:  -191.48163259296169      penalty:   5.2338197994811187E-004
 PAO|LS| adapt:  T T T
 PAO|LS| adapt: scan_steps:    0.0000000000000000       0.33237238386177870       0.66474476772355739     
 PAO|LS| adapt: energies:   -191.45225249227713       -191.50487889362881       -191.48163259296169     
 PAO|LS| adapt: suggested step_size:   0.39672447521214227     
 PAO|LS| adapt: predicted energy  -191.50630099652827     
 PAO| ======================= Iteration:        16 =============================

     Lanczos converged:  T threshold:   0.100E-02
     Est. extremal eigenvalues:    0.471E+01   0.128E+00
     Est. condition number :    0.368E+02

 Order=           3
     NS sqrt iter    1 1.00000000   0.121E+01       0.021     2688.558
     NS sqrt iter    2 1.00000000   0.615E+00       0.034     3344.113
     NS sqrt iter    3 1.00000000   0.196E+00       0.034     3342.354
     NS sqrt iter    4 1.00000000   0.240E-01       0.034     3336.177
     NS sqrt iter    5 1.00000000   0.973E-04       0.034     3347.287
     NS sqrt iter    6 1.00000000   0.235E-10       0.017     2180.780
     Symmetrizing Results
     Final NS sqrt iter    6 1.00000000   0.197E-11

     Est. extremal eigenvalues     -0.83713     2.61268  converged:  T
     TRS4 it   1 1.00000000   0.286E+02       0.007     2126.217   0.100E-11
     TRS4 it   2 1.00000000   0.236E+02       0.013     2193.629   0.100E-11
     TRS4 it   3 1.00000000   0.155E+02       0.013     2203.365   0.100E-11
     TRS4 it   4 1.00000000   0.905E+01       0.013     2200.682   0.100E-11
     TRS4 it   5 1.00000000   0.377E+01       0.013     2207.873   0.100E-11
     TRS4 it   6 1.00000000   0.957E+00       0.013     2203.575   0.100E-11
     TRS4 it   7 1.00000000   0.113E+00       0.013     2187.945   0.100E-11
     TRS4 it   8 1.00000000   0.228E-02       0.013     2206.491   0.100E-11
     TRS4 it   9 1.00000000   0.119E-05       0.013     2183.462   0.100E-11
     TRS4 it  10 1.00000000   0.675E-12       0.013     2213.248   0.100E-11
     Final TRS4 iteration   10 1.00000000   0.675E-12
     Chemical potential (mu):       0.05617
 
 PAO| energy:  -191.50624295267937      penalty:   5.0768015692576377E-004
 PAO|CG| trace_G_new   0.10229676968148924     
 PAO|CG| trace_G_prev   0.27901125271297611     
 PAO|CG| trace_G_mix    4.4998604609797887E-003
 PAO|CG| trace_D   0.40369500927736868     
 PAO|CG| trace_D_Gnew   8.3403834768786987E-004
 PAO|CG| beta:   0.35051241937225697     
 PAO| norm of gradient:  0.31983866195550725     
 PAO| energy improvement:  -5.3990460402246754E-002
 PAO| step     16                 -191.506242953  0.625E-03  0.397E+00     1.449
 PAO|LS| adapt:  T F F
 PAO|LS| adapt: scan_steps:    0.0000000000000000        0.0000000000000000        0.0000000000000000     
 PAO|LS| adapt: energies:   -191.50624295267937        0.0000000000000000        0.0000000000000000     
 PAO| ======================= Iteration:        17 =============================

     Lanczos converged:  T threshold:   0.100E-02
     Est. extremal eigenvalues:    0.467E+01   0.129E+00
     Est. condition number :    0.362E+02

 Order=           3
     NS sqrt iter    1 1.00000000   0.120E+01       0.021     2726.043
     NS sqrt iter    2 1.00000000   0.611E+00       0.034     3355.141
     NS sqrt iter    3 1.00000000   0.194E+00       0.034     3361.235
     NS sqrt iter    4 1.00000000   0.232E-01       0.034     3354.384
     NS sqrt iter    5 1.00000000   0.889E-04       0.034     3353.192
     NS sqrt iter    6 1.00000000   0.177E-10       0.016     2144.373
     Symmetrizing Results
     Final NS sqrt iter    6 1.00000000   0.179E-11

     Est. extremal eigenvalues     -0.83719     2.61102  converged:  T
     TRS4 it   1 1.00000000   0.286E+02       0.007     2089.875   0.100E-11
     TRS4 it   2 1.00000000   0.236E+02       0.013     2189.789   0.100E-11
     TRS4 it   3 1.00000000   0.155E+02       0.013     2205.342   0.100E-11
     TRS4 it   4 1.00000000   0.901E+01       0.013     2188.672   0.100E-11
     TRS4 it   5 1.00000000   0.372E+01       0.013     2181.321   0.100E-11
     TRS4 it   6 1.00000000   0.937E+00       0.013     2193.243   0.100E-11
     TRS4 it   7 1.00000000   0.109E+00       0.013     2165.987   0.100E-11
     TRS4 it   8 1.00000000   0.210E-02       0.013     2183.782   0.100E-11
     TRS4 it   9 1.00000000   0.102E-05       0.013     2168.573   0.100E-11
     TRS4 it  10 1.00000000   0.515E-12       0.013     2206.967   0.100E-11
     Final TRS4 iteration   10 1.00000000   0.515E-12
     Chemical potential (mu):       0.05732
 
 PAO| energy:  -191.50969477903467      penalty:   5.0027988296671251E-004
 PAO|LS| adapt:  T T F
 PAO|LS| adapt: scan_steps:    0.0000000000000000       0.39672447521214227        0.0000000000000000     
 PAO|LS| adapt: energies:   -191.50624295267937       -191.50969477903467        0.0000000000000000     
 PAO| ======================= Iteration:        18 =============================

     Lanczos converged:  T threshold:   0.100E-02
     Est. extremal eigenvalues:    0.464E+01   0.130E+00
     Est. condition number :    0.356E+02

 Order=           3
     NS sqrt iter    1 1.00000000   0.119E+01       0.021     2674.984
     NS sqrt iter    2 1.00000000   0.607E+00       0.034     3348.468
     NS sqrt iter    3 1.00000000   0.191E+00       0.034     3359.485
     NS sqrt iter    4 1.00000000   0.225E-01       0.034     3369.527
     NS sqrt iter    5 1.00000000   0.816E-04       0.034     3314.746
     NS sqrt iter    6 1.00000000   0.134E-10       0.015     2137.325
     Symmetrizing Results
     Final NS sqrt iter    6 1.00000000   0.165E-11

     Est. extremal eigenvalues     -0.83699     2.60930  converged:  T
     TRS4 it   1 1.00000000   0.287E+02       0.007     2152.268   0.100E-11
     TRS4 it   2 1.00000000   0.236E+02       0.013     2188.942   0.100E-11
     TRS4 it   3 1.00000000   0.155E+02       0.013     2182.439   0.100E-11
     TRS4 it   4 1.00000000   0.896E+01       0.013     2188.593   0.100E-11
     TRS4 it   5 1.00000000   0.368E+01       0.013     2203.326   0.100E-11
     TRS4 it   6 1.00000000   0.917E+00       0.013     2207.292   0.100E-11
     TRS4 it   7 1.00000000   0.104E+00       0.013     2196.129   0.100E-11
     TRS4 it   8 1.00000000   0.193E-02       0.013     2189.792   0.100E-11
     TRS4 it   9 1.00000000   0.868E-06       0.013     2194.606   0.100E-11
     TRS4 it  10 1.00000000   0.361E-12       0.013     2220.881   0.100E-11
     Final TRS4 iteration   10 1.00000000   0.361E-12
     Chemical potential (mu):       0.05851
 
 PAO| energy:  -191.43889394098500      penalty:   5.0028988430984411E-004
 PAO|LS| adapt:  T T T
 PAO|LS| adapt: scan_steps:    0.0000000000000000       0.39672447521214227       0.79344895042428454     
 PAO|LS| adapt: energies:   -191.50624295267937       -191.50969477903467       -191.43889394098500     
 PAO|LS| adapt: suggested step_size:   0.21680499666804726     
 PAO|LS| adapt: predicted energy  -191.51733068242709     
 PAO| ======================= Iteration:        19 =============================

     Lanczos converged:  T threshold:   0.100E-02
     Est. extremal eigenvalues:    0.469E+01   0.129E+00
     Est. condition number :    0.364E+02

 Order=           3
     NS sqrt iter    1 1.00000000   0.120E+01       0.021     2709.373
     NS sqrt iter    2 1.00000000   0.613E+00       0.034     3372.914
     NS sqrt iter    3 1.00000000   0.195E+00       0.034     3338.327
     NS sqrt iter    4 1.00000000   0.235E-01       0.034     3351.453
     NS sqrt iter    5 1.00000000   0.926E-04       0.034     3350.064
     NS sqrt iter    6 1.00000000   0.201E-10       0.016     2165.261
     Symmetrizing Results
     Final NS sqrt iter    6 1.00000000   0.187E-11

     Est. extremal eigenvalues     -0.83720     2.61178  converged:  T
     TRS4 it   1 1.00000000   0.286E+02       0.007     2108.420   0.100E-11
     TRS4 it   2 1.00000000   0.236E+02       0.013     2185.994   0.100E-11
     TRS4 it   3 1.00000000   0.155E+02       0.013     2194.975   0.100E-11
     TRS4 it   4 1.00000000   0.903E+01       0.013     2184.716   0.100E-11
     TRS4 it   5 1.00000000   0.374E+01       0.013     2210.525   0.100E-11
     TRS4 it   6 1.00000000   0.946E+00       0.013     2209.498   0.100E-11
     TRS4 it   7 1.00000000   0.111E+00       0.013     2199.153   0.100E-11
     TRS4 it   8 1.00000000   0.218E-02       0.013     2209.722   0.100E-11
     TRS4 it   9 1.00000000   0.109E-05       0.013     2215.447   0.100E-11
     TRS4 it  10 1.00000000   0.593E-12       0.013     2193.260   0.100E-11
     Final TRS4 iteration   10 1.00000000   0.593E-12
     Chemical potential (mu):       0.05679
 
 PAO| energy:  -191.51731236206558      penalty:   5.0273233727396558E-004
 PAO|CG| trace_G_new    2.0650746623009569E-002
 PAO|CG| trace_G_prev   0.10229676968148924     
 PAO|CG| trace_G_mix   -2.6718322275636527E-004
 PAO|CG| trace_D   0.15130963551969548     
 PAO|CG| trace_D_Gnew  -5.6419417235359479E-005
 PAO|CG| beta:   0.20448279951454879     
 PAO| norm of gradient:  0.14370367644221760     
 PAO| energy improvement:  -1.1069409386209372E-002
 PAO| step     19                 -191.517312362  0.281E-03  0.217E+00     1.447
 PAO|LS| adapt:  T F F
 PAO|LS| adapt: scan_steps:    0.0000000000000000        0.0000000000000000        0.0000000000000000     
 PAO|LS| adapt: energies:   -191.51731236206558        0.0000000000000000        0.0000000000000000     
 PAO| ======================= Iteration:        20 =============================

     Lanczos converged:  T threshold:   0.100E-02
     Est. extremal eigenvalues:    0.468E+01   0.129E+00
     Est. condition number :    0.364E+02

 Order=           3
     NS sqrt iter    1 1.00000000   0.120E+01       0.021     2682.595
     NS sqrt iter    2 1.00000000   0.613E+00       0.034     3365.593
     NS sqrt iter    3 1.00000000   0.195E+00       0.034     3353.487
     NS sqrt iter    4 1.00000000   0.236E-01       0.034     3344.731
     NS sqrt iter    5 1.00000000   0.924E-04       0.034     3369.919
     NS sqrt iter    6 1.00000000   0.197E-10       0.016     2148.692
     Symmetrizing Results
     Final NS sqrt iter    6 1.00000000   0.185E-11

     Est. extremal eigenvalues     -0.83720     2.61051  converged:  T
     TRS4 it   1 1.00000000   0.286E+02       0.007     2137.195   0.100E-11
     TRS4 it   2 1.00000000   0.236E+02       0.013     2188.023   0.100E-11
     TRS4 it   3 1.00000000   0.155E+02       0.013     2181.489   0.100E-11
     TRS4 it   4 1.00000000   0.902E+01       0.013     2204.688   0.100E-11
     TRS4 it   5 1.00000000   0.373E+01       0.013     2168.601   0.100E-11
     TRS4 it   6 1.00000000   0.942E+00       0.013     2167.032   0.100E-11
     TRS4 it   7 1.00000000   0.110E+00       0.013     2183.457   0.100E-11
     TRS4 it   8 1.00000000   0.214E-02       0.013     2208.906   0.100E-11
     TRS4 it   9 1.00000000   0.106E-05       0.013     2203.087   0.100E-11
     TRS4 it  10 1.00000000   0.520E-12       0.013     2205.587   0.100E-11
     Final TRS4 iteration   10 1.00000000   0.520E-12
     Chemical potential (mu):       0.05699
 
 PAO| energy:  -191.52092667314452      penalty:   4.9323851555219372E-004
 PAO|LS| adapt:  T T F
 PAO|LS| adapt: scan_steps:    0.0000000000000000       0.21680499666804726        0.0000000000000000     
 PAO|LS| adapt: energies:   -191.51731236206558       -191.52092667314452        0.0000000000000000     
 PAO| ======================= Iteration:        21 =============================

     Lanczos converged:  T threshold:   0.100E-02
     Est. extremal eigenvalues:    0.468E+01   0.129E+00
     Est. condition number :    0.363E+02

 Order=           3
     NS sqrt iter    1 1.00000000   0.120E+01       0.021     2714.010
     NS sqrt iter    2 1.00000000   0.612E+00       0.034     3363.419
     NS sqrt iter    3 1.00000000   0.195E+00       0.034     3348.571
     NS sqrt iter    4 1.00000000   0.236E-01       0.034     3342.205
     NS sqrt iter    5 1.00000000   0.922E-04       0.034     3361.399
     NS sqrt iter    6 1.00000000   0.193E-10       0.016     2167.967
     Symmetrizing Results
     Final NS sqrt iter    6 1.00000000   0.186E-11

     Est. extremal eigenvalues     -0.83721     2.60923  converged:  T
     TRS4 it   1 1.00000000   0.286E+02       0.007     2122.379   0.100E-11
     TRS4 it   2 1.00000000   0.236E+02       0.013     2200.627   0.100E-11
     TRS4 it   3 1.00000000   0.155E+02       0.013     2183.365   0.100E-11
     TRS4 it   4 1.00000000   0.900E+01       0.013     2194.982   0.100E-11
     TRS4 it   5 1.00000000   0.372E+01       0.013     2221.149   0.100E-11
     TRS4 it   6 1.00000000   0.937E+00       0.013     2200.939   0.100E-11
     TRS4 it   7 1.00000000   0.109E+00       0.013     2196.042   0.100E-11
     TRS4 it   8 1.00000000   0.211E-02       0.013     2186.669   0.100E-11
     TRS4 it   9 1.00000000   0.103E-05       0.013     2215.418   0.100E-11
     TRS4 it  10 1.00000000   0.485E-12       0.013     2187.977   0.100E-11
     Final TRS4 iteration   10 1.00000000   0.485E-12
     Chemical potential (mu):       0.05718
 
 PAO| energy:  -191.52279745736197      penalty:   4.8414109514042841E-004
 PAO|LS| adapt:  T T F
 PAO|LS| adapt: scan_steps:    0.0000000000000000       0.43360999333609451        0.0000000000000000     
 PAO|LS| adapt: energies:   -191.51731236206558       -191.52279745736197        0.0000000000000000     
 PAO| ======================= Iteration:        22 =============================

     Lanczos converged:  T threshold:   0.100E-02
     Est. extremal eigenvalues:    0.467E+01   0.129E+00
     Est. condition number :    0.362E+02

 Order=           3
     NS sqrt iter    1 1.00000000   0.120E+01       0.021     2721.143
     NS sqrt iter    2 1.00000000   0.612E+00       0.034     3357.128
     NS sqrt iter    3 1.00000000   0.195E+00       0.034     3371.527
     NS sqrt iter    4 1.00000000   0.236E-01       0.034     3363.689
     NS sqrt iter    5 1.00000000   0.919E-04       0.034     3367.758
     NS sqrt iter    6 1.00000000   0.185E-10       0.016     2151.258
     Symmetrizing Results
     Final NS sqrt iter    6 1.00000000   0.185E-11

     Est. extremal eigenvalues     -0.83720     2.60665  converged:  T
     TRS4 it   1 1.00000000   0.286E+02       0.007     2126.849   0.100E-11
     TRS4 it   2 1.00000000   0.236E+02       0.013     2186.747   0.100E-11
     TRS4 it   3 1.00000000   0.155E+02       0.013     2188.428   0.100E-11
     TRS4 it   4 1.00000000   0.898E+01       0.013     2183.978   0.100E-11
     TRS4 it   5 1.00000000   0.370E+01       0.013     2177.649   0.100E-11
     TRS4 it   6 1.00000000   0.929E+00       0.013     2190.278   0.100E-11
     TRS4 it   7 1.00000000   0.107E+00       0.013     2191.237   0.100E-11
     TRS4 it   8 1.00000000   0.204E-02       0.013     2191.713   0.100E-11
     TRS4 it   9 1.00000000   0.968E-06       0.013     2186.322   0.100E-11
     TRS4 it  10 1.00000000   0.467E-12       0.013     2184.390   0.100E-11
     Final TRS4 iteration   10 1.00000000   0.467E-12
     Chemical potential (mu):       0.05757
 
 PAO| energy:  -191.52123131002082      penalty:   4.6711071256159964E-004
 PAO|LS| Need extra step
 PAO|LS| adapt:  T T T
 PAO|LS| adapt: scan_steps:    0.0000000000000000       0.43360999333609451       0.86721998667218902     
 PAO|LS| adapt: energies:   -191.51731236206558       -191.52279745736197       -191.52123131002082     
 PAO|LS| adapt: suggested step_size:   0.55410613026584965     
 PAO|LS| adapt: predicted energy  -191.52306971705195     
 PAO| ======================= Iteration:        23 =============================

     Lanczos converged:  T threshold:   0.100E-02
     Est. extremal eigenvalues:    0.468E+01   0.129E+00
     Est. condition number :    0.363E+02

 Order=           3
     NS sqrt iter    1 1.00000000   0.120E+01       0.021     2690.518
     NS sqrt iter    2 1.00000000   0.612E+00       0.034     3376.149
     NS sqrt iter    3 1.00000000   0.195E+00       0.034     3365.875
     NS sqrt iter    4 1.00000000   0.236E-01       0.034     3364.931
     NS sqrt iter    5 1.00000000   0.921E-04       0.034     3354.322
     NS sqrt iter    6 1.00000000   0.191E-10       0.016     2161.067
     Symmetrizing Results
     Final NS sqrt iter    6 1.00000000   0.185E-11

     Est. extremal eigenvalues     -0.83721     2.60852  converged:  T
     TRS4 it   1 1.00000000   0.286E+02       0.007     2118.301   0.100E-11
     TRS4 it   2 1.00000000   0.236E+02       0.013     2214.264   0.100E-11
     TRS4 it   3 1.00000000   0.155E+02       0.013     2194.512   0.100E-11
     TRS4 it   4 1.00000000   0.900E+01       0.013     2176.482   0.100E-11
     TRS4 it   5 1.00000000   0.372E+01       0.013     2177.578   0.100E-11
     TRS4 it   6 1.00000000   0.935E+00       0.013     2185.944   0.100E-11
     TRS4 it   7 1.00000000   0.108E+00       0.013     2198.810   0.100E-11
     TRS4 it   8 1.00000000   0.209E-02       0.013     2222.120   0.100E-11
     TRS4 it   9 1.00000000   0.101E-05       0.013     2214.790   0.100E-11
     TRS4 it  10 1.00000000   0.481E-12       0.013     2199.714   0.100E-11
     Final TRS4 iteration   10 1.00000000   0.481E-12
     Chemical potential (mu):       0.05729
 
 PAO| energy:  -191.52307632572604      penalty:   4.7925384072792891E-004
 PAO|CG| trace_G_new    1.4606045261543091E-002
 PAO|CG| trace_G_prev    2.0650746623009569E-002
 PAO|CG| trace_G_mix    1.0818825543845658E-004
 PAO|CG| trace_D    2.7000562590318203E-002
 PAO|CG| trace_D_Gnew  -4.5710757491073143E-005
 PAO|CG| beta:   0.70205001643624665     
 PAO| norm of gradient:  0.12085547261726748     
 PAO| energy improvement:  -5.7639636604562838E-003
 PAO| step     23                 -191.523076326  0.236E-03  0.554E+00     1.876
 PAO|LS| adapt:  T F F
 PAO|LS| adapt: scan_steps:    0.0000000000000000        0.0000000000000000        0.0000000000000000     
 PAO|LS| adapt: energies:   -191.52307632572604        0.0000000000000000        0.0000000000000000     
 PAO| ======================= Iteration:        24 =============================

     Lanczos converged:  T threshold:   0.100E-02
     Est. extremal eigenvalues:    0.467E+01   0.129E+00
     Est. condition number :    0.362E+02

 Order=           3
     NS sqrt iter    1 1.00000000   0.120E+01       0.021     2682.997
     NS sqrt iter    2 1.00000000   0.611E+00       0.033     3383.343
     NS sqrt iter    3 1.00000000   0.195E+00       0.034     3343.036
     NS sqrt iter    4 1.00000000   0.235E-01       0.034     3367.174
     NS sqrt iter    5 1.00000000   0.918E-04       0.033     3381.039
     NS sqrt iter    6 1.00000000   0.183E-10       0.016     2148.522
     Symmetrizing Results
     Final NS sqrt iter    6 1.00000000   0.184E-11

     Est. extremal eigenvalues     -0.83721     2.60486  converged:  T
     TRS4 it   1 1.00000000   0.286E+02       0.007     2139.795   0.100E-11
     TRS4 it   2 1.00000000   0.236E+02       0.013     2209.098   0.100E-11
     TRS4 it   3 1.00000000   0.155E+02       0.013     2186.213   0.100E-11
     TRS4 it   4 1.00000000   0.897E+01       0.013     2185.405   0.100E-11
     TRS4 it   5 1.00000000   0.370E+01       0.013     2212.098   0.100E-11
     TRS4 it   6 1.00000000   0.926E+00       0.013     2195.902   0.100E-11
     TRS4 it   7 1.00000000   0.107E+00       0.013     2207.876   0.100E-11
     TRS4 it   8 1.00000000   0.202E-02       0.013     2216.465   0.100E-11
     TRS4 it   9 1.00000000   0.948E-06       0.013     2190.269   0.100E-11
     TRS4 it  10 1.00000000   0.409E-12       0.013     2188.043   0.100E-11
     Final TRS4 iteration   10 1.00000000   0.409E-12
     Chemical potential (mu):       0.05770
 
 PAO| energy:  -191.52603452797996      penalty:   4.4370939838669996E-004
 PAO|LS| adapt:  T T F
 PAO|LS| adapt: scan_steps:    0.0000000000000000       0.55410613026584965        0.0000000000000000     
 PAO|LS| adapt: energies:   -191.52307632572604       -191.52603452797996        0.0000000000000000     
 PAO| ======================= Iteration:        25 =============================

     Lanczos converged:  T threshold:   0.100E-02
     Est. extremal eigenvalues:    0.466E+01   0.129E+00
     Est. condition number :    0.360E+02

 Order=           3
     NS sqrt iter    1 1.00000000   0.119E+01       0.021     2678.724
     NS sqrt iter    2 1.00000000   0.610E+00       0.033     3381.749
     NS sqrt iter    3 1.00000000   0.194E+00       0.034     3362.775
     NS sqrt iter    4 1.00000000   0.235E-01       0.034     3356.974
     NS sqrt iter    5 1.00000000   0.916E-04       0.034     3365.517
     NS sqrt iter    6 1.00000000   0.176E-10       0.016     2156.799
     Symmetrizing Results
     Final NS sqrt iter    6 1.00000000   0.184E-11

     Est. extremal eigenvalues     -0.83721     2.60111  converged:  T
     TRS4 it   1 1.00000000   0.286E+02       0.007     2109.799   0.100E-11
     TRS4 it   2 1.00000000   0.235E+02       0.013     2204.942   0.100E-11
     TRS4 it   3 1.00000000   0.155E+02       0.013     2179.073   0.100E-11
     TRS4 it   4 1.00000000   0.895E+01       0.013     2202.221   0.100E-11
     TRS4 it   5 1.00000000   0.368E+01       0.013     2204.316   0.100E-11
     TRS4 it   6 1.00000000   0.917E+00       0.013     2172.498   0.100E-11
     TRS4 it   7 1.00000000   0.105E+00       0.013     2183.499   0.100E-11
     TRS4 it   8 1.00000000   0.195E-02       0.013     2186.108   0.100E-11
     TRS4 it   9 1.00000000   0.888E-06       0.013     2182.531   0.100E-11
     TRS4 it  10 1.00000000   0.393E-12       0.013     2184.821   0.100E-11
     Final TRS4 iteration   10 1.00000000   0.393E-12
     Chemical potential (mu):       0.05812
 
 PAO| energy:  -191.51852039849467      penalty:   4.1150701095760231E-004
 PAO|LS| adapt:  T T T
 PAO|LS| adapt: scan_steps:    0.0000000000000000       0.55410613026584965        1.1082122605316993     
 PAO|LS| adapt: energies:   -191.52307632572604       -191.52603452797996       -191.51852039849467     
 PAO|LS| adapt: suggested step_size:   0.43357579992437462     
 PAO|LS| adapt: predicted energy  -191.52628228169726     
 PAO| ======================= Iteration:        26 =============================

     Lanczos converged:  T threshold:   0.100E-02
     Est. extremal eigenvalues:    0.467E+01   0.129E+00
     Est. condition number :    0.362E+02

 Order=           3
     NS sqrt iter    1 1.00000000   0.120E+01       0.021     2655.339
     NS sqrt iter    2 1.00000000   0.612E+00       0.034     3372.852
     NS sqrt iter    3 1.00000000   0.195E+00       0.034     3357.619
     NS sqrt iter    4 1.00000000   0.235E-01       0.034     3368.005
     NS sqrt iter    5 1.00000000   0.919E-04       0.034     3345.370
     NS sqrt iter    6 1.00000000   0.184E-10       0.016     2135.218
     Symmetrizing Results
     Final NS sqrt iter    6 1.00000000   0.184E-11

     Est. extremal eigenvalues     -0.83721     2.60567  converged:  T
     TRS4 it   1 1.00000000   0.286E+02       0.007     2115.422   0.100E-11
     TRS4 it   2 1.00000000   0.236E+02       0.013     2186.893   0.100E-11
     TRS4 it   3 1.00000000   0.155E+02       0.013     2188.714   0.100E-11
     TRS4 it   4 1.00000000   0.898E+01       0.013     2177.345   0.100E-11
     TRS4 it   5 1.00000000   0.370E+01       0.013     2163.162   0.100E-11
     TRS4 it   6 1.00000000   0.928E+00       0.013     2188.726   0.100E-11
     TRS4 it   7 1.00000000   0.107E+00       0.013     2203.677   0.100E-11
     TRS4 it   8 1.00000000   0.204E-02       0.013     2181.291   0.100E-11
     TRS4 it   9 1.00000000   0.961E-06       0.013     2217.779   0.100E-11
     TRS4 it  10 1.00000000   0.476E-12       0.013     2198.478   0.100E-11
     Final TRS4 iteration   10 1.00000000   0.476E-12
     Chemical potential (mu):       0.05761
 
 PAO| energy:  -191.52627361536165      penalty:   4.5115159650849310E-004
 PAO|CG| trace_G_new    1.1763594430443341E-002
 PAO|CG| trace_G_prev    1.4606045261543091E-002
 PAO|CG| trace_G_mix    2.1020223811063997E-004
 PAO|CG| trace_D    2.7978109114515960E-002
 PAO|CG| trace_D_Gnew  -6.4676689501130021E-005
 PAO|CG| beta:   0.79100071138024908     
 PAO| norm of gradient:  0.10846010524816643     
 PAO| energy improvement:  -3.1972896356080582E-003
 PAO| step     26                 -191.526273615  0.212E-03  0.434E+00     1.449
 PAO|LS| adapt:  T F F
 PAO|LS| adapt: scan_steps:    0.0000000000000000        0.0000000000000000        0.0000000000000000     
 PAO|LS| adapt: energies:   -191.52627361536165        0.0000000000000000        0.0000000000000000     
 PAO| ======================= Iteration:        27 =============================

     Lanczos converged:  T threshold:   0.100E-02
     Est. extremal eigenvalues:    0.466E+01   0.129E+00
     Est. condition number :    0.361E+02

 Order=           3
     NS sqrt iter    1 1.00000000   0.119E+01       0.021     2690.674
     NS sqrt iter    2 1.00000000   0.610E+00       0.034     3352.716
     NS sqrt iter    3 1.00000000   0.194E+00       0.034     3337.161
     NS sqrt iter    4 1.00000000   0.234E-01       0.034     3373.381
     NS sqrt iter    5 1.00000000   0.914E-04       0.034     3334.237
     NS sqrt iter    6 1.00000000   0.180E-10       0.016     2155.530
     Symmetrizing Results
     Final NS sqrt iter    6 1.00000000   0.184E-11

     Est. extremal eigenvalues     -0.83722     2.60260  converged:  T
     TRS4 it   1 1.00000000   0.286E+02       0.007     2140.523   0.100E-11
     TRS4 it   2 1.00000000   0.236E+02       0.013     2205.059   0.100E-11
     TRS4 it   3 1.00000000   0.155E+02       0.013     2194.400   0.100E-11
     TRS4 it   4 1.00000000   0.896E+01       0.013     2218.964   0.100E-11
     TRS4 it   5 1.00000000   0.368E+01       0.013     2203.309   0.100E-11
     TRS4 it   6 1.00000000   0.920E+00       0.013     2194.772   0.100E-11
     TRS4 it   7 1.00000000   0.105E+00       0.013     2206.568   0.100E-11
     TRS4 it   8 1.00000000   0.197E-02       0.013     2175.392   0.100E-11
     TRS4 it   9 1.00000000   0.900E-06       0.013     2187.194   0.100E-11
     TRS4 it  10 1.00000000   0.387E-12       0.013     2204.015   0.100E-11
     Final TRS4 iteration   10 1.00000000   0.387E-12
     Chemical potential (mu):       0.05805
 
 PAO| energy:  -191.52849454178138      penalty:   4.1528038021030142E-004
 PAO|LS| adapt:  T T F
 PAO|LS| adapt: scan_steps:    0.0000000000000000       0.43357579992437462        0.0000000000000000     
 PAO|LS| adapt: energies:   -191.52627361536165       -191.52849454178138        0.0000000000000000     
 PAO| ======================= Iteration:        28 =============================

     Lanczos converged:  T threshold:   0.100E-02
     Est. extremal eigenvalues:    0.464E+01   0.129E+00
     Est. condition number :    0.360E+02

 Order=           3
     NS sqrt iter    1 1.00000000   0.119E+01       0.021     2700.828
     NS sqrt iter    2 1.00000000   0.608E+00       0.034     3357.436
     NS sqrt iter    3 1.00000000   0.193E+00       0.034     3365.643
     NS sqrt iter    4 1.00000000   0.233E-01       0.034     3351.644
     NS sqrt iter    5 1.00000000   0.910E-04       0.034     3346.834
     NS sqrt iter    6 1.00000000   0.175E-10       0.016     2153.918
     Symmetrizing Results
     Final NS sqrt iter    6 1.00000000   0.185E-11

     Est. extremal eigenvalues     -0.83721     2.59945  converged:  T
     TRS4 it   1 1.00000000   0.287E+02       0.007     2091.125   0.100E-11
     TRS4 it   2 1.00000000   0.235E+02       0.013     2169.717   0.100E-11
     TRS4 it   3 1.00000000   0.155E+02       0.013     2198.507   0.100E-11
     TRS4 it   4 1.00000000   0.894E+01       0.013     2195.878   0.100E-11
     TRS4 it   5 1.00000000   0.367E+01       0.013     2196.395   0.100E-11
     TRS4 it   6 1.00000000   0.911E+00       0.013     2178.403   0.100E-11
     TRS4 it   7 1.00000000   0.103E+00       0.013     2218.682   0.100E-11
     TRS4 it   8 1.00000000   0.190E-02       0.013     2211.261   0.100E-11
     TRS4 it   9 1.00000000   0.842E-06       0.013     2186.701   0.100E-11
     TRS4 it  10 1.00000000   0.329E-12       0.013     2199.522   0.100E-11
     Final TRS4 iteration   10 1.00000000   0.329E-12
     Chemical potential (mu):       0.05850
 
 PAO| energy:  -191.52486146530589      penalty:   3.8229306664729946E-004
 PAO|LS| adapt:  T T T
 PAO|LS| adapt: scan_steps:    0.0000000000000000       0.43357579992437462       0.86715159984874923     
 PAO|LS| adapt: energies:   -191.52627361536165       -191.52849454178138       -191.52486146530589     
 PAO|LS| adapt: suggested step_size:   0.38128046449360703     
 PAO|LS| adapt: predicted energy  -191.52853712306754     
 PAO| ======================= Iteration:        29 =============================

     Lanczos converged:  T threshold:   0.100E-02
     Est. extremal eigenvalues:    0.466E+01   0.129E+00
     Est. condition number :    0.361E+02

 Order=           3
     NS sqrt iter    1 1.00000000   0.119E+01       0.021     2689.421
     NS sqrt iter    2 1.00000000   0.610E+00       0.034     3364.106
     NS sqrt iter    3 1.00000000   0.194E+00       0.034     3375.715
     NS sqrt iter    4 1.00000000   0.234E-01       0.034     3365.345
     NS sqrt iter    5 1.00000000   0.915E-04       0.034     3371.812
     NS sqrt iter    6 1.00000000   0.180E-10       0.016     2128.970
     Symmetrizing Results
     Final NS sqrt iter    6 1.00000000   0.185E-11

     Est. extremal eigenvalues     -0.83722     2.60298  converged:  T
     TRS4 it   1 1.00000000   0.286E+02       0.007     2125.820   0.100E-11
     TRS4 it   2 1.00000000   0.236E+02       0.013     2205.877   0.100E-11
     TRS4 it   3 1.00000000   0.155E+02       0.013     2178.873   0.100E-11
     TRS4 it   4 1.00000000   0.896E+01       0.013     2209.036   0.100E-11
     TRS4 it   5 1.00000000   0.369E+01       0.013     2199.761   0.100E-11
     TRS4 it   6 1.00000000   0.921E+00       0.013     2191.458   0.100E-11
     TRS4 it   7 1.00000000   0.105E+00       0.013     2194.561   0.100E-11
     TRS4 it   8 1.00000000   0.198E-02       0.013     2191.907   0.100E-11
     TRS4 it   9 1.00000000   0.907E-06       0.013     2219.677   0.100E-11
[...]
     TRS4 it   4 1.00000000   0.931E+01       0.013     2167.741   0.100E-11
     TRS4 it   5 1.00000000   0.419E+01       0.013     2177.066   0.100E-11
     TRS4 it   6 1.00000000   0.129E+01       0.013     2179.846   0.100E-11
     TRS4 it   7 1.00000000   0.224E+00       0.013     2198.489   0.100E-11
     TRS4 it   8 1.00000000   0.100E-01       0.013     2185.791   0.100E-11
     TRS4 it   9 1.00000000   0.265E-04       0.013     2212.079   0.100E-11
     TRS4 it  10 1.00000000   0.390E-09       0.013     2173.474   0.100E-11
     TRS4 it  11 1.00000000   0.178E-13       0.013     2209.276   0.100E-11
     Final TRS4 iteration   11 1.00000000   0.178E-13
     Chemical potential (mu):       0.02612
 
 PAO| energy:  -191.15392021128608      penalty:   1.7049935067534426E-008
 PAO| Writing restart file.
     Est. extremal eigenvalues     -0.83729     2.56920  converged:  T
     TRS4 it   1 1.00000000   0.288E+02       0.007     2143.505   0.100E-11
     TRS4 it   2 1.00000000   0.236E+02       0.013     2194.119   0.100E-11
     TRS4 it   3 1.00000000   0.156E+02       0.013     2223.150   0.100E-11
     TRS4 it   4 1.00000000   0.931E+01       0.013     2192.059   0.100E-11
     TRS4 it   5 1.00000000   0.419E+01       0.013     2206.885   0.100E-11
     TRS4 it   6 1.00000000   0.129E+01       0.013     2179.536   0.100E-11
     TRS4 it   7 1.00000000   0.224E+00       0.013     2193.343   0.100E-11
     TRS4 it   8 1.00000000   0.100E-01       0.013     2196.205   0.100E-11
     TRS4 it   9 1.00000000   0.265E-04       0.013     2183.886   0.100E-11
     TRS4 it  10 1.00000000   0.390E-09       0.013     2180.726   0.100E-11
     TRS4 it  11 1.00000000   0.178E-13       0.013     2202.700   0.100E-11
     Final TRS4 iteration   11 1.00000000   0.178E-13
     Chemical potential (mu):       0.02612

 SCF     1     -1103.050130088     -1103.050130088    1.764845

*********************************************************
 Using MIXING_FRACTION=0.450 to mix KS matrix:  iscf=  2
 KS_nw=0.450*KS + 0.550*KS_old
*********************************************************
     Est. extremal eigenvalues     -0.83729     2.56920  converged:  T
     TRS4 it   1 1.00000000   0.288E+02       0.007     2113.785   0.100E-11
     TRS4 it   2 1.00000000   0.236E+02       0.013     2218.723   0.100E-11
     TRS4 it   3 1.00000000   0.156E+02       0.013     2186.073   0.100E-11
     TRS4 it   4 1.00000000   0.931E+01       0.013     2198.516   0.100E-11
     TRS4 it   5 1.00000000   0.419E+01       0.013     2188.142   0.100E-11
     TRS4 it   6 1.00000000   0.129E+01       0.013     2192.067   0.100E-11
     TRS4 it   7 1.00000000   0.224E+00       0.013     2197.233   0.100E-11
     TRS4 it   8 1.00000000   0.100E-01       0.013     2196.346   0.100E-11
     TRS4 it   9 1.00000000   0.265E-04       0.013     2158.335   0.100E-11
     TRS4 it  10 1.00000000   0.390E-09       0.013     2180.234   0.100E-11
     TRS4 it  11 1.00000000   0.355E-14       0.013     2196.086   0.100E-11
     Final TRS4 iteration   11 1.00000000   0.355E-14
     Chemical potential (mu):       0.02612

 SCF     2     -1103.050130088        -0.000000000    1.772103


 SCF run converged in     2 steps.

 PAO| Storing density matrix for ASPC guess in slot:           1

 ENERGY| Total FORCE_EVAL ( QS ) energy [a.u.]:            -1103.050130088186506

 -------------------------------------------------------------------------------
 -                                                                             -
 -                                DBCSR STATISTICS                             -
 -                                                                             -
 -------------------------------------------------------------------------------
 COUNTER                                    TOTAL       BLAS       SMM       ACC
 flops     5 x     5 x     4             26419200       0.0%    100.0%      0.0%     
 flops    13 x     5 x     4             34078720       0.0%    100.0%      0.0%     
 flops     5 x    13 x     4             34078720       0.0%    100.0%      0.0%     
 flops    13 x    13 x     4             44994560       0.0%    100.0%      0.0%     
 flops     4 x     4 x     5           6558842880       0.0%    100.0%      0.0%     
 flops     5 x     4 x     5           8080588800       0.0%    100.0%      0.0%     
 flops     4 x     4 x    13           8526495744       0.0%    100.0%      0.0%     
 flops    13 x     4 x     5          10504765440       0.0%    100.0%      0.0%     
 flops     5 x     4 x    13          10504765440       0.0%    100.0%      0.0%     
 flops    13 x     4 x    13          13656195072       0.0%    100.0%      0.0%     
 flops     5 x     4 x     4         406273673600       0.0%    100.0%      0.0%     
 flops    13 x     4 x     4         537575270336       0.0%    100.0%      0.0%     
 flops     4 x     4 x     4       29894725065472       0.0%    100.0%      0.0%     
 flops inhomo. stacks                           0       0.0%      0.0%      0.0%
 flops total                        30.896545E+12       0.0%    100.0%      0.0%
 flops max/rank                    974.904496E+09       0.0%    100.0%      0.0%
 matmuls inhomo. stacks                         0       0.0%      0.0%      0.0%
 matmuls total                       237536690504       0.0%    100.0%      0.0%
 number of processed stacks             242682842       0.0%    100.0%      0.0%
 average stack size                                     0.0     978.8       0.0
 marketing flops                    53.835486E+12
 -------------------------------------------------------------------------------
 # multiplications                          50510
 max memory usage/rank             620.183552E+06
 # max total images/rank                        2
 # max 3D layers                                1
 # MPI messages exchanged                21012160
 MPI messages size (bytes):
  total size                         2.481471E+12
  min size                           0.000000E+00
  max size                         541.696000E+03
  average size                     118.096891E+03
 MPI breakdown and total messages size (bytes):
             size <=      128              899469                     7296
       128 < size <=     8192              337506               1356132736
      8192 < size <=    32768              105977               2099649664
     32768 < size <=   131072             8966566             659811739008
    131072 < size <=  4194304            10702642            1818612144640
   4194304 < size <= 16777216                   0                        0
  16777216 < size                               0                        0
 -------------------------------------------------------------------------------

 *** WARNING in dbcsr_mm.F:301 :: Using a non-square number of MPI ranks ***
 *** might lead to poor performance. Used ranks: 32 Suggested: 36 64     ***

 -------------------------------------------------------------------------------
 -                                                                             -
 -                      DBCSR MESSAGE PASSING PERFORMANCE                      -
 -                                                                             -
 -------------------------------------------------------------------------------
 ROUTINE             CALLS      AVE VOLUME [Bytes]
 MP_Bcast               14                     12.
 MP_Allreduce       303965                     37.
 MP_Alltoall        130428                  14596.
 MP_ISend          1690264                  54958.
 MP_IRecv          1653292                  56252.
 -------------------------------------------------------------------------------

 -------------------------------------------------------------------------------
 -                                                                             -
 -                                DBM STATISTICS                               -
 -                                                                             -
 -------------------------------------------------------------------------------
    M  x    N  x    K                                          COUNT     PERCENT
 -------------------------------------------------------------------------------

 -------------------------------------------------------------------------------
 -                                                                             -
 -                                GRID STATISTICS                              -
 -                                                                             -
 -------------------------------------------------------------------------------
 LP    KERNEL             BACKEND                              COUNT     PERCENT
 2     collocate ortho    CPU                               13109888      28.83%
 2     integrate ortho    CPU                               13109888      28.83%
 3     collocate ortho    CPU                                8428944      18.53%
 3     integrate ortho    CPU                                8428944      18.53%
 4     collocate ortho    CPU                                1197024       2.63%
 4     integrate ortho    CPU                                1197024       2.63%
 0     collocate general  CPU                                   6144       0.01%
 -------------------------------------------------------------------------------

 MEMORY| Estimated peak process memory [MiB]                                 592

 -------------------------------------------------------------------------------
 -                                                                             -
 -                         MESSAGE PASSING PERFORMANCE                         -
 -                                                                             -
 -------------------------------------------------------------------------------

 ROUTINE             CALLS      AVE VOLUME [Bytes]
 MP_Group                5
 MP_Bcast           304855                   2162.
 MP_Allreduce       758428                    514.
 MP_Sync                 5
 MP_Alltoall           419                 423259.
 MP_SendRecv          1488                  18832.
 MP_ISendRecv         1488                  18832.
 MP_Wait              4218
 MP_ISend             2470                 108139.
 MP_IRecv             2470                 108153.
 -------------------------------------------------------------------------------


 -------------------------------------------------------------------------------
 -                                                                             -
 -                           R E F E R E N C E S                               -
 -                                                                             -
 -------------------------------------------------------------------------------
 
 CP2K version 2024.3 (Development Version), the CP2K developers group (2024).
 CP2K is freely available from https://www.cp2k.org/ .
 
 T. D. Kuehne, M. Iannuzzi, M. Del Ben, V. V. Rybkin, P. Seewald, F. Stein, T. 
 Laino, R. Z. Khaliullin, O. Schuett, F. Schiffmann, D. Golze, J. Wilhelm, S. 
 Chulkov, M. H. Bani-Hashemian, V. Weber, U. Borstnik, M. Taillefumier, A. S. 
 Jakobovits, A. Lazzaro, H. Pabst, T. Mueller, R. Schade, M. Guidon, S. 
 Andermatt, N. Holmberg, G. K. Schenter, A. Hehn, A. Bussy, F. Belleflamme, G. 
 Tabacchi, A. Gloess, M. Lass, I. Bethune, C. J. Mundy, C. Plessl, M. Watkins, 
 J. VandeVondele, M. Krack, J. Hutter.
 J. Chem. Phys. 152, 194103 (2020).
 CP2K: An electronic structure and molecular dynamics software package - 
 Quickstep: Efficient and accurate electronic structure calculations.
 https://doi.org/10.1063/5.0007045

 O. Schuett, J. VandeVondele.
 J. Chem. Theory Comput. 14, 4168-4175 (2018).
 Machine Learning Adaptive Basis Sets for Efficient Large Scale Density 
 Functional Theory Simulation.
 https://doi.org/10.1021/acs.jctc.8b00378

 O. Schuett, P. Messmer, J. Hutter, J. VandeVondele.
 Electronic Structure Calculations on Graphics Processing Units, 173-190 (2016).
 GPU-Accelerated Sparse Matrix-Matrix Multiplication for Linear Scaling Density 
 Functional Theory.
 https://doi.org/10.1002/9781118670712.ch8

 A. Heinecke, G. Henry, M. Hutchinson, H. Pabst.
 Proceedings of Intl. Supercomputing Conference, 981-991 (2016).
 LIBXSMM: Accelerating Small Matrix Multiplications by Runtime Code Generation.
 https://doi.org/10.1109/SC.2016.83

 J. Hutter, M. Iannuzzi, F. Schiffmann, J. VandeVondele.
 WIREs Comput Mol Sci. 4, 15-25 (2014).
 CP2K: atomistic simulations of condensed matter systems.
 https://doi.org/10.1002/wcms.1159

 U. Borstnik, J. VandeVondele, V. Weber, J. Hutter.
 Parallel Comput. 40, 47-58 (2014).
 Sparse matrix multiplication: The distributed block-compressed sparse row 
 library.
 https://doi.org/10.1016/j.parco.2014.03.012

 A. Marek, V. Blum, R. Johanni, V. Havu, B. Lang, T. Auckenthaler, A. Heinecke, 
 H. Bungartz, H. Lederer.
 J. Phys. Condens. Matter 26, 213201 (2014).
 The ELPA library: scalable parallel eigenvalue solutions for electronic 
 structure theory and computational science.
 https://doi.org/10.1088/0953-8984/26/21/213201

 J. VandeVondele, U. Borstnik, J. Hutter.
 J. Chem. Theory Comput. 8, 3565-3573 (2012).
 Linear Scaling Self-Consistent Field Calculations with Millions of Atoms in the 
 Condensed Phase.
 https://doi.org/10.1021/ct200897x

 J. VandeVondele, J. Hutter.
 J. Chem. Phys. 127, 114105 (2007).
 Gaussian basis sets for accurate calculations on molecular systems in gas and 
 condensed phases.
 https://doi.org/10.1063/1.2770708

 J. VandeVondele, M. Krack, F. Mohamed, M. Parrinello, T. Chassaing, J. Hutter.
 Comput. Phys. Commun. 167, 103-128 (2005).
 QUICKSTEP: Fast and accurate density functional calculations using a mixed 
 Gaussian and plane waves approach.
 https://doi.org/10.1016/j.cpc.2004.12.014

 M. Krack.
 Theor. Chem. Acc. 114, 145-152 (2005).
 Pseudopotentials for H to Kr optimized for gradient-corrected 
 exchange-correlation functionals.
 https://doi.org/10.1007/s00214-005-0655-y

 M. Frigo, S. G. Johnson.
 Proc. IEEE 93, 216-231 (2005).
 The design and implementation of FFTW3.
 https://doi.org/10.1109/JPROC.2004.840301

 A. M. N. Niklasson, C. J. Tymczak, M. Challacombe.
 J. Chem. Phys. 118, 8611-8620 (2003).
 Trace resetting density matrix purification in O(N) self-consistent-field 
 theory.
 https://doi.org/10.1063/1.1559913

 C. Hartwigsen, S. Goedecker, J. Hutter.
 Phys. Rev. B 58, 3641-3662 (1998).
 Relativistic separable dual-space Gaussian pseudopotentials from H to Rn.
 https://doi.org/10.1103/PhysRevB.58.3641

 G. Lippert, J. Hutter, M. Parrinello.
 Mol. Phys. 92, 477-487 (1997).
 A hybrid Gaussian and plane wave density functional scheme.
 https://doi.org/10.1080/002689797170220

 S. Goedecker, M. Teter, J. Hutter.
 Phys. Rev. B 54, 1703-1710 (1996).
 Separable dual-space Gaussian pseudopotentials.
 https://doi.org/10.1103/PhysRevB.54.1703

 J. P. Perdew, K. Burke, M. Ernzerhof.
 Phys. Rev. Lett. 77, 3865-3868 (1996).
 Generalized gradient approximation made simple.
 https://doi.org/10.1103/PhysRevLett.77.3865


 -------------------------------------------------------------------------------
 -                                                                             -
 -                                T I M I N G                                  -
 -                                                                             -
 -------------------------------------------------------------------------------
 SUBROUTINE                       CALLS  ASD         SELF TIME        TOTAL TIME
                                MAXIMUM       AVERAGE  MAXIMUM  AVERAGE  MAXIMUM
 CP2K                                 1  1.0    0.012    0.014  438.076  438.076
 qs_energies                          1  2.0    0.000    0.000  437.931  437.931
 ls_scf                               1  3.0    0.000    0.000  436.938  436.939
 pao_update                           7  4.0    0.006    0.025  406.976  406.977
 pao_calc_energy                    823  5.0    0.003    0.016  363.612  363.613
 dbcsr_multiply_generic           50510  8.4    1.400    1.482  349.966  350.234
 multiply_cannon                  50510  9.4    2.618    2.962  283.454  288.075
 multiply_cannon_loop             50510 10.4    1.901    2.145  272.765  276.452
 ls_scf_init_matrix_S               830  7.0    0.008    0.009  204.088  204.147
 pao_rebuild_S                      823  6.0    0.002    0.003  202.345  202.403
 matrix_sqrt_Newton_Schulz          830  8.0    0.169    0.285  188.609  188.677
 multiply_cannon_multrec         404080 11.4  177.820  179.583  178.646  180.384
 pao_dm_trs4                        823  6.0    0.006    0.007  160.885  160.910
 density_matrix_trs4                838  7.0    0.216    0.360  154.976  155.020
 mp_waitall_1                   3234388 12.6   90.757   99.656   90.757   99.656
 multiply_cannon_metrocomm3      404080 11.4    0.713    0.768   72.972   77.437
 make_m2s                        101020  9.4    0.549    0.666   51.495   52.359
 make_images                     101020 10.4    7.380    7.595   50.131   51.061
 arnoldi_extremal                  1668  8.5    0.013    0.015   49.655   49.723
 arnoldi_normal_ev                 1668  9.5    0.033    0.054   49.639   49.706
 build_subspace                    4901 10.6    0.303    0.329   43.815   43.849
 pao_calc_AB                       1090  5.8    0.002    0.002   42.908   42.911
 pao_calc_AB_equi                  1090  6.8    0.041    0.102   42.907   42.909
 pao_calc_grad_lnv_wrt_AB           266  7.0    0.020    0.024   42.492   42.527
 dbcsr_matrix_vector_mult        150366 11.6    0.649    0.974   41.535   41.860
 dbcsr_matrix_vector_mult_local  150366 12.6   35.422   35.924   35.591   36.108
 ls_scf_main                          7  4.0    0.000    0.001   26.520   26.521
 make_images_data                101020 11.4    0.875    1.044   22.035   24.299
 ls_scf_dm_to_ks                     15  5.0    0.000    0.000   23.535   23.537
 hybrid_alltoall_any             102675 12.3    0.920    1.948   17.254   21.510
 matrix_qs_to_ls                   1668  7.5    0.017    0.022   17.419   17.494
 qs_ks_update_qs_env                 16  6.0    0.000    0.000   14.055   14.057
 rebuild_ks_matrix                   16  7.0    0.000    0.000   14.043   14.046
 qs_ks_build_kohn_sham_matrix        16  8.0    0.003    0.003   14.043   14.046
 calculate_norms                 754272 11.4   11.705   12.897   11.705   12.897
 make_images_pack                101020 11.4   11.141   11.455   11.278   11.607
 mp_sum_l                        206399  9.5    7.424   11.317    7.424   11.317
 qs_rho_update_rho_low               16  6.0    0.000    0.000   10.943   10.945
 calculate_rho_elec                  16  7.0    0.005    0.006   10.943   10.945
 sum_up_and_integrate                16  9.0    0.000    0.001   10.633   10.635
 integrate_v_rspace                  16 10.0    0.000    0.001   10.618   10.620
 grid_collocate_task_list            16  8.0    9.701    9.853    9.701    9.853
 grid_integrate_task_list            16 11.0    9.272    9.535    9.272    9.535
 -------------------------------------------------------------------------------

 The number of warnings for this run is : 1
 
 -------------------------------------------------------------------------------
  **** **** ******  **  PROGRAM ENDED AT                 2024-09-24 03:07:32.376
 ***** ** ***  *** **   PROGRAM RAN ON                                    moritz
 **    ****   ******    PROGRAM RAN BY                                       ole
 ***** **    ** ** **   PROGRAM PROCESS ID                                167396
  **** **  *******  **  PROGRAM STOPPED IN /home/ole/git/pao_ml_equivar/64H2O_MD
                                           /Frame3800
