     192
 i =     1400, time =     2100.000, E =     -1100.0584106991
  O         5.0139066904       -5.2029832376        4.2735280381
  H         5.9682585909       -5.5623925275        4.2126232832
  H         5.0005985896       -4.7817181530        5.1305906072
  O        -3.9928311461        2.2841615907        5.1730814789
  H        -3.6545545322        1.6881784625        4.5065239741
  H        -3.7156532030        1.9388467219        6.0618933039
  O         3.9080864614        2.2753826370        4.0709504566
  H         3.3446948386        3.0185966558        4.4446032930
  H         4.4022849109        2.7740601161        3.3947090954
  O        -2.5727181419       -0.2250148454       -2.7133246124
  H        -2.5101279273        0.4690518215       -2.0566330124
  H        -1.6248533752       -0.4161222703       -2.9021396529
  O        -3.7624658753        4.9559316075        5.5841358644
  H        -3.9494842456        4.0072380316        5.6155418548
  H        -4.1244170292        5.3351162494        4.7803390295
  O         8.9125785408        0.5822439931        2.9436624867
  H         8.2714911637        0.0286883611        3.4979346155
  H         8.4773620383        1.0003715483        2.1271513085
  O         4.3260297881       -5.4730587693       -0.6952520237
  H         4.0026802135       -4.8460735402       -0.0219974568
  H         4.5136822975       -4.9367729220       -1.4609629682
  O        -1.0893902874       -2.9311593114       -1.1512761391
  H        -1.9506466499       -3.0134157566       -1.6443560979
  H        -0.8397095155       -1.9445815876       -1.1383394009
  O         3.5303104038       -2.8410112452        3.7052593970
  H         3.8057166768       -3.7855816796        3.6739402818
  H         3.3139799582       -2.6409916706        2.7661349233
  O         1.9834380639        3.5898708616        5.2120625152
  H         1.1879500332        3.0581031025        5.4646065300
  H         2.1618528703        4.0276258287        6.0720220755
  O         4.8235575093       -3.6733086471       -2.7024861248
  H         4.8028107615       -3.6200693062       -3.6766056006
  H         5.5240642881       -3.0853133789       -2.3925804667
  O         3.3078026441       -3.2226895109        0.6709071167
  H         2.3704097328       -3.4604513981        0.6095266911
  H         3.4369910846       -2.6501789269       -0.1681706480
  O         1.7892996105       -4.9285055364       -4.8795801972
  H         1.9569239139       -5.8506639275       -4.9483816636
  H         1.2464798426       -4.7919348966       -5.7179991716
  O         4.4315134379        5.1750827556       -3.6607942344
  H         4.9444744546        4.3887929504       -3.4573051109
  H         4.0893428267        5.3769245111       -2.7440442641
  O         1.2145242756       -1.2347979909        4.5794542607
  H         1.9417473449       -1.9057755840        4.4196174571
  H         1.3592284652       -0.6864969838        3.7513470975
  O        -0.3496725747        2.4434734060        5.7966296721
  H         0.0767839918        1.7413769525        6.3360674618
  H        -0.5670646349        2.0313273566        4.9249168705
  O        -0.6903821127       -2.5631501477        3.1935639096
  H        -0.0345393383       -2.9576768392        2.5499947171
  H        -0.2012436720       -2.1195470166        3.9165792543
  O        -1.9236791054        3.7274818538        3.1365203778
  H        -1.4714537427        2.9675046367        2.7938579142
  H        -2.5563520613        3.3851616437        3.7970234185
  O         1.1599749761        0.3736722596       -5.6127278262
  H         1.4112006723       -0.1579518798       -6.3337475994
  H         1.9588443308        0.5373609257       -5.0300623405
  O        -0.3135646914       -0.1140285451       -0.4883148742
  H        -0.8819568709       -0.4854026143        0.2364326123
  H         0.5055835132        0.0842247330       -0.1128247127
  O        -4.3140780196        3.9110578685       -2.4236509229
  H        -4.2517044735        4.8621971797       -2.7538711034
  H        -3.5721202690        3.7959412650       -1.8515150219
  O         4.9941394062        4.2322824904        1.2072654699
  H         4.4723714894        4.0986647662        0.4517002810
  H         4.4730005537        4.7304920557        1.8484381389
  O         5.8119359055        0.4515231975       -3.7781307901
  H         6.1238381784       -0.1920881968       -4.5653073209
  H         5.9884546443       -0.1865232179       -3.0435730848
  O        -4.4020059811        6.5573414829       -2.9306454796
  H        -4.9099825188        6.7741168976       -2.0342850409
  H        -4.9806194618        6.7732386650       -3.6628741715
  O         6.2452124422       -0.7326056320        0.8585269468
  H         6.4362659744       -1.2463715214        1.6619872175
  H         5.3416493038       -0.4087218376        0.8530571292
  O         3.8603419138        0.3699468237        0.1580348943
  H         3.8481657495        1.3174367291       -0.0749349068
  H         3.4016986484       -0.1182063821       -0.6082385859
  O        -5.1094297575       -5.5736824727       -0.3559945683
  H        -4.8315897634       -6.5394903253       -0.1688538079
  H        -6.0638692936       -5.6266516711       -0.1124963170
  O        -4.7833992175        4.5307189699        0.9326308067
  H        -5.7606375879        4.4140147052        1.0475759242
  H        -4.6151914324        3.5616023788        0.8700746742
  O         6.1051974512        0.7649674098       -7.5678506008
  H         6.7944643539        1.3405243433       -7.2220307658
  H         5.3093084942        1.3171288727       -7.5763098085
  O         3.1130928299       -1.6315764984       -1.7083309180
  H         3.9936710394       -1.8726330118       -2.0285609136
  H         2.4384755119       -2.1198618469       -2.2522327314
  O         4.1321943092        2.8956254676       -0.8694075592
  H         4.7482793263        2.8214071540       -1.6467814362
  H         3.2546412617        3.1349496123       -1.3071185126
  O        -1.7603357127       -1.0008294651        1.4716780155
  H        -1.3775645052       -1.6738881149        2.0794363469
  H        -2.4832226321       -0.5412217934        1.9070189006
  O         1.6558203041       -6.3527056455        1.4406057538
  H         1.7308267422       -6.7419333303        0.5251818648
  H         2.3696667289       -6.8554207875        1.9420050334
  O         1.3604649835       -3.2924951170       -2.7360852103
  H         0.6879607904       -3.7340604649       -2.1821574932
  H         1.5669537547       -3.9642611605       -3.4456113018
  O        -4.5947020217        1.7557087557        0.6136862665
  H        -3.7573999164        1.7890183739        0.0911352968
  H        -5.0862006095        0.9603272441        0.3153489802
  O         4.3542478269       -3.9515640860       -5.6448131840
  H         3.4267224570       -4.1779437739       -5.3775023064
  H         4.3632122880       -2.9914576191       -5.7067110261
  O        -1.2608881417        3.6920005723       -2.5478746850
  H        -1.6288675296        3.9473083107       -3.4287274782
  H        -0.6857013993        4.4466631018       -2.2519468812
  O        -4.8675045789       -6.2890151092        3.3086915327
  H        -4.1907684413       -5.5796719629        3.3339044150
  H        -4.5338163860       -6.9176300087        2.6495614020
  O         3.6377434949        5.2359090908        3.3399285833
  H         4.2098156430        5.9986356991        3.8573751531
  H         3.1524160766        4.8060594886        4.0661449064
  O        -3.6480956110        1.7223268749       -4.6392590654
  H        -3.4092273659        0.9889186688       -4.1018488028
  H        -3.6680114438        2.4623606541       -4.0351673774
  O         2.1372903144        0.6609809809        2.3560964034
  H         2.7648153083        0.3709320819        1.5826007068
  H         2.8494424375        1.0337213687        2.9187418953
  O        -5.5795687382       -2.1301481623        3.2178499862
  H        -6.3425133510       -2.6900520310        3.4920951424
  H        -4.8645879725       -2.7016427349        3.4558728725
  O        -0.4546767239        1.1485341944        3.0611091359
  H         0.4762134998        1.1110365705        2.8642775572
  H        -0.9398099322        0.5904131617        2.4334913397
  O        -1.8071378613        5.8007158327        0.9241127381
  H        -2.3989725073        5.1683468897        1.4331791175
  H        -2.1896504150        6.6515685317        1.0471511904
  O        -0.3317008633       -1.2420645801       -3.9969398120
  H         0.1700454191       -1.8880552703       -3.4745869061
  H         0.1111590850       -0.4508541747       -4.4049828609
  O        -6.5694463079        2.8616375652       -2.9074700542
  H        -5.6792870088        3.1416907224       -2.7642653037
  H        -6.5088911765        1.9924640590       -3.4673625795
  O         6.2677695552       -1.7595423968       -1.7749514255
  H         7.2316955912       -2.0685692883       -1.9755190324
  H         6.2991836485       -1.3576434336       -0.8609204477
  O        -1.9387012214        1.9027314193       -0.6987016089
  H        -1.7070829374        2.5230761567       -1.4169560562
  H        -1.1848422321        1.3379802912       -0.4528916517
  O        -0.0316754954        6.1106141592       -1.4321575397
  H        -0.5915342042        6.6275096636       -2.0710827542
  H        -0.6717124866        5.9289870068       -0.7106238786
  O         5.8729241678       -1.2423448308        6.6560793648
  H         6.7288631791       -1.7390259034        6.7743589734
  H         5.9593519358       -0.5426674671        5.9189830483
  O        -1.6271964184       -5.4357727035       -3.4378615389
  H        -1.5920976623       -6.0910446668       -4.1483837047
  H        -2.6128078151       -5.4751718042       -3.2933477193
  O        -3.6939967400       -2.8023275660       -2.4858906450
  H        -3.9371586539       -2.9973734439       -3.4099602844
  H        -3.3751361008       -1.8489687445       -2.6883900494
  O         2.4161456077        5.2117258019       -1.0827640920
  H         1.6302713570        5.6741817829       -1.4385367231
  H         3.0855796389        5.9415079296       -0.9640144961
  O        -4.5520381313       -3.0902946033       -5.4182513601
  H        -3.6147708480       -3.1131385664       -5.6321114971
  H        -4.9839938365       -3.9449721777       -5.5969800590
  O         0.1022211487        5.9149677921        3.6708812550
  H        -0.4970838087        5.1604508804        3.6155773067
  H         0.5784050211        6.0075827328        2.8382836290
  O        -1.8135992830       -3.2605166403       -5.2048726454
  H        -1.7048377085       -3.9516382275       -4.5633906864
  H        -1.3806016720       -2.4813056259       -4.8019437399
  O        -3.2579493454       -3.7377372954        3.4377353695
  H        -2.3149717887       -3.8705885660        3.6846691486
  H        -3.1776783126       -3.8042675960        2.4593863035
  O         1.9020737064        4.3849998204       -4.5302006342
  H         2.8157868696        4.5020342179       -4.3054596311
  H         1.7497930578        3.4892026923       -4.2617344507
  O         3.0863486604        0.6512498608       -3.5573547688
  H         2.9239485850       -0.1506976233       -3.0982309307
  H         4.0623475152        0.6512044498       -3.7249935438
  O        -1.8266340052        4.8516664598        7.3935532480
  H        -1.1715806527        4.2475382434        6.9868233971
  H        -2.4035659677        4.9775877838        6.6029682487
  O         0.6830675925       -3.9173397136        1.0945740671
  H         1.0327028847       -4.8499205889        1.1636188278
  H        -0.0402891569       -3.9476117583        0.4334570562
  O         6.7896330512        6.6502726225        6.7193289878
  H         5.8935572980        6.3268937608        6.9106426786
  H         7.2242824178        5.7973388127        6.4843936628
  O         0.3675732185       -4.6860174967        5.6257212332
  H         0.2217662598       -5.3020103303        4.8900397868
  H        -0.4022287883       -4.1786745707        5.8774352490
  O        -2.9522005802       -4.1926095296        0.6569580843
  H        -3.7646499612       -4.6082573071        0.3317547525
  H        -2.8599356304       -3.3705280638        0.2949164444
