 DBCSR| CPU Multiplication driver                                           XSMM (U)
 DBCSR| Multrec recursion limit                                              512 (U)
 DBCSR| Multiplication stack size                                           1000 (D)
 DBCSR| Maximum elements for images                                    UNLIMITED (U)
 DBCSR| Multiplicative factor virtual images                                   1 (U)
 DBCSR| Use multiplication densification                                       T (D)
 DBCSR| Multiplication size stacks                                             3 (U)
 DBCSR| Use memory pool for CPU allocation                                     F (U)
 DBCSR| OMP: Current number of threads                                         1
 DBCSR| OMP: Max number of threads                                             1
 DBCSR| Split modifier for TAS multiplication algorithm                  1.0E+00 (U)


  **** **** ******  **  PROGRAM STARTED AT               2023-02-01 10:43:54.933
 ***** ** ***  *** **   PROGRAM STARTED ON                                moritz
 **    ****   ******    PROGRAM STARTED BY                                   ole
 ***** **    ** ** **   PROGRAM PROCESS ID                                148501
  **** **  *******  **  PROGRAM STARTED IN /home/ole/git/pao_ml_equivar/2H2O_rot
                                           ations/rand_06

 CP2K| version string:                 CP2K version 2023.1 (Development Version)
 CP2K| source code revision number:                                  git:03b4147
 CP2K| cp2kflags: omp libint fftw3 libxc quip xsmm spglib libvori libbqb libtorc
 CP2K|            h
 CP2K| is freely available from                            https://www.cp2k.org/
 CP2K| Program compiled at                           Mi 01 Feb 2023 10:36:52 CET
 CP2K| Program compiled on                                                moritz
 CP2K| Program compiled for                                                local
 CP2K| Data directory path                               /home/ole/git/cp2k/data
 CP2K| Input file name                                            2H2O_pao44.inp

 GLOBAL| Force Environment number                                              1
 GLOBAL| Basis set file name                                        BASIS_MOLOPT
 GLOBAL| Potential file name                                      GTH_POTENTIALS
 GLOBAL| MM Potential file name                                     MM_POTENTIAL
 GLOBAL| Coordinate file name                                         coords.xyz
 GLOBAL| Method name                                                        CP2K
 GLOBAL| Project name                                                 2H2O_pao44
 GLOBAL| Run type                                                         ENERGY
 GLOBAL| FFT library                                                       FFTW3
 GLOBAL| Diagonalization library                                       ScaLAPACK
 GLOBAL| DGEMM library                                                      BLAS
 GLOBAL| Orthonormality check for eigenvectors                          DISABLED
 GLOBAL| Matrix multiplication library                                 ScaLAPACK
 GLOBAL| All-to-all communication in single precision                          F
 GLOBAL| FFTs using library dependent lengths                                  F
 GLOBAL| Grid backend                                                       AUTO
 GLOBAL| Global print level                                                  LOW
 GLOBAL| MPI I/O enabled                                                       T
 GLOBAL| Total number of message passing processes                             1
 GLOBAL| Number of threads for this process                                    1
 GLOBAL| This output is from process                                           0
 GLOBAL| Stack size for threads created by OpenMP (OMP_STACKSIZE)        default
 GLOBAL| CPU model name           AMD Ryzen Threadripper 3970X 32-Core Processor
 GLOBAL| CPUID                                                              1002
 GLOBAL| Compiled for CPUID                                                    0

 *** HINT in environment.F:884 :: The compiler target flags (generic) used ***
 *** to build this binary cannot exploit all extensions of this CPU model  ***
 *** (x86_avx2). Consider compiler target flags as part of FCFLAGS and     ***
 *** CFLAGS (ARCH file).                                                   ***


 MEMORY| system memory details [Kb]
 MEMORY|                        rank 0           min           max       average
 MEMORY| MemTotal            131773860     131773860     131773860     131773860
 MEMORY| MemFree             115383112     115383112     115383112     115383112
 MEMORY| Buffers                301492        301492        301492        301492
 MEMORY| Cached                7000768       7000768       7000768       7000768
 MEMORY| Slab                   776600        776600        776600        776600
 MEMORY| SReclaimable           330700        330700        330700        330700
 MEMORY| MemLikelyFree       123016072     123016072     123016072     123016072


 GENERATE|  Preliminary Number of Bonds generated:                             0
 GENERATE|  Achieved consistency in connectivity generation.

 *******************************************************************************
 *******************************************************************************
 **                                                                           **
 **     #####                         ##              ##                      **
 **    ##   ##            ##          ##              ##                      **
 **   ##     ##                       ##            ######                    **
 **   ##     ##  ##   ##  ##   #####  ##  ##   ####   ##    #####    #####    **
 **   ##     ##  ##   ##  ##  ##      ## ##   ##      ##   ##   ##  ##   ##   **
 **   ##  ## ##  ##   ##  ##  ##      ####     ###    ##   ######   ######    **
 **    ##  ###   ##   ##  ##  ##      ## ##      ##   ##   ##       ##        **
 **     #######   #####   ##   #####  ##  ##  ####    ##    #####   ##        **
 **           ##                                                    ##        **
 **                                                                           **
 **                                                ... make the atoms dance   **
 **                                                                           **
 **            Copyright (C) by CP2K developers group (2000-2023)             **
 **                      J. Chem. Phys. 152, 194103 (2020)                    **
 **                                                                           **
 *******************************************************************************


 TOTAL NUMBERS AND MAXIMUM NUMBERS

  Total number of            - Atomic kinds:                                   2
                             - Atoms:                                          6
                             - Shell sets:                                     6
                             - Shells:                                        22
                             - Primitive Cartesian functions:                 42
                             - Cartesian basis functions:                     48
                             - Spherical basis functions:                     46

  Maximum angular momentum of- Orbital basis functions:                        2
                             - Local part of the GTH pseudopotential:          2
                             - Non-local part of the GTH pseudopotential:      0

 ------------------------------ Linear scaling SCF -----------------------------
 eps_scf:                                                              0.100E-07
 eps_filter:                                                           0.100E-07
 mixing_fraction:                                                      0.450E+00
 max_scf:                                                                     25
 fixed chemical potential (mu)                                                 F
 has unit metric:                                                              F
 Computing inv(S):                                                             T
 Computing sqrt(S):                                                            T
 Computing S preconditioner                                                    F
 S sqrt method:                                                     NEWTONSCHULZ
 S sqrt order:                                                                 3
 Extrapolation order:                                                          1
 Use single precision matrices                                                 F
 S preconditioner type                                                      NONE
 Polarized Atomic Orbitals (PAO)                                               T
 Purification method                                   Trace resetting 4th order
 Cluster type                                                             ATOMIC
 Computing Chebyshev                                                       FALSE
 Using PAO                                                                     T
 -------------------------------------------------------------------------------

 
 PAO|                                  EPS_PAO                           0.1E-04
 PAO|                                  MIXING                            0.5E+00
 PAO|                                  MAX_PAO                              1000
 PAO|                                  MAX_CYCLES                           1000
 PAO|                                  PARAMETERIZATION              EQUIVARIANT
 PAO|                                  PRECONDITION                            F
 PAO|                                  REGULARIZATION                    0.0E+00
 PAO|                                  EPS_PGF                           0.1E-09
 PAO|                                  PENALTY_DISTANCE                  0.1E+00
 PAO|                                  PENALTY_STRENGTH                  0.5E-02
 PAO|                                  LINPOT_PRECONDITION_DELTA         0.0E+00
 PAO|                                  LINPOT_INITGUESS_DELT             0.0E+00
 PAO|                                  LINPOT_REGULARIZATION_DELTA       0.0E+00
 PAO|                                  LINPOT_REGULARIZATION_STRENGTH    0.0E+00
 PAO|                                  OPTIMIZER                              CG
 PAO|                                  CG_INIT_STEPS                           2
 PAO|                                  CG_RESET_LIMIT                    0.1E+00
 PAO|                                  CHECK_UNITARY_TOL                -0.1E+01
 PAO|                                  CHECK_GRADIENT_TOL               -0.1E+01
 PAO|                                  NUM_GRADIENT_ORDER                      2
 PAO|                                  NUM_GRADIENT_EPS                  0.1E-07
 PAO|                                  PRINT%RESTART%WRITE_CYCLES            100
 PAO|                                  RESTART_FILE 
 PAO|                                  PREOPT_DM_FILE 2H2O_ref_LS_DM_SPIN_1_RESTART.dm
 PAO|                                  MACHINE_LEARNING%METHOD       GAUSSIAN_PR
 PAO|                                  MACHINE_LEARNING%PRIOR               ZERO
 PAO|                                  MACHINE_LEARNING%DESCRIPTOR     POTENTIAL
 PAO|                                  MACHINE_LEARNING%TOLERANCE        0.1E-01
 PAO|                                  MACHINE_LEARNING%GP_NOISE_VAR     0.1E+00
 PAO|                                  MACHINE_LEARNING%GP_SCALE         0.5E-01
 

 Calculating atomic Fock matrix for atomic kind: O

 Electronic structure
    Total number of core electrons                                          2.00
    Total number of valence electrons                                       6.00
    Total number of electrons                                               8.00
    Multiplicity                                                   not specified
    S   [  2.00] 2.00
    P      4.00


 *******************************************************************************
                  Iteration          Convergence                     Energy [au]
 *******************************************************************************
                          1        0.708315                     -15.576645311500
                          2        0.608879                     -15.587933561584
                          3        0.102828E-01                 -15.656849565404
                          4        0.113889E-02                 -15.656866888140
                          5        0.434197E-03                 -15.656867072159
                          6        0.263771E-03                 -15.656867091904
                          7        0.478536E-06                 -15.656867103452

 Energy components [Hartree]           Total Energy ::          -15.656867103452
                                        Band Energy ::           -3.000198112285
                                     Kinetic Energy ::           11.759971203220
                                   Potential Energy ::          -27.416838306672
                                      Virial (-V/T) ::            2.331369510426
                                        Core Energy ::          -26.140716385623
                                          XC Energy ::           -3.154051012914
                                     Coulomb Energy ::           13.637900295084
                       Total Pseudopotential Energy ::          -37.935781716540
                       Local Pseudopotential Energy ::          -39.218907440693
                    Nonlocal Pseudopotential Energy ::            1.283125724153
                                        Confinement ::            0.350941276976

 Orbital energies  State     L     Occupation   Energy[a.u.]          Energy[eV]

                       1     0          2.000      -0.864471          -23.523463

                       1     1          4.000      -0.317814           -8.648154


 Total Electron Density at R=0:                                         0.000068

 Calculating atomic Fock matrix for atomic kind: H

 Electronic structure
    Total number of core electrons                                          0.00
    Total number of valence electrons                                       1.00
    Total number of electrons                                               1.00
    Multiplicity                                                   not specified
    S      1.00


 *******************************************************************************
                  Iteration          Convergence                     Energy [au]
 *******************************************************************************
                          1        0.437545E-02                  -0.424159432110
                          2        0.531356E-03                  -0.424178438213
                          3        0.259176E-06                  -0.424178722480

 Energy components [Hartree]           Total Energy ::           -0.424178722480
                                        Band Energy ::           -0.199015229016
                                     Kinetic Energy ::            0.464007633961
                                   Potential Energy ::           -0.888186356441
                                      Virial (-V/T) ::            1.914163240935
                                        Core Energy ::           -0.479160803564
                                          XC Energy ::           -0.244352904054
                                     Coulomb Energy ::            0.299334985138
                       Total Pseudopotential Energy ::           -0.962295316385
                       Local Pseudopotential Energy ::           -0.962295316385
                    Nonlocal Pseudopotential Energy ::            0.000000000000
                                        Confinement ::            0.191268788606

 Orbital energies  State     L     Occupation   Energy[a.u.]          Energy[eV]

                       1     0          1.000      -0.199015           -5.415480


 Total Electron Density at R=0:                                         0.242907
 PAO| Made initial guess for matrix_X with norm:   4.8989794855663558     

     Lanczos converged:  T threshold:   0.100E-02
     Est. extremal eigenvalues:    0.336E+01   0.111E+00
     Est. condition number :    0.304E+02

 Order=           3
     NS sqrt iter    1 1.00000000   0.821E+00       0.001       56.428
     NS sqrt iter    2 1.00000000   0.440E+00       0.001      110.592
     NS sqrt iter    3 1.00000000   0.171E+00       0.001      110.592
     NS sqrt iter    4 1.00000000   0.212E-01       0.001      110.592
     NS sqrt iter    5 1.00000000   0.628E-04       0.001       99.072
     Symmetrizing Results
     Final NS sqrt iter    5 1.00000000   0.504E-08

 PAO| Read restart DM 2H2O_ref_LS_DM_SPIN_1_RESTART.dm with checksum:    73.424394843818618     
 PAO| Quickstep energy from restart density:  -34.450712141822599     
 PAO| ======================= Iteration:         1 =============================

     Lanczos converged:  T threshold:   0.100E-02
     Est. extremal eigenvalues:    0.336E+01   0.111E+00
     Est. condition number :    0.304E+02

 Order=           3
     NS sqrt iter    1 1.00000000   0.821E+00       0.001       60.822
     NS sqrt iter    2 1.00000000   0.440E+00       0.001      101.065
     NS sqrt iter    3 1.00000000   0.171E+00       0.001       99.282
     NS sqrt iter    4 1.00000000   0.212E-01       0.001      100.969
     NS sqrt iter    5 1.00000000   0.628E-04       0.001       91.214
     Symmetrizing Results
     Final NS sqrt iter    5 1.00000000   0.504E-08

     Est. extremal eigenvalues     -0.92009     1.95293  converged:  T
     TRS4 it   1 1.00000000   0.901E+00       0.000       16.128   0.100E-07
     TRS4 it   2 1.00000000   0.709E+00       0.001       32.256   0.100E-07
     TRS4 it   3 1.00000000   0.506E+00       0.001       32.256   0.100E-07
     TRS4 it   4 1.00000000   0.318E+00       0.001       32.256   0.100E-07
     TRS4 it   5 1.00000000   0.159E+00       0.001       32.256   0.100E-07
     TRS4 it   6 1.00000000   0.507E-01       0.001       32.256   0.100E-07
     TRS4 it   7 1.00000000   0.713E-02       0.001       32.256   0.100E-07
     TRS4 it   8 1.00000000   0.200E-03       0.001       32.256   0.100E-07
     TRS4 it   9 1.00000000   0.178E-06       0.001       32.256   0.100E-07
     TRS4 it  10 1.00000000   0.142E-12       0.001       32.256   0.100E-07
     Final TRS4 iteration   10 1.00000000   0.142E-12
     Chemical potential (mu):      -0.06500
 
 PAO| energy:  -7.6258657122707003      penalty:   4.6838616247497590E-033
 PAO|CG| warming up with steepest descent
 PAO|CG| beta:    0.0000000000000000     
 PAO| norm of gradient:  0.78365828299027684     
 PAO|LS| adapt:  T F F
 PAO|LS| adapt: scan_steps:    0.0000000000000000        0.0000000000000000        0.0000000000000000     
 PAO|LS| adapt: energies:   -7.6258657122707003        0.0000000000000000        0.0000000000000000     
 PAO| ======================= Iteration:         2 =============================

     Lanczos converged:  T threshold:   0.100E-02
     Est. extremal eigenvalues:    0.328E+01   0.123E+00
     Est. condition number :    0.267E+02

 Order=           3
     NS sqrt iter    1 1.00000000   0.805E+00       0.001       60.538
     NS sqrt iter    2 1.00000000   0.425E+00       0.001       99.471
     NS sqrt iter    3 1.00000000   0.154E+00       0.001       99.443
     NS sqrt iter    4 1.00000000   0.148E-01       0.001       98.792
     NS sqrt iter    5 1.00000000   0.216E-04       0.001       78.014
     Symmetrizing Results
     Final NS sqrt iter    5 1.00000000   0.726E-09

     Est. extremal eigenvalues     -0.92376     1.89745  converged:  T
     TRS4 it   1 1.00000000   0.900E+00       0.000       16.128   0.100E-07
     TRS4 it   2 1.00000000   0.691E+00       0.001       32.256   0.100E-07
     TRS4 it   3 1.00000000   0.491E+00       0.001       32.256   0.100E-07
     TRS4 it   4 1.00000000   0.299E+00       0.001       32.256   0.100E-07
     TRS4 it   5 1.00000000   0.141E+00       0.001       32.256   0.100E-07
     TRS4 it   6 1.00000000   0.397E-01       0.001       32.256   0.100E-07
     TRS4 it   7 1.00000000   0.442E-02       0.001       32.256   0.100E-07
     TRS4 it   8 1.00000000   0.774E-04       0.001       32.256   0.100E-07
     TRS4 it   9 1.00000000   0.266E-07       0.001       32.256   0.100E-07
     Final TRS4 iteration    9 1.00000000   0.266E-07
     Chemical potential (mu):      -0.05311
 
 PAO| energy:  -7.6813874037896275      penalty:   2.2527166512129660E-008
 PAO|LS| adapt:  T T F
 PAO|LS| adapt: scan_steps:    0.0000000000000000       0.10000000000000001        0.0000000000000000     
 PAO|LS| adapt: energies:   -7.6258657122707003       -7.6813874037896275        0.0000000000000000     
 PAO| ======================= Iteration:         3 =============================

     Lanczos converged:  T threshold:   0.100E-02
     Est. extremal eigenvalues:    0.319E+01   0.134E+00
     Est. condition number :    0.238E+02

 Order=           3
     NS sqrt iter    1 1.00000000   0.787E+00       0.001       60.463
     NS sqrt iter    2 1.00000000   0.408E+00       0.001       99.629
     NS sqrt iter    3 1.00000000   0.137E+00       0.001       99.905
     NS sqrt iter    4 1.00000000   0.104E-01       0.001       99.890
     NS sqrt iter    5 1.00000000   0.774E-05       0.001       77.166
     Symmetrizing Results
     Final NS sqrt iter    5 1.00000000   0.944E-10

     Est. extremal eigenvalues     -0.92719     1.85179  converged:  T
     TRS4 it   1 1.00000000   0.898E+00       0.000       16.128   0.100E-07
     TRS4 it   2 1.00000000   0.675E+00       0.001       32.256   0.100E-07
     TRS4 it   3 1.00000000   0.477E+00       0.001       32.256   0.100E-07
     TRS4 it   4 1.00000000   0.281E+00       0.001       32.256   0.100E-07
     TRS4 it   5 1.00000000   0.123E+00       0.001       32.256   0.100E-07
     TRS4 it   6 1.00000000   0.302E-01       0.001       32.256   0.100E-07
     TRS4 it   7 1.00000000   0.255E-02       0.001       32.256   0.100E-07
     TRS4 it   8 1.00000000   0.258E-04       0.001       32.256   0.100E-07
     TRS4 it   9 1.00000000   0.296E-08       0.001       32.256   0.100E-07
     Final TRS4 iteration    9 1.00000000   0.296E-08
     Chemical potential (mu):      -0.04024
 
 PAO| energy:  -7.7244679110165935      penalty:   3.6043492324574694E-007
 PAO|LS| adapt:  T T F
 PAO|LS| adapt: scan_steps:    0.0000000000000000       0.20000000000000001        0.0000000000000000     
 PAO|LS| adapt: energies:   -7.6258657122707003       -7.7244679110165935        0.0000000000000000     
 PAO| ======================= Iteration:         4 =============================

     Lanczos converged:  T threshold:   0.100E-02
     Est. extremal eigenvalues:    0.299E+01   0.152E+00
     Est. condition number :    0.197E+02

 Order=           3
     NS sqrt iter    1 1.00000000   0.749E+00       0.001       60.044
     NS sqrt iter    2 1.00000000   0.374E+00       0.001       99.356
     NS sqrt iter    3 1.00000000   0.107E+00       0.001      100.329
     NS sqrt iter    4 1.00000000   0.517E-02       0.001       99.964
     NS sqrt iter    5 1.00000000   0.115E-05       0.001       77.749
     Symmetrizing Results
     Final NS sqrt iter    5 1.00000000   0.224E-11

     Est. extremal eigenvalues     -0.93253     1.78301  converged:  T
     TRS4 it   1 1.00000000   0.894E+00       0.000       16.128   0.100E-07
     TRS4 it   2 1.00000000   0.648E+00       0.001       32.256   0.100E-07
     TRS4 it   3 1.00000000   0.450E+00       0.001       32.256   0.100E-07
     TRS4 it   4 1.00000000   0.245E+00       0.001       32.256   0.100E-07
     TRS4 it   5 1.00000000   0.917E-01       0.001       32.256   0.100E-07
     TRS4 it   6 1.00000000   0.163E-01       0.001       32.256   0.100E-07
     TRS4 it   7 1.00000000   0.704E-03       0.001       32.256   0.100E-07
     TRS4 it   8 1.00000000   0.190E-05       0.001       32.256   0.100E-07
     TRS4 it   9 1.00000000   0.160E-10       0.001       32.256   0.100E-07
     Final TRS4 iteration    9 1.00000000   0.160E-10
     Chemical potential (mu):      -0.01182
 
 PAO| energy:  -7.7716965340357307      penalty:   5.7669608443535726E-006
 PAO|LS| Need extra step
 PAO|LS| adapt:  T T F
 PAO|LS| adapt: scan_steps:    0.0000000000000000       0.40000000000000002        0.0000000000000000     
 PAO|LS| adapt: energies:   -7.6258657122707003       -7.7716965340357307        0.0000000000000000     
 PAO| ======================= Iteration:         5 =============================

     Lanczos converged:  T threshold:   0.100E-02
     Est. extremal eigenvalues:    0.263E+01   0.180E+00
     Est. condition number :    0.146E+02

 Order=           3
     NS sqrt iter    1 1.00000000   0.685E+00       0.001       60.390
     NS sqrt iter    2 1.00000000   0.312E+00       0.001       99.644
     NS sqrt iter    3 1.00000000   0.664E-01       0.001       99.832
     NS sqrt iter    4 1.00000000   0.144E-02       0.001       98.561
     NS sqrt iter    5 1.00000000   0.298E-07       0.001       57.208
     Symmetrizing Results
     Final NS sqrt iter    5 1.00000000   0.272E-08

     Est. extremal eigenvalues     -0.93375     1.70062  converged:  T
     TRS4 it   1 1.00000000   0.889E+00       0.000       16.128   0.100E-07
     TRS4 it   2 1.00000000   0.609E+00       0.001       32.256   0.100E-07
     TRS4 it   3 1.00000000   0.403E+00       0.001       32.256   0.100E-07
     TRS4 it   4 1.00000000   0.189E+00       0.001       32.256   0.100E-07
     TRS4 it   5 1.00000000   0.508E-01       0.001       32.256   0.100E-07
     TRS4 it   6 1.00000000   0.454E-02       0.001       32.256   0.100E-07
     TRS4 it   7 1.00000000   0.467E-04       0.001       32.256   0.100E-07
     TRS4 it   8 1.00000000   0.637E-08       0.001       32.256   0.100E-07
     Final TRS4 iteration    8 1.00000000   0.637E-08
     Chemical potential (mu):       0.03657
 
 PAO| energy:  -7.7168806603896121      penalty:   9.2271390089064889E-005
 PAO|LS| Need extra step
 PAO|LS| adapt:  T T T
 PAO|LS| adapt: scan_steps:    0.0000000000000000       0.40000000000000002       0.80000000000000004     
 PAO|LS| adapt: energies:   -7.6258657122707003       -7.7716965340357307       -7.7168806603896121     
 PAO|LS| adapt: suggested step_size:   0.49072160190070530     
 PAO|LS| adapt: predicted energy  -7.7768571727171416     
 PAO| ======================= Iteration:         6 =============================

     Lanczos converged:  T threshold:   0.100E-02
     Est. extremal eigenvalues:    0.290E+01   0.159E+00
     Est. condition number :    0.183E+02

 Order=           3
     NS sqrt iter    1 1.00000000   0.733E+00       0.001       60.255
     NS sqrt iter    2 1.00000000   0.358E+00       0.001       99.340
     NS sqrt iter    3 1.00000000   0.958E-01       0.001       99.145
     NS sqrt iter    4 1.00000000   0.382E-02       0.001      100.787
     NS sqrt iter    5 1.00000000   0.500E-06       0.001       77.635
     Symmetrizing Results
     Final NS sqrt iter    5 1.00000000   0.433E-12

     Est. extremal eigenvalues     -0.93401     1.75919  converged:  T
     TRS4 it   1 1.00000000   0.893E+00       0.000       16.128   0.100E-07
     TRS4 it   2 1.00000000   0.637E+00       0.001       32.256   0.100E-07
     TRS4 it   3 1.00000000   0.438E+00       0.001       32.256   0.100E-07
     TRS4 it   4 1.00000000   0.231E+00       0.001       32.256   0.100E-07
     TRS4 it   5 1.00000000   0.799E-01       0.001       32.256   0.100E-07
     TRS4 it   6 1.00000000   0.121E-01       0.001       32.256   0.100E-07
     TRS4 it   7 1.00000000   0.370E-03       0.001       32.256   0.100E-07
     TRS4 it   8 1.00000000   0.499E-06       0.001       32.256   0.100E-07
     TRS4 it   9 1.00000000   0.109E-11       0.001       32.256   0.100E-07
     Final TRS4 iteration    9 1.00000000   0.109E-11
     Chemical potential (mu):       0.00196
 
 PAO| energy:  -7.7761222524623408      penalty:   1.3063145725144730E-005
 PAO|CG| warming up with steepest descent
 PAO|CG| beta:    0.0000000000000000     
 PAO| norm of gradient:  0.41703958721001877     
 PAO| energy improvement: -0.15025654019164048     
 PAO| step      6                   -7.776122252  0.261E-01  0.491E+00     0.092
 PAO|LS| adapt:  T F F
 PAO|LS| adapt: scan_steps:    0.0000000000000000        0.0000000000000000        0.0000000000000000     
 PAO|LS| adapt: energies:   -7.7761222524623408        0.0000000000000000        0.0000000000000000     
 PAO| ======================= Iteration:         7 =============================

     Lanczos converged:  T threshold:   0.100E-02
     Est. extremal eigenvalues:    0.282E+01   0.173E+00
     Est. condition number :    0.163E+02

 Order=           3
     NS sqrt iter    1 1.00000000   0.716E+00       0.001       59.921
     NS sqrt iter    2 1.00000000   0.338E+00       0.001      100.251
     NS sqrt iter    3 1.00000000   0.802E-01       0.001       99.862
     NS sqrt iter    4 1.00000000   0.234E-02       0.001       99.245
     NS sqrt iter    5 1.00000000   0.127E-06       0.001       73.056
     Symmetrizing Results
     Final NS sqrt iter    5 1.00000000   0.126E-08

     Est. extremal eigenvalues     -0.93571     1.74403  converged:  T
     TRS4 it   1 1.00000000   0.892E+00       0.000       16.128   0.100E-07
     TRS4 it   2 1.00000000   0.635E+00       0.001       32.256   0.100E-07
     TRS4 it   3 1.00000000   0.438E+00       0.001       32.256   0.100E-07
     TRS4 it   4 1.00000000   0.232E+00       0.001       32.256   0.100E-07
     TRS4 it   5 1.00000000   0.805E-01       0.001       32.256   0.100E-07
     TRS4 it   6 1.00000000   0.120E-01       0.001       32.256   0.100E-07
     TRS4 it   7 1.00000000   0.348E-03       0.001       32.256   0.100E-07
     TRS4 it   8 1.00000000   0.417E-06       0.001       32.256   0.100E-07
     TRS4 it   9 1.00000000   0.745E-12       0.001       32.256   0.100E-07
     Final TRS4 iteration    9 1.00000000   0.745E-12
     Chemical potential (mu):       0.00386
 
 PAO| energy:  -7.7701306000309334      penalty:   1.9757006517516938E-005
 PAO|LS| adapt:  T F T
 PAO|LS| adapt: scan_steps:    0.0000000000000000        0.0000000000000000       0.49072160190070530     
 PAO|LS| adapt: energies:   -7.7761222524623408        0.0000000000000000       -7.7701306000309334     
 PAO| ======================= Iteration:         8 =============================

     Lanczos converged:  T threshold:   0.100E-02
     Est. extremal eigenvalues:    0.286E+01   0.166E+00
     Est. condition number :    0.173E+02

 Order=           3
     NS sqrt iter    1 1.00000000   0.724E+00       0.001       59.804
     NS sqrt iter    2 1.00000000   0.348E+00       0.001      100.845
     NS sqrt iter    3 1.00000000   0.878E-01       0.001       99.799
     NS sqrt iter    4 1.00000000   0.301E-02       0.001       99.181
     NS sqrt iter    5 1.00000000   0.257E-06       0.001       76.099
     Symmetrizing Results
     Final NS sqrt iter    5 1.00000000   0.682E-09

     Est. extremal eigenvalues     -0.93582     1.75104  converged:  T
     TRS4 it   1 1.00000000   0.892E+00       0.000       16.128   0.100E-07
     TRS4 it   2 1.00000000   0.636E+00       0.001       32.256   0.100E-07
     TRS4 it   3 1.00000000   0.437E+00       0.001       32.256   0.100E-07
     TRS4 it   4 1.00000000   0.230E+00       0.001       32.256   0.100E-07
     TRS4 it   5 1.00000000   0.799E-01       0.001       32.256   0.100E-07
     TRS4 it   6 1.00000000   0.121E-01       0.001       32.256   0.100E-07
     TRS4 it   7 1.00000000   0.368E-03       0.001       32.256   0.100E-07
     TRS4 it   8 1.00000000   0.484E-06       0.001       32.256   0.100E-07
     TRS4 it   9 1.00000000   0.102E-11       0.001       32.256   0.100E-07
     Final TRS4 iteration    9 1.00000000   0.102E-11
     Chemical potential (mu):       0.00243
 
 PAO| energy:  -7.7957231174112724      penalty:   1.4161037180971688E-005
 PAO|LS| adapt:  T T T
 PAO|LS| adapt: scan_steps:    0.0000000000000000       0.24536080095035265       0.49072160190070530     
 PAO|LS| adapt: energies:   -7.7761222524623408       -7.7957231174112724       -7.7701306000309334     
 PAO|LS| adapt: suggested step_size:   0.22909606744495517     
 PAO|LS| adapt: predicted energy  -7.7958224126426989     
 PAO| ======================= Iteration:         9 =============================

     Lanczos converged:  T threshold:   0.100E-02
     Est. extremal eigenvalues:    0.286E+01   0.165E+00
     Est. condition number :    0.173E+02

 Order=           3
     NS sqrt iter    1 1.00000000   0.725E+00       0.001       60.619
     NS sqrt iter    2 1.00000000   0.349E+00       0.001       99.692
     NS sqrt iter    3 1.00000000   0.883E-01       0.001       99.257
     NS sqrt iter    4 1.00000000   0.306E-02       0.001       99.753
     NS sqrt iter    5 1.00000000   0.269E-06       0.001       75.457
     Symmetrizing Results
     Final NS sqrt iter    5 1.00000000   0.709E-09

     Est. extremal eigenvalues     -0.93576     1.75154  converged:  T
     TRS4 it   1 1.00000000   0.892E+00       0.000       16.128   0.100E-07
     TRS4 it   2 1.00000000   0.636E+00       0.001       32.256   0.100E-07
     TRS4 it   3 1.00000000   0.437E+00       0.001       32.256   0.100E-07
     TRS4 it   4 1.00000000   0.230E+00       0.001       32.256   0.100E-07
     TRS4 it   5 1.00000000   0.799E-01       0.001       32.256   0.100E-07
     TRS4 it   6 1.00000000   0.121E-01       0.001       32.256   0.100E-07
     TRS4 it   7 1.00000000   0.369E-03       0.001       32.256   0.100E-07
     TRS4 it   8 1.00000000   0.487E-06       0.001       32.256   0.100E-07
     TRS4 it   9 1.00000000   0.103E-11       0.001       32.256   0.100E-07
     Final TRS4 iteration    9 1.00000000   0.103E-11
     Chemical potential (mu):       0.00237
 
 PAO| energy:  -7.7958465931648853      penalty:   1.3987791813575370E-005
 PAO|CG| trace_G_new    3.6805390143086363E-002
 PAO|CG| trace_G_prev   0.17392201730030285     
 PAO|CG| trace_G_mix   -1.4383651656094511E-003
 PAO|CG| trace_D   0.17392201730030285     
 PAO|CG| trace_D_Gnew   1.4383651656094511E-003
 PAO|CG| beta:   0.21989024680332536     
 PAO| norm of gradient:  0.19184730944969325     
 PAO| energy improvement:  -1.9724340702544474E-002
 PAO| step      9                   -7.795846593  0.120E-01  0.229E+00     0.057
 PAO|LS| adapt:  T F F
 PAO|LS| adapt: scan_steps:    0.0000000000000000        0.0000000000000000        0.0000000000000000     
 PAO|LS| adapt: energies:   -7.7958465931648853        0.0000000000000000        0.0000000000000000     
 PAO| ======================= Iteration:        10 =============================

     Lanczos converged:  T threshold:   0.100E-02
     Est. extremal eigenvalues:    0.283E+01   0.171E+00
     Est. condition number :    0.165E+02

 Order=           3
     NS sqrt iter    1 1.00000000   0.717E+00       0.001       59.822
     NS sqrt iter    2 1.00000000   0.340E+00       0.001       99.857
     NS sqrt iter    3 1.00000000   0.827E-01       0.001       99.147
     NS sqrt iter    4 1.00000000   0.252E-02       0.001       99.999
     NS sqrt iter    5 1.00000000   0.149E-06       0.001       74.299
     Symmetrizing Results
     Final NS sqrt iter    5 1.00000000   0.115E-08

     Est. extremal eigenvalues     -0.93665     1.74454  converged:  T
     TRS4 it   1 1.00000000   0.890E+00       0.000       16.128   0.100E-07
     TRS4 it   2 1.00000000   0.633E+00       0.001       32.256   0.100E-07
     TRS4 it   3 1.00000000   0.435E+00       0.001       32.256   0.100E-07
     TRS4 it   4 1.00000000   0.228E+00       0.001       32.256   0.100E-07
     TRS4 it   5 1.00000000   0.777E-01       0.001       32.256   0.100E-07
     TRS4 it   6 1.00000000   0.113E-01       0.001       32.256   0.100E-07
     TRS4 it   7 1.00000000   0.321E-03       0.001       32.256   0.100E-07
     TRS4 it   8 1.00000000   0.359E-06       0.001       32.256   0.100E-07
     TRS4 it   9 1.00000000   0.555E-12       0.001       32.256   0.100E-07
     Final TRS4 iteration    9 1.00000000   0.555E-12
     Chemical potential (mu):       0.00549
 
 PAO| energy:  -7.8008681958408648      penalty:   1.4522208279789451E-005
 PAO|LS| adapt:  T T F
 PAO|LS| adapt: scan_steps:    0.0000000000000000       0.22909606744495517        0.0000000000000000     
 PAO|LS| adapt: energies:   -7.7958465931648853       -7.8008681958408648        0.0000000000000000     
 PAO| ======================= Iteration:        11 =============================

     Lanczos converged:  T threshold:   0.100E-02
     Est. extremal eigenvalues:    0.279E+01   0.177E+00
     Est. condition number :    0.157E+02

 Order=           3
     NS sqrt iter    1 1.00000000   0.709E+00       0.001       59.826
     NS sqrt iter    2 1.00000000   0.332E+00       0.001       99.779
     NS sqrt iter    3 1.00000000   0.773E-01       0.001       99.921
     NS sqrt iter    4 1.00000000   0.206E-02       0.001      100.221
     NS sqrt iter    5 1.00000000   0.815E-07       0.001       69.827
     Symmetrizing Results
     Final NS sqrt iter    5 1.00000000   0.723E-09

     Est. extremal eigenvalues     -0.93657     1.73862  converged:  T
     TRS4 it   1 1.00000000   0.887E+00       0.000       16.128   0.100E-07
     TRS4 it   2 1.00000000   0.631E+00       0.001       32.256   0.100E-07
     TRS4 it   3 1.00000000   0.433E+00       0.001       32.256   0.100E-07
     TRS4 it   4 1.00000000   0.225E+00       0.001       32.256   0.100E-07
     TRS4 it   5 1.00000000   0.755E-01       0.001       32.256   0.100E-07
     TRS4 it   6 1.00000000   0.106E-01       0.001       32.256   0.100E-07
     TRS4 it   7 1.00000000   0.278E-03       0.001       32.256   0.100E-07
     TRS4 it   8 1.00000000   0.262E-06       0.001       32.256   0.100E-07
     TRS4 it   9 1.00000000   0.289E-12       0.001       32.256   0.100E-07
     Final TRS4 iteration    9 1.00000000   0.289E-12
     Chemical potential (mu):       0.00873
 
 PAO| energy:  -7.7994571498475631      penalty:   1.5722123898844797E-005
 PAO|LS| adapt:  T T T
 PAO|LS| adapt: scan_steps:    0.0000000000000000       0.22909606744495517       0.45819213488991034     
 PAO|LS| adapt: energies:   -7.7958465931648853       -7.8008681958408648       -7.7994571498475631     
 PAO|LS| adapt: suggested step_size:   0.29339029365061470     
 PAO|LS| adapt: predicted energy  -7.8011215152787248     
 PAO| ======================= Iteration:        12 =============================

     Lanczos converged:  T threshold:   0.100E-02
     Est. extremal eigenvalues:    0.281E+01   0.173E+00
     Est. condition number :    0.163E+02

 Order=           3
     NS sqrt iter    1 1.00000000   0.715E+00       0.001       59.618
     NS sqrt iter    2 1.00000000   0.338E+00       0.001      100.213
     NS sqrt iter    3 1.00000000   0.812E-01       0.001      100.228
     NS sqrt iter    4 1.00000000   0.238E-02       0.001       99.715
     NS sqrt iter    5 1.00000000   0.126E-06       0.001       72.797
     Symmetrizing Results
     Final NS sqrt iter    5 1.00000000   0.123E-08

     Est. extremal eigenvalues     -0.93672     1.74277  converged:  T
     TRS4 it   1 1.00000000   0.889E+00       0.000       16.128   0.100E-07
     TRS4 it   2 1.00000000   0.633E+00       0.001       32.256   0.100E-07
     TRS4 it   3 1.00000000   0.434E+00       0.001       32.256   0.100E-07
     TRS4 it   4 1.00000000   0.227E+00       0.001       32.256   0.100E-07
     TRS4 it   5 1.00000000   0.771E-01       0.001       32.256   0.100E-07
     TRS4 it   6 1.00000000   0.111E-01       0.001       32.256   0.100E-07
     TRS4 it   7 1.00000000   0.308E-03       0.001       32.256   0.100E-07
     TRS4 it   8 1.00000000   0.329E-06       0.001       32.256   0.100E-07
     TRS4 it   9 1.00000000   0.463E-12       0.001       32.256   0.100E-07
     Final TRS4 iteration    9 1.00000000   0.463E-12
     Chemical potential (mu):       0.00639
 
 PAO| energy:  -7.8011053732294870      penalty:   1.4784179406533789E-005
 PAO|CG| trace_G_new    1.1782151458149009E-002
 PAO|CG| trace_G_prev    3.6805390143086363E-002
 PAO|CG| trace_G_mix   -4.5854483187006802E-004
 PAO|CG| trace_D    4.4582253994083144E-002
 PAO|CG| trace_D_Gnew   2.0934078827748444E-004
 PAO|CG| beta:   0.33257890331909462     
 PAO| norm of gradient:  0.10854561924900059     
 PAO| energy improvement:  -5.2587800646017868E-003
 PAO| step     12                   -7.801105373  0.678E-02  0.293E+00     0.058
 PAO|LS| adapt:  T F F
 PAO|LS| adapt: scan_steps:    0.0000000000000000        0.0000000000000000        0.0000000000000000     
 PAO|LS| adapt: energies:   -7.8011053732294870        0.0000000000000000        0.0000000000000000     
 PAO| ======================= Iteration:        13 =============================

     Lanczos converged:  T threshold:   0.100E-02
     Est. extremal eigenvalues:    0.278E+01   0.177E+00
     Est. condition number :    0.157E+02

 Order=           3
     NS sqrt iter    1 1.00000000   0.708E+00       0.001       58.925
     NS sqrt iter    2 1.00000000   0.331E+00       0.001      100.145
     NS sqrt iter    3 1.00000000   0.768E-01       0.001      100.887
     NS sqrt iter    4 1.00000000   0.203E-02       0.001      100.268
     NS sqrt iter    5 1.00000000   0.789E-07       0.001       69.979
     Symmetrizing Results
     Final NS sqrt iter    5 1.00000000   0.602E-09

     Est. extremal eigenvalues     -0.93721     1.73502  converged:  T
     TRS4 it   1 1.00000000   0.888E+00       0.000       16.128   0.100E-07
     TRS4 it   2 1.00000000   0.629E+00       0.001       32.256   0.100E-07
     TRS4 it   3 1.00000000   0.430E+00       0.001       32.256   0.100E-07
     TRS4 it   4 1.00000000   0.222E+00       0.001       32.256   0.100E-07
     TRS4 it   5 1.00000000   0.734E-01       0.001       32.256   0.100E-07
     TRS4 it   6 1.00000000   0.101E-01       0.001       32.256   0.100E-07
     TRS4 it   7 1.00000000   0.248E-03       0.001       32.256   0.100E-07
     TRS4 it   8 1.00000000   0.207E-06       0.001       32.256   0.100E-07
     TRS4 it   9 1.00000000   0.181E-12       0.001       32.256   0.100E-07
     Final TRS4 iteration    9 1.00000000   0.181E-12
     Chemical potential (mu):       0.01091
 
 PAO| energy:  -7.8031680415118414      penalty:   1.5086508766814852E-005
 PAO|LS| adapt:  T T F
 PAO|LS| adapt: scan_steps:    0.0000000000000000       0.29339029365061470        0.0000000000000000     
 PAO|LS| adapt: energies:   -7.8011053732294870       -7.8031680415118414        0.0000000000000000     
 PAO| ======================= Iteration:        14 =============================

     Lanczos converged:  T threshold:   0.100E-02
     Est. extremal eigenvalues:    0.275E+01   0.181E+00
     Est. condition number :    0.152E+02

 Order=           3
     NS sqrt iter    1 1.00000000   0.701E+00       0.001       59.862
     NS sqrt iter    2 1.00000000   0.324E+00       0.001       99.772
     NS sqrt iter    3 1.00000000   0.727E-01       0.001       99.913
     NS sqrt iter    4 1.00000000   0.173E-02       0.001       99.115
     NS sqrt iter    5 1.00000000   0.492E-07       0.001       67.247
     Symmetrizing Results
     Final NS sqrt iter    5 1.00000000   0.454E-09

     Est. extremal eigenvalues     -0.93719     1.72759  converged:  T
     TRS4 it   1 1.00000000   0.887E+00       0.000       16.128   0.100E-07
     TRS4 it   2 1.00000000   0.626E+00       0.001       32.256   0.100E-07
     TRS4 it   3 1.00000000   0.426E+00       0.001       32.256   0.100E-07
     TRS4 it   4 1.00000000   0.217E+00       0.001       32.256   0.100E-07
     TRS4 it   5 1.00000000   0.699E-01       0.001       32.256   0.100E-07
     TRS4 it   6 1.00000000   0.907E-02       0.001       32.256   0.100E-07
     TRS4 it   7 1.00000000   0.199E-03       0.001       32.256   0.100E-07
     TRS4 it   8 1.00000000   0.130E-06       0.001       32.256   0.100E-07
     TRS4 it   9 1.00000000   0.685E-13       0.001       32.256   0.100E-07
     Final TRS4 iteration    9 1.00000000   0.685E-13
     Chemical potential (mu):       0.01532
 
 PAO| energy:  -7.8025330179540049      penalty:   1.5865496472574601E-005
 PAO|LS| adapt:  T T T
 PAO|LS| adapt: scan_steps:    0.0000000000000000       0.29339029365061470       0.58678058730122939     
 PAO|LS| adapt: energies:   -7.8011053732294870       -7.8031680415118414       -7.8025330179540049     
 PAO|LS| adapt: suggested step_size:   0.37102279020096302     
 PAO|LS| adapt: predicted energy  -7.8032624819437082     
 PAO| ======================= Iteration:        15 =============================

     Lanczos converged:  T threshold:   0.100E-02
     Est. extremal eigenvalues:    0.277E+01   0.178E+00
     Est. condition number :    0.156E+02

 Order=           3
     NS sqrt iter    1 1.00000000   0.706E+00       0.001       59.791
     NS sqrt iter    2 1.00000000   0.329E+00       0.001       97.922
     NS sqrt iter    3 1.00000000   0.757E-01       0.001       99.949
     NS sqrt iter    4 1.00000000   0.195E-02       0.001      101.295
     NS sqrt iter    5 1.00000000   0.696E-07       0.001       70.057
     Symmetrizing Results
     Final NS sqrt iter    5 1.00000000   0.556E-09

     Est. extremal eigenvalues     -0.93725     1.73302  converged:  T
     TRS4 it   1 1.00000000   0.888E+00       0.000       16.128   0.100E-07
     TRS4 it   2 1.00000000   0.629E+00       0.001       32.256   0.100E-07
     TRS4 it   3 1.00000000   0.429E+00       0.001       32.256   0.100E-07
     TRS4 it   4 1.00000000   0.221E+00       0.001       32.256   0.100E-07
     TRS4 it   5 1.00000000   0.725E-01       0.001       32.256   0.100E-07
     TRS4 it   6 1.00000000   0.979E-02       0.001       32.256   0.100E-07
     TRS4 it   7 1.00000000   0.234E-03       0.001       32.256   0.100E-07
     TRS4 it   8 1.00000000   0.183E-06       0.001       32.256   0.100E-07
     TRS4 it   9 1.00000000   0.140E-12       0.001       32.256   0.100E-07
     Final TRS4 iteration    9 1.00000000   0.140E-12
     Chemical potential (mu):       0.01208
 
 PAO| energy:  -7.8032594008743619      penalty:   1.5243202386089820E-005
 PAO|CG| trace_G_new    2.6280050436543372E-003
 PAO|CG| trace_G_prev    1.1782151458149009E-002
 PAO|CG| trace_G_mix    6.2937010453668866E-005
 PAO|CG| trace_D    1.6574093156664600E-002
 PAO|CG| trace_D_Gnew   3.3792652654112589E-005
 PAO|CG| beta:   0.21770794937681470     
 PAO| norm of gradient:   5.1264071664805726E-002
 PAO| energy improvement:  -2.1540276448748230E-003
 PAO| step     15                   -7.803259401  0.320E-02  0.371E+00     0.057
 PAO|LS| adapt:  T F F
 PAO|LS| adapt: scan_steps:    0.0000000000000000        0.0000000000000000        0.0000000000000000     
 PAO|LS| adapt: energies:   -7.8032594008743619        0.0000000000000000        0.0000000000000000     
 PAO| ======================= Iteration:        16 =============================

     Lanczos converged:  T threshold:   0.100E-02
     Est. extremal eigenvalues:    0.276E+01   0.179E+00
     Est. condition number :    0.154E+02

 Order=           3
     NS sqrt iter    1 1.00000000   0.704E+00       0.001       59.471
     NS sqrt iter    2 1.00000000   0.328E+00       0.001      100.403
     NS sqrt iter    3 1.00000000   0.750E-01       0.001      100.618
     NS sqrt iter    4 1.00000000   0.189E-02       0.001       99.227
     NS sqrt iter    5 1.00000000   0.632E-07       0.001       68.842
     Symmetrizing Results
     Final NS sqrt iter    5 1.00000000   0.835E-09

     Est. extremal eigenvalues     -0.93728     1.73159  converged:  T
     TRS4 it   1 1.00000000   0.888E+00       0.000       16.128   0.100E-07
     TRS4 it   2 1.00000000   0.628E+00       0.001       32.256   0.100E-07
     TRS4 it   3 1.00000000   0.428E+00       0.001       32.256   0.100E-07
     TRS4 it   4 1.00000000   0.219E+00       0.001       32.256   0.100E-07
     TRS4 it   5 1.00000000   0.712E-01       0.001       32.256   0.100E-07
     TRS4 it   6 1.00000000   0.946E-02       0.001       32.256   0.100E-07
     TRS4 it   7 1.00000000   0.220E-03       0.001       32.256   0.100E-07
     TRS4 it   8 1.00000000   0.163E-06       0.001       32.256   0.100E-07
     TRS4 it   9 1.00000000   0.112E-12       0.001       32.256   0.100E-07
     Final TRS4 iteration    9 1.00000000   0.112E-12
     Chemical potential (mu):       0.01293
 
 PAO| energy:  -7.8033838193016312      penalty:   1.5024351026277573E-005
 PAO|LS| adapt:  T T F
 PAO|LS| adapt: scan_steps:    0.0000000000000000       0.37102279020096302        0.0000000000000000     
 PAO|LS| adapt: energies:   -7.8032594008743619       -7.8033838193016312        0.0000000000000000     
 PAO| ======================= Iteration:        17 =============================

     Lanczos converged:  T threshold:   0.100E-02
     Est. extremal eigenvalues:    0.275E+01   0.180E+00
     Est. condition number :    0.153E+02

 Order=           3
     NS sqrt iter    1 1.00000000   0.702E+00       0.001       59.892
     NS sqrt iter    2 1.00000000   0.327E+00       0.001       99.754
     NS sqrt iter    3 1.00000000   0.743E-01       0.001       99.974
     NS sqrt iter    4 1.00000000   0.183E-02       0.001      100.022
     NS sqrt iter    5 1.00000000   0.575E-07       0.001       68.312
     Symmetrizing Results
     Final NS sqrt iter    5 1.00000000   0.695E-09

     Est. extremal eigenvalues     -0.93718     1.73023  converged:  T
     TRS4 it   1 1.00000000   0.888E+00       0.000       16.128   0.100E-07
     TRS4 it   2 1.00000000   0.627E+00       0.001       32.256   0.100E-07
     TRS4 it   3 1.00000000   0.426E+00       0.001       32.256   0.100E-07
     TRS4 it   4 1.00000000   0.217E+00       0.001       32.256   0.100E-07
     TRS4 it   5 1.00000000   0.700E-01       0.001       32.256   0.100E-07
     TRS4 it   6 1.00000000   0.915E-02       0.001       32.256   0.100E-07
     TRS4 it   7 1.00000000   0.206E-03       0.001       32.256   0.100E-07
     TRS4 it   8 1.00000000   0.146E-06       0.001       32.256   0.100E-07
     TRS4 it   9 1.00000000   0.899E-13       0.001       32.256   0.100E-07
     Final TRS4 iteration    9 1.00000000   0.899E-13
     Chemical potential (mu):       0.01375
 
 PAO| energy:  -7.8018069497208495      penalty:   1.4932502975263436E-005
 PAO|LS| adapt:  T T T
 PAO|LS| adapt: scan_steps:    0.0000000000000000       0.37102279020096302       0.74204558040192603     
 PAO|LS| adapt: energies:   -7.8032594008743619       -7.8033838193016312       -7.8018069497208495     
 PAO|LS| adapt: suggested step_size:   0.21264499730035447     
 PAO|LS| adapt: predicted energy  -7.8035388205670957     
 PAO| ======================= Iteration:        18 =============================

     Lanczos converged:  T threshold:   0.100E-02
     Est. extremal eigenvalues:    0.277E+01   0.179E+00
     Est. condition number :    0.155E+02

 Order=           3
     NS sqrt iter    1 1.00000000   0.705E+00       0.001       59.359
     NS sqrt iter    2 1.00000000   0.328E+00       0.001      100.074
     NS sqrt iter    3 1.00000000   0.753E-01       0.001      100.113
     NS sqrt iter    4 1.00000000   0.191E-02       0.001      100.097
     NS sqrt iter    5 1.00000000   0.659E-07       0.001       67.660
     Symmetrizing Results
     Final NS sqrt iter    5 1.00000000   0.855E-09

     Est. extremal eigenvalues     -0.93728     1.73219  converged:  T
     TRS4 it   1 1.00000000   0.888E+00       0.000       16.128   0.100E-07
     TRS4 it   2 1.00000000   0.628E+00       0.001       32.256   0.100E-07
     TRS4 it   3 1.00000000   0.428E+00       0.001       32.256   0.100E-07
     TRS4 it   4 1.00000000   0.220E+00       0.001       32.256   0.100E-07
     TRS4 it   5 1.00000000   0.718E-01       0.001       32.256   0.100E-07
     TRS4 it   6 1.00000000   0.960E-02       0.001       32.256   0.100E-07
     TRS4 it   7 1.00000000   0.226E-03       0.001       32.256   0.100E-07
     TRS4 it   8 1.00000000   0.171E-06       0.001       32.256   0.100E-07
     TRS4 it   9 1.00000000   0.123E-12       0.001       32.256   0.100E-07
     Final TRS4 iteration    9 1.00000000   0.123E-12
     Chemical potential (mu):       0.01257
 
 PAO| energy:  -7.8035383695404068      penalty:   1.5102519764534034E-005
 PAO|CG| trace_G_new    7.2501548897278400E-004
 PAO|CG| trace_G_prev    2.6280050436543372E-003
 PAO|CG| trace_G_mix    1.3461865149343586E-006
 PAO|CG| trace_D    3.3988493555020026E-003
 PAO|CG| trace_D_Gnew  -1.7088955365923240E-006
 PAO|CG| beta:   0.27536830806517820     
 PAO| norm of gradient:   2.6926111657140248E-002
 PAO| energy improvement:  -2.7896866604493198E-004
 PAO| step     18                   -7.803538370  0.168E-02  0.213E+00     0.057
 PAO|LS| adapt:  T F F
 PAO|LS| adapt: scan_steps:    0.0000000000000000        0.0000000000000000        0.0000000000000000     
 PAO|LS| adapt: energies:   -7.8035383695404068        0.0000000000000000        0.0000000000000000     
 PAO| ======================= Iteration:        19 =============================

     Lanczos converged:  T threshold:   0.100E-02
     Est. extremal eigenvalues:    0.277E+01   0.178E+00
     Est. condition number :    0.155E+02

 Order=           3
     NS sqrt iter    1 1.00000000   0.705E+00       0.001       59.425
     NS sqrt iter    2 1.00000000   0.329E+00       0.001       99.151
     NS sqrt iter    3 1.00000000   0.755E-01       0.001       99.878
     NS sqrt iter    4 1.00000000   0.192E-02       0.001       98.489
     NS sqrt iter    5 1.00000000   0.666E-07       0.001       69.493
     Symmetrizing Results
     Final NS sqrt iter    5 1.00000000   0.546E-09

     Est. extremal eigenvalues     -0.93728     1.73232  converged:  T
     TRS4 it   1 1.00000000   0.888E+00       0.000       16.128   0.100E-07
     TRS4 it   2 1.00000000   0.628E+00       0.001       32.256   0.100E-07
     TRS4 it   3 1.00000000   0.428E+00       0.001       32.256   0.100E-07
     TRS4 it   4 1.00000000   0.219E+00       0.001       32.256   0.100E-07
     TRS4 it   5 1.00000000   0.716E-01       0.001       32.256   0.100E-07
     TRS4 it   6 1.00000000   0.959E-02       0.001       32.256   0.100E-07
     TRS4 it   7 1.00000000   0.226E-03       0.001       32.256   0.100E-07
     TRS4 it   8 1.00000000   0.174E-06       0.001       32.256   0.100E-07
     TRS4 it   9 1.00000000   0.127E-12       0.001       32.256   0.100E-07
     Final TRS4 iteration    9 1.00000000   0.127E-12
     Chemical potential (mu):       0.01229
 
 PAO| energy:  -7.8036560995974122      penalty:   1.4813560398463333E-005
 PAO|LS| adapt:  T T F
 PAO|LS| adapt: scan_steps:    0.0000000000000000       0.21264499730035447        0.0000000000000000     
 PAO|LS| adapt: energies:   -7.8035383695404068       -7.8036560995974122        0.0000000000000000     
 PAO| ======================= Iteration:        20 =============================

     Lanczos converged:  T threshold:   0.100E-02
     Est. extremal eigenvalues:    0.277E+01   0.178E+00
     Est. condition number :    0.155E+02

 Order=           3
     NS sqrt iter    1 1.00000000   0.705E+00       0.001       59.144
     NS sqrt iter    2 1.00000000   0.329E+00       0.001       99.876
     NS sqrt iter    3 1.00000000   0.757E-01       0.001      101.058
     NS sqrt iter    4 1.00000000   0.193E-02       0.001      100.141
     NS sqrt iter    5 1.00000000   0.673E-07       0.001       68.914
     Symmetrizing Results
     Final NS sqrt iter    5 1.00000000   0.558E-09

     Est. extremal eigenvalues     -0.93728     1.73245  converged:  T
     TRS4 it   1 1.00000000   0.888E+00       0.000       16.128   0.100E-07
     TRS4 it   2 1.00000000   0.628E+00       0.001       32.256   0.100E-07
     TRS4 it   3 1.00000000   0.428E+00       0.001       32.256   0.100E-07
     TRS4 it   4 1.00000000   0.219E+00       0.001       32.256   0.100E-07
     TRS4 it   5 1.00000000   0.715E-01       0.001       32.256   0.100E-07
     TRS4 it   6 1.00000000   0.958E-02       0.001       32.256   0.100E-07
     TRS4 it   7 1.00000000   0.227E-03       0.001       32.256   0.100E-07
     TRS4 it   8 1.00000000   0.176E-06       0.001       32.256   0.100E-07
     TRS4 it   9 1.00000000   0.131E-12       0.001       32.256   0.100E-07
     Final TRS4 iteration    9 1.00000000   0.131E-12
     Chemical potential (mu):       0.01200
 
 PAO| energy:  -7.8037003583878883      penalty:   1.4537020532720101E-005
 PAO|LS| adapt:  T T F
 PAO|LS| adapt: scan_steps:    0.0000000000000000       0.42528999460070893        0.0000000000000000     
 PAO|LS| adapt: energies:   -7.8035383695404068       -7.8037003583878883        0.0000000000000000     
 PAO| ======================= Iteration:        21 =============================

     Lanczos converged:  T threshold:   0.100E-02
     Est. extremal eigenvalues:    0.277E+01   0.178E+00
     Est. condition number :    0.155E+02

 Order=           3
     NS sqrt iter    1 1.00000000   0.704E+00       0.001       59.951
     NS sqrt iter    2 1.00000000   0.329E+00       0.001       99.557
     NS sqrt iter    3 1.00000000   0.762E-01       0.001      100.430
     NS sqrt iter    4 1.00000000   0.196E-02       0.001       98.968
     NS sqrt iter    5 1.00000000   0.689E-07       0.001       69.234
     Symmetrizing Results
     Final NS sqrt iter    5 1.00000000   0.569E-09

     Est. extremal eigenvalues     -0.93727     1.73272  converged:  T
     TRS4 it   1 1.00000000   0.888E+00       0.000       16.128   0.100E-07
     TRS4 it   2 1.00000000   0.628E+00       0.001       32.256   0.100E-07
     TRS4 it   3 1.00000000   0.428E+00       0.001       32.256   0.100E-07
     TRS4 it   4 1.00000000   0.219E+00       0.001       32.256   0.100E-07
     TRS4 it   5 1.00000000   0.713E-01       0.001       32.256   0.100E-07
     TRS4 it   6 1.00000000   0.956E-02       0.001       32.256   0.100E-07
     TRS4 it   7 1.00000000   0.228E-03       0.001       32.256   0.100E-07
     TRS4 it   8 1.00000000   0.181E-06       0.001       32.256   0.100E-07
     TRS4 it   9 1.00000000   0.141E-12       0.001       32.256   0.100E-07
     Final TRS4 iteration    9 1.00000000   0.141E-12
     Chemical potential (mu):       0.01143
 
 PAO| energy:  -7.8035661255460163      penalty:   1.4020618429268756E-005
 PAO|LS| Need extra step
 PAO|LS| adapt:  T T T
 PAO|LS| adapt: scan_steps:    0.0000000000000000       0.42528999460070893       0.85057998920141786     
 PAO|LS| adapt: energies:   -7.8035383695404068       -7.8037003583878883       -7.8035661255460163     
 PAO|LS| adapt: suggested step_size:   0.44521485476462413     
 PAO|LS| adapt: predicted energy  -7.8037006834804945     
 PAO| ======================= Iteration:        22 =============================

     Lanczos converged:  T threshold:   0.100E-02
     Est. extremal eigenvalues:    0.277E+01   0.178E+00
     Est. condition number :    0.155E+02

 Order=           3
     NS sqrt iter    1 1.00000000   0.705E+00       0.001       59.941
     NS sqrt iter    2 1.00000000   0.329E+00       0.001       99.190
     NS sqrt iter    3 1.00000000   0.758E-01       0.001       98.056
     NS sqrt iter    4 1.00000000   0.193E-02       0.001       99.808
     NS sqrt iter    5 1.00000000   0.674E-07       0.001       69.373
     Symmetrizing Results
     Final NS sqrt iter    5 1.00000000   0.559E-09

     Est. extremal eigenvalues     -0.93728     1.73246  converged:  T
     TRS4 it   1 1.00000000   0.888E+00       0.000       16.128   0.100E-07
     TRS4 it   2 1.00000000   0.628E+00       0.001       32.256   0.100E-07
     TRS4 it   3 1.00000000   0.428E+00       0.001       32.256   0.100E-07
     TRS4 it   4 1.00000000   0.219E+00       0.001       32.256   0.100E-07
     TRS4 it   5 1.00000000   0.715E-01       0.001       32.256   0.100E-07
     TRS4 it   6 1.00000000   0.958E-02       0.001       32.256   0.100E-07
     TRS4 it   7 1.00000000   0.227E-03       0.001       32.256   0.100E-07
     TRS4 it   8 1.00000000   0.177E-06       0.001       32.256   0.100E-07
     TRS4 it   9 1.00000000   0.132E-12       0.001       32.256   0.100E-07
     Final TRS4 iteration    9 1.00000000   0.132E-12
     Chemical potential (mu):       0.01198
 
 PAO| energy:  -7.8037007199122259      penalty:   1.4511738756746820E-005
 PAO|CG| trace_G_new    2.2121090583614351E-004
 PAO|CG| trace_G_prev    7.2501548897278400E-004
 PAO|CG| trace_G_mix    2.9312893107888674E-006
 PAO|CG| trace_D    9.8368358688098148E-004
 PAO|CG| trace_D_Gnew  -1.8207408192427479E-006
 PAO|CG| beta:   0.30106890107219286     
 PAO| norm of gradient:   1.4873160586645446E-002
 PAO| energy improvement:  -1.6235037181910883E-004
 PAO| step     22                   -7.803700720  0.930E-03  0.445E+00     0.075
 PAO|LS| adapt:  T F F
 PAO|LS| adapt: scan_steps:    0.0000000000000000        0.0000000000000000        0.0000000000000000     
 PAO|LS| adapt: energies:   -7.8037007199122259        0.0000000000000000        0.0000000000000000     
 PAO| ======================= Iteration:        23 =============================

     Lanczos converged:  T threshold:   0.100E-02
     Est. extremal eigenvalues:    0.277E+01   0.178E+00
     Est. condition number :    0.155E+02

 Order=           3
     NS sqrt iter    1 1.00000000   0.705E+00       0.001       59.754
     NS sqrt iter    2 1.00000000   0.329E+00       0.001       99.002
     NS sqrt iter    3 1.00000000   0.758E-01       0.001      100.641
     NS sqrt iter    4 1.00000000   0.194E-02       0.001       99.657
     NS sqrt iter    5 1.00000000   0.674E-07       0.001       68.958
     Symmetrizing Results
     Final NS sqrt iter    5 1.00000000   0.565E-09

     Est. extremal eigenvalues     -0.93728     1.73221  converged:  T
     TRS4 it   1 1.00000000   0.888E+00       0.000       16.128   0.100E-07
     TRS4 it   2 1.00000000   0.628E+00       0.001       32.256   0.100E-07
     TRS4 it   3 1.00000000   0.428E+00       0.001       32.256   0.100E-07
     TRS4 it   4 1.00000000   0.219E+00       0.001       32.256   0.100E-07
     TRS4 it   5 1.00000000   0.716E-01       0.001       32.256   0.100E-07
     TRS4 it   6 1.00000000   0.962E-02       0.001       32.256   0.100E-07
     TRS4 it   7 1.00000000   0.229E-03       0.001       32.256   0.100E-07
     TRS4 it   8 1.00000000   0.181E-06       0.001       32.256   0.100E-07
     TRS4 it   9 1.00000000   0.139E-12       0.001       32.256   0.100E-07
     Final TRS4 iteration    9 1.00000000   0.139E-12
     Chemical potential (mu):       0.01164
 
 PAO| energy:  -7.8037499276764741      penalty:   1.3829343737326140E-005
 PAO|LS| adapt:  T T F
 PAO|LS| adapt: scan_steps:    0.0000000000000000       0.44521485476462413        0.0000000000000000     
 PAO|LS| adapt: energies:   -7.8037007199122259       -7.8037499276764741        0.0000000000000000     
 PAO| ======================= Iteration:        24 =============================

     Lanczos converged:  T threshold:   0.100E-02
     Est. extremal eigenvalues:    0.277E+01   0.178E+00
     Est. condition number :    0.155E+02

 Order=           3
     NS sqrt iter    1 1.00000000   0.705E+00       0.001       60.126
     NS sqrt iter    2 1.00000000   0.329E+00       0.001       98.467
     NS sqrt iter    3 1.00000000   0.758E-01       0.001       99.913
     NS sqrt iter    4 1.00000000   0.194E-02       0.001       99.617
     NS sqrt iter    5 1.00000000   0.674E-07       0.001       70.036
     Symmetrizing Results
     Final NS sqrt iter    5 1.00000000   0.570E-09

     Est. extremal eigenvalues     -0.93728     1.73195  converged:  T
     TRS4 it   1 1.00000000   0.887E+00       0.000       16.128   0.100E-07
     TRS4 it   2 1.00000000   0.628E+00       0.001       32.256   0.100E-07
     TRS4 it   3 1.00000000   0.428E+00       0.001       32.256   0.100E-07
     TRS4 it   4 1.00000000   0.219E+00       0.001       32.256   0.100E-07
     TRS4 it   5 1.00000000   0.717E-01       0.001       32.256   0.100E-07
     TRS4 it   6 1.00000000   0.966E-02       0.001       32.256   0.100E-07
     TRS4 it   7 1.00000000   0.232E-03       0.001       32.256   0.100E-07
     TRS4 it   8 1.00000000   0.186E-06       0.001       32.256   0.100E-07
     TRS4 it   9 1.00000000   0.147E-12       0.001       32.256   0.100E-07
     Final TRS4 iteration    9 1.00000000   0.147E-12
     Chemical potential (mu):       0.01131
 
 PAO| energy:  -7.8036994677713185      penalty:   1.3175334567383873E-005
 PAO|LS| adapt:  T T T
 PAO|LS| adapt: scan_steps:    0.0000000000000000       0.44521485476462413       0.89042970952924827     
 PAO|LS| adapt: energies:   -7.8037007199122259       -7.8037499276764741       -7.8036994677713185     
 PAO|LS| adapt: suggested step_size:   0.44241820197054738     
 PAO|LS| adapt: predicted energy  -7.8037499296428301     
 PAO| ======================= Iteration:        25 =============================

     Lanczos converged:  T threshold:   0.100E-02
     Est. extremal eigenvalues:    0.277E+01   0.178E+00
     Est. condition number :    0.155E+02

 Order=           3
     NS sqrt iter    1 1.00000000   0.705E+00       0.001       59.416
     NS sqrt iter    2 1.00000000   0.329E+00       0.001       99.638
     NS sqrt iter    3 1.00000000   0.758E-01       0.001      100.368
     NS sqrt iter    4 1.00000000   0.194E-02       0.001      100.788
     NS sqrt iter    5 1.00000000   0.674E-07       0.001       68.948
     Symmetrizing Results
     Final NS sqrt iter    5 1.00000000   0.565E-09

     Est. extremal eigenvalues     -0.93728     1.73221  converged:  T
     TRS4 it   1 1.00000000   0.888E+00       0.000       16.128   0.100E-07
     TRS4 it   2 1.00000000   0.628E+00       0.001       32.256   0.100E-07
     TRS4 it   3 1.00000000   0.428E+00       0.001       32.256   0.100E-07
     TRS4 it   4 1.00000000   0.219E+00       0.001       32.256   0.100E-07
     TRS4 it   5 1.00000000   0.716E-01       0.001       32.256   0.100E-07
     TRS4 it   6 1.00000000   0.962E-02       0.001       32.256   0.100E-07
     TRS4 it   7 1.00000000   0.229E-03       0.001       32.256   0.100E-07
     TRS4 it   8 1.00000000   0.181E-06       0.001       32.256   0.100E-07
     TRS4 it   9 1.00000000   0.139E-12       0.001       32.256   0.100E-07
     Final TRS4 iteration    9 1.00000000   0.139E-12
     Chemical potential (mu):       0.01165
 
 PAO| energy:  -7.8037499286654617      penalty:   1.3833541016928607E-005
 PAO|CG| trace_G_new    7.8847430921092198E-005
 PAO|CG| trace_G_prev    2.2121090583614351E-004
 PAO|CG| trace_G_mix    6.8471851276432675E-007
 PAO|CG| trace_D    3.1147076570222710E-004
 PAO|CG| trace_D_Gnew  -3.4949298026712894E-007
 PAO|CG| beta:   0.35334023027881351     
 PAO| norm of gradient:   8.8796075882379057E-003
 PAO| energy improvement:  -4.9208753235774338E-005
 PAO| step     25                   -7.803749929  0.555E-03  0.442E+00     0.058
 PAO|LS| adapt:  T F F
 PAO|LS| adapt: scan_steps:    0.0000000000000000        0.0000000000000000        0.0000000000000000     
 PAO|LS| adapt: energies:   -7.8037499286654617        0.0000000000000000        0.0000000000000000     
 PAO| ======================= Iteration:        26 =============================

     Lanczos converged:  T threshold:   0.100E-02
     Est. extremal eigenvalues:    0.277E+01   0.178E+00
     Est. condition number :    0.155E+02

 Order=           3
     NS sqrt iter    1 1.00000000   0.704E+00       0.001       58.962
     NS sqrt iter    2 1.00000000   0.329E+00       0.001       98.213
     NS sqrt iter    3 1.00000000   0.757E-01       0.001       99.753
     NS sqrt iter    4 1.00000000   0.193E-02       0.001      100.068
     NS sqrt iter    5 1.00000000   0.666E-07       0.001       69.316
     Symmetrizing Results
     Final NS sqrt iter    5 1.00000000   0.560E-09

     Est. extremal eigenvalues     -0.93728     1.73170  converged:  T
     TRS4 it   1 1.00000000   0.888E+00       0.000       16.128   0.100E-07
     TRS4 it   2 1.00000000   0.628E+00       0.001       32.256   0.100E-07
     TRS4 it   3 1.00000000   0.428E+00       0.001       32.256   0.100E-07
     TRS4 it   4 1.00000000   0.219E+00       0.001       32.256   0.100E-07
     TRS4 it   5 1.00000000   0.715E-01       0.001       32.256   0.100E-07
     TRS4 it   6 1.00000000   0.960E-02       0.001       32.256   0.100E-07
     TRS4 it   7 1.00000000   0.228E-03       0.001       32.256   0.100E-07
     TRS4 it   8 1.00000000   0.179E-06       0.001       32.256   0.100E-07
     TRS4 it   9 1.00000000   0.136E-12       0.001       32.256   0.100E-07
     Final TRS4 iteration    9 1.00000000   0.136E-12
     Chemical potential (mu):       0.01175
 
 PAO| energy:  -7.8037536746437635      penalty:   1.3111736902217459E-005
 PAO|LS| adapt:  T T F
 PAO|LS| adapt: scan_steps:    0.0000000000000000       0.44241820197054738        0.0000000000000000     
 PAO|LS| adapt: energies:   -7.8037499286654617       -7.8037536746437635        0.0000000000000000     
 PAO| ======================= Iteration:        27 =============================

     Lanczos converged:  T threshold:   0.100E-02
     Est. extremal eigenvalues:    0.277E+01   0.179E+00
     Est. condition number :    0.155E+02

 Order=           3
     NS sqrt iter    1 1.00000000   0.704E+00       0.001       59.150
     NS sqrt iter    2 1.00000000   0.329E+00       0.001       99.688
     NS sqrt iter    3 1.00000000   0.756E-01       0.001      100.228
     NS sqrt iter    4 1.00000000   0.192E-02       0.001      100.109
     NS sqrt iter    5 1.00000000   0.659E-07       0.001       68.619
     Symmetrizing Results
     Final NS sqrt iter    5 1.00000000   0.868E-09

     Est. extremal eigenvalues     -0.93728     1.73118  converged:  T
     TRS4 it   1 1.00000000   0.887E+00       0.000       16.128   0.100E-07
     TRS4 it   2 1.00000000   0.628E+00       0.001       32.256   0.100E-07
     TRS4 it   3 1.00000000   0.428E+00       0.001       32.256   0.100E-07
     TRS4 it   4 1.00000000   0.219E+00       0.001       32.256   0.100E-07
     TRS4 it   5 1.00000000   0.715E-01       0.001       32.256   0.100E-07
     TRS4 it   6 1.00000000   0.958E-02       0.001       32.256   0.100E-07
     TRS4 it   7 1.00000000   0.227E-03       0.001       32.256   0.100E-07
     TRS4 it   8 1.00000000   0.177E-06       0.001       32.256   0.100E-07
     TRS4 it   9 1.00000000   0.132E-12       0.001       32.256   0.100E-07
     Final TRS4 iteration    9 1.00000000   0.132E-12
     Chemical potential (mu):       0.01185
 
 PAO| energy:  -7.8036949337403669      penalty:   1.2413515592645502E-005
 PAO|LS| adapt:  T T T
 PAO|LS| adapt: scan_steps:    0.0000000000000000       0.44241820197054738       0.88483640394109475     
 PAO|LS| adapt: energies:   -7.8037499286654617       -7.8037536746437635       -7.8036949337403669     
 PAO|LS| adapt: suggested step_size:   0.24773129156109100     
 PAO|LS| adapt: predicted energy  -7.8037597247972190     
 PAO| ======================= Iteration:        28 =============================

     Lanczos converged:  T threshold:   0.100E-02
     Est. extremal eigenvalues:    0.277E+01   0.178E+00
     Est. condition number :    0.155E+02

 Order=           3
     NS sqrt iter    1 1.00000000   0.704E+00       0.001       59.608
     NS sqrt iter    2 1.00000000   0.329E+00       0.001       99.651
     NS sqrt iter    3 1.00000000   0.757E-01       0.001       97.657
     NS sqrt iter    4 1.00000000   0.193E-02       0.001      100.498
     NS sqrt iter    5 1.00000000   0.670E-07       0.001       69.719
     Symmetrizing Results
     Final NS sqrt iter    5 1.00000000   0.562E-09

     Est. extremal eigenvalues     -0.93728     1.73192  converged:  T
     TRS4 it   1 1.00000000   0.888E+00       0.000       16.128   0.100E-07
     TRS4 it   2 1.00000000   0.628E+00       0.001       32.256   0.100E-07
     TRS4 it   3 1.00000000   0.428E+00       0.001       32.256   0.100E-07
     TRS4 it   4 1.00000000   0.219E+00       0.001       32.256   0.100E-07
     TRS4 it   5 1.00000000   0.716E-01       0.001       32.256   0.100E-07
     TRS4 it   6 1.00000000   0.961E-02       0.001       32.256   0.100E-07
     TRS4 it   7 1.00000000   0.229E-03       0.001       32.256   0.100E-07
     TRS4 it   8 1.00000000   0.180E-06       0.001       32.256   0.100E-07
     TRS4 it   9 1.00000000   0.138E-12       0.001       32.256   0.100E-07
     Final TRS4 iteration    9 1.00000000   0.138E-12
     Chemical potential (mu):       0.01170
 
 PAO| energy:  -7.8037597157193774      penalty:   1.3426443681301392E-005
 PAO|CG| trace_G_new    3.1083748968022842E-005
 PAO|CG| trace_G_prev    7.8847430921092198E-005
 PAO|CG| trace_G_mix    4.5774810338567060E-008
 PAO|CG| trace_D    1.1798132356008066E-004
 PAO|CG| trace_D_Gnew  -2.4253130698778406E-008
 PAO|CG| beta:   0.39364597926780920     
 PAO| norm of gradient:   5.5752801694643871E-003
 PAO| energy improvement:  -9.7870539157440817E-006
 PAO| step     28                   -7.803759716  0.348E-03  0.248E+00     0.058
 PAO|LS| adapt:  T F F
 PAO|LS| adapt: scan_steps:    0.0000000000000000        0.0000000000000000        0.0000000000000000     
 PAO|LS| adapt: energies:   -7.8037597157193774        0.0000000000000000        0.0000000000000000     
 PAO| ======================= Iteration:        29 =============================

     Lanczos converged:  T threshold:   0.100E-02
     Est. extremal eigenvalues:    0.277E+01   0.178E+00
     Est. condition number :    0.155E+02

 Order=           3
     NS sqrt iter    1 1.00000000   0.704E+00       0.001       58.904
     NS sqrt iter    2 1.00000000   0.329E+00       0.001      100.482
     NS sqrt iter    3 1.00000000   0.757E-01       0.001      100.164
     NS sqrt iter    4 1.00000000   0.193E-02       0.001       97.789
     NS sqrt iter    5 1.00000000   0.666E-07       0.001       68.947
     Symmetrizing Results
     Final NS sqrt iter    5 1.00000000   0.875E-09

     Est. extremal eigenvalues     -0.93728     1.73174  converged:  T
     TRS4 it   1 1.00000000   0.888E+00       0.000       16.128   0.100E-07
     TRS4 it   2 1.00000000   0.628E+00       0.001       32.256   0.100E-07
     TRS4 it   3 1.00000000   0.428E+00       0.001       32.256   0.100E-07
     TRS4 it   4 1.00000000   0.219E+00       0.001       32.256   0.100E-07
     TRS4 it   5 1.00000000   0.715E-01       0.001       32.256   0.100E-07
     TRS4 it   6 1.00000000   0.958E-02       0.001       32.256   0.100E-07
     TRS4 it   7 1.00000000   0.227E-03       0.001       32.256   0.100E-07
     TRS4 it   8 1.00000000   0.178E-06       0.001       32.256   0.100E-07
     TRS4 it   9 1.00000000   0.135E-12       0.001       32.256   0.100E-07
     Final TRS4 iteration    9 1.00000000   0.135E-12
     Chemical potential (mu):       0.01183
 
 PAO| energy:  -7.8037664986524673      penalty:   1.3000348191263014E-005
 PAO|LS| adapt:  T T F
 PAO|LS| adapt: scan_steps:    0.0000000000000000       0.24773129156109100        0.0000000000000000     
 PAO|LS| adapt: energies:   -7.8037597157193774       -7.8037664986524673        0.0000000000000000     
 PAO| ======================= Iteration:        30 =============================

     Lanczos converged:  T threshold:   0.100E-02
     Est. extremal eigenvalues:    0.277E+01   0.178E+00
     Est. condition number :    0.155E+02

 Order=           3
     NS sqrt iter    1 1.00000000   0.704E+00       0.001       59.515
     NS sqrt iter    2 1.00000000   0.329E+00       0.001      100.911
     NS sqrt iter    3 1.00000000   0.756E-01       0.001       98.789
     NS sqrt iter    4 1.00000000   0.192E-02       0.001      100.311
     NS sqrt iter    5 1.00000000   0.663E-07       0.001       69.359
     Symmetrizing Results
     Final NS sqrt iter    5 1.00000000   0.866E-09

     Est. extremal eigenvalues     -0.93728     1.73156  converged:  T
     TRS4 it   1 1.00000000   0.888E+00       0.000       16.128   0.100E-07
     TRS4 it   2 1.00000000   0.628E+00       0.001       32.256   0.100E-07
     TRS4 it   3 1.00000000   0.428E+00       0.001       32.256   0.100E-07
     TRS4 it   4 1.00000000   0.219E+00       0.001       32.256   0.100E-07
     TRS4 it   5 1.00000000   0.714E-01       0.001       32.256   0.100E-07
     TRS4 it   6 1.00000000   0.956E-02       0.001       32.256   0.100E-07
     TRS4 it   7 1.00000000   0.226E-03       0.001       32.256   0.100E-07
     TRS4 it   8 1.00000000   0.176E-06       0.001       32.256   0.100E-07
     TRS4 it   9 1.00000000   0.130E-12       0.001       32.256   0.100E-07
     Final TRS4 iteration    9 1.00000000   0.130E-12
     Chemical potential (mu):       0.01194
 
 PAO| energy:  -7.8037714420757682      penalty:   1.2581893933839458E-005
 PAO|LS| adapt:  T T F
 PAO|LS| adapt: scan_steps:    0.0000000000000000       0.49546258312218200        0.0000000000000000     
 PAO|LS| adapt: energies:   -7.8037597157193774       -7.8037714420757682        0.0000000000000000     
 PAO| ======================= Iteration:        31 =============================

     Lanczos converged:  T threshold:   0.100E-02
     Est. extremal eigenvalues:    0.276E+01   0.179E+00
     Est. condition number :    0.155E+02

 Order=           3
     NS sqrt iter    1 1.00000000   0.704E+00       0.001       59.543
     NS sqrt iter    2 1.00000000   0.328E+00       0.001       99.243
     NS sqrt iter    3 1.00000000   0.755E-01       0.001       99.711
     NS sqrt iter    4 1.00000000   0.192E-02       0.001       99.690
     NS sqrt iter    5 1.00000000   0.657E-07       0.001       69.412
     Symmetrizing Results
     Final NS sqrt iter    5 1.00000000   0.857E-09

     Est. extremal eigenvalues     -0.93729     1.73120  converged:  T
     TRS4 it   1 1.00000000   0.888E+00       0.000       16.128   0.100E-07
     TRS4 it   2 1.00000000   0.627E+00       0.001       32.256   0.100E-07
     TRS4 it   3 1.00000000   0.428E+00       0.001       32.256   0.100E-07
     TRS4 it   4 1.00000000   0.219E+00       0.001       32.256   0.100E-07
     TRS4 it   5 1.00000000   0.712E-01       0.001       32.256   0.100E-07
     TRS4 it   6 1.00000000   0.951E-02       0.001       32.256   0.100E-07
     TRS4 it   7 1.00000000   0.224E-03       0.001       32.256   0.100E-07
     TRS4 it   8 1.00000000   0.171E-06       0.001       32.256   0.100E-07
     TRS4 it   9 1.00000000   0.124E-12       0.001       32.256   0.100E-07
     Final TRS4 iteration    9 1.00000000   0.124E-12
     Chemical potential (mu):       0.01219
 
 PAO| energy:  -7.8037758107606505      penalty:   1.1767759580495522E-005
 PAO|LS| Need extra step
 PAO|LS| adapt:  T T F
 PAO|LS| adapt: scan_steps:    0.0000000000000000       0.99092516624436400        0.0000000000000000     
 PAO|LS| adapt: energies:   -7.8037597157193774       -7.8037758107606505        0.0000000000000000     
 PAO| ======================= Iteration:        32 =============================

     Lanczos converged:  T threshold:   0.100E-02
     Est. extremal eigenvalues:    0.276E+01   0.179E+00
     Est. condition number :    0.155E+02

 Order=           3
[...]
     Symmetrizing Results
     Final NS sqrt iter    5 1.00000000   0.323E-09

     Est. extremal eigenvalues     -0.93697     1.62844  converged:  T
     TRS4 it   1 1.00000000   0.881E+00       0.000       16.128   0.100E-07
     TRS4 it   2 1.00000000   0.633E+00       0.000       32.256   0.100E-07
     TRS4 it   3 1.00000000   0.454E+00       0.000       32.256   0.100E-07
     TRS4 it   4 1.00000000   0.277E+00       0.000       32.256   0.100E-07
     TRS4 it   5 1.00000000   0.136E+00       0.000       32.256   0.100E-07
     TRS4 it   6 1.00000000   0.423E-01       0.000       32.256   0.100E-07
     TRS4 it   7 1.00000000   0.565E-02       0.000       32.256   0.100E-07
     TRS4 it   8 1.00000000   0.135E-03       0.000       32.256   0.100E-07
     TRS4 it   9 1.00000000   0.818E-07       0.000       32.256   0.100E-07
     TRS4 it  10 1.00000000   0.300E-13       0.000       32.256   0.100E-07
     Final TRS4 iteration   10 1.00000000   0.300E-13
     Chemical potential (mu):      -0.07454
 
 PAO| energy:  -7.8028435496666964      penalty:   2.9505905899785394E-008
 PAO|CG| warming up with steepest descent
 PAO|CG| beta:    0.0000000000000000     
 PAO| norm of gradient:   1.5052201054777280E-004
 PAO| energy improvement:  -6.0310521021733621E-009
 PAO| step    409                   -7.802843550  0.941E-05  0.265E+00     0.057
 PAO| converged after          409  steps :-)
 PAO| Recalculating energy after mixing.

     Lanczos converged:  T threshold:   0.100E-02
     Est. extremal eigenvalues:    0.249E+01   0.191E+00
     Est. condition number :    0.130E+02

 Order=           3
     NS sqrt iter    1 1.00000000   0.631E+00       0.001       64.512
     NS sqrt iter    2 1.00000000   0.274E+00       0.001      110.592
     NS sqrt iter    3 1.00000000   0.483E-01       0.001      110.592
     NS sqrt iter    4 1.00000000   0.749E-03       0.001      110.592
     NS sqrt iter    5 1.00000000   0.551E-08       0.001       38.272
     Symmetrizing Results
     Final NS sqrt iter    5 1.00000000   0.323E-09

     Est. extremal eigenvalues     -0.93697     1.62844  converged:  T
     TRS4 it   1 1.00000000   0.881E+00       0.000       16.128   0.100E-07
     TRS4 it   2 1.00000000   0.633E+00       0.000       32.256   0.100E-07
     TRS4 it   3 1.00000000   0.454E+00       0.001       32.256   0.100E-07
     TRS4 it   4 1.00000000   0.277E+00       0.000       32.256   0.100E-07
     TRS4 it   5 1.00000000   0.136E+00       0.000       32.256   0.100E-07
     TRS4 it   6 1.00000000   0.423E-01       0.000       32.256   0.100E-07
     TRS4 it   7 1.00000000   0.565E-02       0.000       32.256   0.100E-07
     TRS4 it   8 1.00000000   0.135E-03       0.001       32.256   0.100E-07
     TRS4 it   9 1.00000000   0.818E-07       0.001       32.256   0.100E-07
     TRS4 it  10 1.00000000   0.310E-13       0.001       32.256   0.100E-07
     Final TRS4 iteration   10 1.00000000   0.310E-13
     Chemical potential (mu):      -0.07454
 
 PAO| energy:  -7.8028435481589193      penalty:   2.9822821099044410E-008
 PAO| Writing restart file.
     Est. extremal eigenvalues     -0.93697     1.62844  converged:  T
     TRS4 it   1 1.00000000   0.881E+00       0.000       16.128   0.100E-07
     TRS4 it   2 1.00000000   0.633E+00       0.000       32.256   0.100E-07
     TRS4 it   3 1.00000000   0.454E+00       0.000       32.256   0.100E-07
     TRS4 it   4 1.00000000   0.277E+00       0.000       32.256   0.100E-07
     TRS4 it   5 1.00000000   0.136E+00       0.000       32.256   0.100E-07
     TRS4 it   6 1.00000000   0.423E-01       0.000       32.256   0.100E-07
     TRS4 it   7 1.00000000   0.565E-02       0.000       32.256   0.100E-07
     TRS4 it   8 1.00000000   0.135E-03       0.000       32.256   0.100E-07
     TRS4 it   9 1.00000000   0.818E-07       0.000       32.256   0.100E-07
     TRS4 it  10 1.00000000   0.310E-13       0.000       32.256   0.100E-07
     Final TRS4 iteration   10 1.00000000   0.310E-13
     Chemical potential (mu):      -0.07454

 SCF     1       -34.450172566       -34.450172566    1.865144

*********************************************************
 Using MIXING_FRACTION=0.450 to mix KS matrix:  iscf=  2
 KS_nw=0.450*KS + 0.550*KS_old
*********************************************************
     Est. extremal eigenvalues     -0.93698     1.62844  converged:  T
     TRS4 it   1 1.00000000   0.881E+00       0.000       16.128   0.100E-07
     TRS4 it   2 1.00000000   0.633E+00       0.000       32.256   0.100E-07
     TRS4 it   3 1.00000000   0.454E+00       0.000       32.256   0.100E-07
     TRS4 it   4 1.00000000   0.277E+00       0.000       32.256   0.100E-07
     TRS4 it   5 1.00000000   0.136E+00       0.000       32.256   0.100E-07
     TRS4 it   6 1.00000000   0.423E-01       0.000       32.256   0.100E-07
     TRS4 it   7 1.00000000   0.565E-02       0.000       32.256   0.100E-07
     TRS4 it   8 1.00000000   0.135E-03       0.000       32.256   0.100E-07
     TRS4 it   9 1.00000000   0.819E-07       0.000       32.256   0.100E-07
     TRS4 it  10 1.00000000   0.294E-13       0.000       32.256   0.100E-07
     Final TRS4 iteration   10 1.00000000   0.294E-13
     Chemical potential (mu):      -0.07454

 SCF     2       -34.450172566        -0.000000000    2.079990


 SCF run converged in     2 steps.

 PAO| Storing density matrix for ASPC guess in slot:           1

 ENERGY| Total FORCE_EVAL ( QS ) energy [a.u.]:              -34.450172566155153

 -------------------------------------------------------------------------------
 -                                                                             -
 -                                DBCSR STATISTICS                             -
 -                                                                             -
 -------------------------------------------------------------------------------
 COUNTER                                    TOTAL       BLAS       SMM       ACC
 flops     5 x     5 x     4                20000       0.0%    100.0%      0.0%
 flops    13 x     5 x     4                20800       0.0%    100.0%      0.0%
 flops     5 x    13 x     4                20800       0.0%    100.0%      0.0%
 flops    13 x    13 x     4                40560       0.0%    100.0%      0.0%
 flops     4 x     4 x     5              3214080       0.0%    100.0%      0.0%
 flops     5 x     4 x     5              3926400       0.0%    100.0%      0.0%
 flops     4 x     4 x    13              4178304       0.0%    100.0%      0.0%
 flops    13 x     4 x     5              5104320       0.0%    100.0%      0.0%
 flops     5 x     4 x    13              5104320       0.0%    100.0%      0.0%
 flops     5 x     4 x     4              6372960       0.0%    100.0%      0.0%
 flops    13 x     4 x    13              6635616       0.0%    100.0%      0.0%
 flops    13 x     4 x     4              8512192       0.0%    100.0%      0.0%
 flops     4 x     4 x     4            412718720       0.0%    100.0%      0.0%
 flops inhomo. stacks                           0       0.0%      0.0%      0.0%
 flops total                       455.869072E+06       0.0%    100.0%      0.0%
 flops max/rank                    455.869072E+06       0.0%    100.0%      0.0%
 matmuls inhomo. stacks                         0       0.0%      0.0%      0.0%
 matmuls total                            3359172       0.0%    100.0%      0.0%
 number of processed stacks                 26799       0.0%    100.0%      0.0%
 average stack size                                     0.0     125.3       0.0
 marketing flops                   740.362944E+06
 -------------------------------------------------------------------------------
 # multiplications                          22337
 max memory usage/rank             506.429440E+06
 # max total images/rank                        1
 # max 3D layers                                1
 # MPI messages exchanged                       0
 -------------------------------------------------------------------------------

 -------------------------------------------------------------------------------
 -                                                                             -
 -                                DBM STATISTICS                               -
 -                                                                             -
 -------------------------------------------------------------------------------
    M  x    N  x    K                                          COUNT     PERCENT
 -------------------------------------------------------------------------------

 -------------------------------------------------------------------------------
 -                                                                             -
 -                                GRID STATISTICS                              -
 -                                                                             -
 -------------------------------------------------------------------------------
 LP    KERNEL             BACKEND                              COUNT     PERCENT
 2     collocate ortho    REF                                  37920      30.67%
 2     integrate ortho    REF                                  37920      30.67%
 3     collocate ortho    REF                                  19640      15.89%
 3     integrate ortho    REF                                  19640      15.89%
 4     collocate ortho    REF                                   4250       3.44%
 4     integrate ortho    REF                                   4250       3.44%
 0     collocate general  REF                                      6       0.00%
 -------------------------------------------------------------------------------

 MEMORY| Estimated peak process memory [MiB]                                 483

 -------------------------------------------------------------------------------
 -                                                                             -
 -                           R E F E R E N C E S                               -
 -                                                                             -
 -------------------------------------------------------------------------------
 
 CP2K version 2023.1 (Development Version), the CP2K developers group (2023).
 CP2K is freely available from https://www.cp2k.org/ .

 Kuehne,Thomas D.; Iannuzzi,Marcella; Del Ben,Mauro;
 Rybkin,Vladimir V.; Seewald,Patrick; Stein,Frederick; Laino,Teodoro;
 Khaliullin,Rustam Z.; Schuett,Ole; Schiffmann,Florian; Golze,Dorothea;
 Wilhelm,Jan; Chulkov,Sergey; Bani-Hashemian,Mohammad Hossein;
 Weber,Valery; Borstnik,Urban; Taillefumier,Mathieu;
 Jakobovits,Alice Shoshana; Lazzaro,Alfio; Pabst,Hans; Mueller,Tiziano;
 Schade,Robert; Guidon,Manuel; Andermatt,Samuel; Holmberg,Nico;
 Schenter,Gregory K.; Hehn,Anna; Bussy,Augustin; Belleflamme,Fabian;
 Tabacchi,Gloria; Gloess,Andreas; Lass,Michael; Bethune,Iain;
 Mundy,Christopher J.; Plessl,Christian; Watkins,Matt;
 VandeVondele,Joost; Krack,Matthias; Hutter,Juerg. 
 The Journal of Chemical Physics, 152 (19), (2020). 
 CP2K: An electronic structure and molecular dynamics software package -
 Quickstep: Efficient and accurate electronic structure calculations.
 https://doi.org/10.1063/5.0007045

 Schuett, O; VandeVondele, J. 
 Journal of Chemical Theory and Computation, 14, (2018). 
 Machine Learning Adaptive Basis Sets for Efficient Large Scale
 Density Functional Theory Simulation.
 https://doi.org/10.1021/acs.jctc.8b00378

 Schuett, Ole; Messmer, Peter; Hutter, Juerg; VandeVondele, Joost. 
 Electronic Structure Calculations on Graphics Processing Units, John
 Wiley & Sons, Ltd, 173-190 (2016). 
 GPU-Accelerated Sparse Matrix-Matrix Multiplication for
 Linear Scaling Density Functional Theory.
 https://doi.org/10.1002/9781118670712.ch8

 Heinecke, A; Henry, G; Hutchinson, M; Pabst, H. 
 Proceedings of Intl. Supercomputing Conference, 981-991 (2016). 
 LIBXSMM: Accelerating Small Matrix Multiplications
 by Runtime Code Generation.
 https://doi.org/10.1109/SC.2016.83

 Borstnik, U; VandeVondele, J; Weber, V; Hutter, J. 
 PARALLEL COMPUTING, 40 (5-6), 47-58 (2014). 
 Sparse matrix multiplication: The distributed block-compressed sparse
 row library.
 https://doi.org/10.1016/j.parco.2014.03.012

 Hutter, J; Iannuzzi, M; Schiffmann, F; VandeVondele, J. 
 WIREs Comput Mol Sci., 4 (1), 15-25 (2014). 
 CP2K: atomistic simulations of condensed matter systems.
 https://doi.org/10.1002/wcms.1159

 VandeVondele, J; Borstnik, U; Hutter, J. 
 JOURNAL OF CHEMICAL THEORY AND COMPUTATION, 8 (10), 3565-3573 (2012). 
 Linear Scaling Self-Consistent Field Calculations with Millions of Atoms
 in the Condensed Phase.
 https://doi.org/10.1021/ct200897x

 VandeVondele, J; Hutter, J. 
 JOURNAL OF CHEMICAL PHYSICS, 127 (11), 114105 (2007). 
 Gaussian basis sets for accurate calculations on molecular systems in
 gas and condensed phases.
 https://doi.org/10.1063/1.2770708

 Krack, M. 
 THEORETICAL CHEMISTRY ACCOUNTS, 114 (1-3), 145-152 (2005). 
 Pseudopotentials for H to Kr optimized for gradient-corrected
 exchange-correlation functionals.
 https://doi.org/10.1007/s00214-005-0655-y

 VandeVondele, J; Krack, M; Mohamed, F; Parrinello, M; Chassaing, T;
 Hutter, J. COMPUTER PHYSICS COMMUNICATIONS, 167 (2), 103-128 (2005). 
 QUICKSTEP: Fast and accurate density functional calculations using a
 mixed Gaussian and plane waves approach.
 https://doi.org/10.1016/j.cpc.2004.12.014

 Frigo, M; Johnson, SG. 
 PROCEEDINGS OF THE IEEE, 93 (2), 216-231 (2005). 
 The design and implementation of FFTW3.
 https://doi.org/10.1109/JPROC.2004.840301

 Niklasson, AMN; Tymczak, CJ; Challacombe, M. 
 JOURNAL OF CHEMICAL PHYSICS, 118 (19), 8611-8620 (2003). 
 Trace resetting density matrix purification in O(N)
 self-consistent-field theory.
 https://doi.org/10.1063/1.1559913

 Hartwigsen, C; Goedecker, S; Hutter, J. 
 PHYSICAL REVIEW B, 58 (7), 3641-3662 (1998). 
 Relativistic separable dual-space Gaussian pseudopotentials from H to Rn.
 https://doi.org/10.1103/PhysRevB.58.3641

 Lippert, G; Hutter, J; Parrinello, M. 
 MOLECULAR PHYSICS, 92 (3), 477-487 (1997). 
 A hybrid Gaussian and plane wave density functional scheme.
 https://doi.org/10.1080/002689797170220

 Perdew, JP; Burke, K; Ernzerhof, M. 
 PHYSICAL REVIEW LETTERS, 77 (18), 3865-3868 (1996). 
 Generalized gradient approximation made simple.
 https://doi.org/10.1103/PhysRevLett.77.3865

 Goedecker, S; Teter, M; Hutter, J. 
 PHYSICAL REVIEW B, 54 (3), 1703-1710 (1996). 
 Separable dual-space Gaussian pseudopotentials.
 https://doi.org/10.1103/PhysRevB.54.1703


 -------------------------------------------------------------------------------
 -                                                                             -
 -                                T I M I N G                                  -
 -                                                                             -
 -------------------------------------------------------------------------------
 SUBROUTINE                       CALLS  ASD         SELF TIME        TOTAL TIME
                                MAXIMUM       AVERAGE  MAXIMUM  AVERAGE  MAXIMUM
 CP2K                                 1  1.0    0.012    0.012   37.564   37.564
 qs_energies                          1  2.0    0.000    0.000   36.915   36.915
 ls_scf                               1  3.0    0.000    0.000   36.648   36.648
 ls_scf_main                          4  4.0    0.001    0.001   24.826   24.826
 ls_scf_dm_to_ks                      9  5.0    0.000    0.000   24.754   24.754
 qs_ks_update_qs_env                 10  6.0    0.000    0.000   22.639   22.639
 rebuild_ks_matrix                   10  7.0    0.000    0.000   22.638   22.638
 qs_ks_build_kohn_sham_matrix        10  8.0    0.003    0.003   22.638   22.638
 qs_vxc_create                       10  9.0    0.001    0.001   14.808   14.808
 xc_vxc_pw_create                    10 10.0    0.277    0.277   14.807   14.807
 pw_transfer                        191 11.1    0.032    0.032   13.285   13.285
 fft_wrap_pw1pw2                    171 12.3    0.004    0.004   12.830   12.830
 fft_wrap_pw1pw2_200                111 13.7    1.422    1.422   12.419   12.419
 xc_pw_derive                        60 12.0    0.002    0.002    9.377    9.377
 xc_rho_set_and_dset_create          10 11.0    0.350    0.350    8.214    8.214
 pao_update                           4  4.0    0.008    0.008    7.892    7.892
 pao_calc_energy                    412  5.0    0.003    0.003    7.144    7.144
 xc_pw_divergence                    10 11.0    0.001    0.001    6.104    6.104
 qs_rho_update_rho_low               10  6.0    0.000    0.000    5.995    5.995
 calculate_rho_elec                  10  7.0    0.055    0.055    5.995    5.995
 fft3d_s                            172 14.2    5.686    5.686    5.729    5.729
 dbcsr_multiply_generic           22337  8.4    0.355    0.355    5.665    5.665
 sum_up_and_integrate                10  9.0    0.200    0.200    5.147    5.147
 integrate_v_rspace                  10 10.0    0.001    0.001    4.947    4.947
 pao_guess_initial_P                  1  4.0    0.000    0.000    3.886    3.886
 pao_read_preopt_dm                   1  5.0    0.000    0.000    3.886    3.886
 pao_dm_trs4                        412  6.0    0.002    0.002    3.703    3.703
 grid_integrate_task_list            10 11.0    3.615    3.615    3.615    3.615
 density_matrix_trs4                421  7.0    0.115    0.115    3.557    3.557
 ls_scf_init_matrix_S               416  7.0    0.002    0.002    3.418    3.418
 pao_rebuild_S                      412  6.0    0.001    0.001    3.391    3.391
 grid_collocate_task_list            10  8.0    3.301    3.301    3.301    3.301
 matrix_sqrt_Newton_Schulz          416  8.0    0.074    0.074    3.090    3.090
 pw_scatter_s                        90 14.7    3.083    3.083    3.083    3.083
 density_rs2pw                       10  8.0    0.001    0.001    2.639    2.639
 xc_functional_eval                  10 12.0    0.000    0.000    2.633    2.633
 pbe_lda_eval                        10 13.0    2.632    2.632    2.632    2.632
 pw_gather_s                         81 13.8    2.544    2.544    2.544    2.544
 make_m2s                         44674  9.4    0.135    0.135    2.122    2.122
 multiply_cannon                  22337  9.4    0.876    0.876    2.118    2.118
 make_images                      44674 10.4    0.526    0.526    1.881    1.881
 pw_derive                           60 13.0    1.848    1.848    1.848    1.848
 pw_copy                            120 11.8    1.415    1.415    1.415    1.415
 potential_pw2rs                     10 11.0    0.003    0.003    1.331    1.331
 arnoldi_extremal                   837  8.5    0.003    0.003    1.129    1.129
 arnoldi_normal_ev                  837  9.5    0.009    0.009    1.126    1.126
 pw_poisson_solve                    10  9.0    0.188    0.188    1.026    1.026
 pw_axpy                             90 10.3    0.951    0.951    0.951    0.951
 build_subspace                     837 10.5    0.045    0.045    0.885    0.885
 dbcsr_matrix_vector_mult         20063 11.5    0.094    0.094    0.820    0.820
 -------------------------------------------------------------------------------

 The number of warnings for this run is : 0
 
 -------------------------------------------------------------------------------
  **** **** ******  **  PROGRAM ENDED AT                 2023-02-01 10:44:32.775
 ***** ** ***  *** **   PROGRAM RAN ON                                    moritz
 **    ****   ******    PROGRAM RAN BY                                       ole
 ***** **    ** ** **   PROGRAM PROCESS ID                                148501
  **** **  *******  **  PROGRAM STOPPED IN /home/ole/git/pao_ml_equivar/2H2O_rot
                                           ations/rand_06
