6
Properties=species:S:1:pos:R:3 i=0 time=0.0 E=-34.4504806384 pbc="F F F"
O       -4.83013879      -1.40198627       4.18798341
H       -4.78507455      -2.13009331       3.55939901
H       -3.98267896      -0.95106336       4.12009115
O       -7.01443911       0.48107575       3.36214595
H       -7.66045404       0.58426023       4.06651990
H       -6.35200243      -0.13670186       3.70849471
