6
Properties=species:S:1:pos:R:3 i=0 time=0.0 E=-34.4504806384 pbc="F F F"
O      -5.84322078      -1.43526672      -2.57522651 
H      -5.81037197      -1.85141518      -1.70745326 
H      -5.15698471      -0.76068819      -2.56286294 
O      -5.17964259      -3.47410216      -4.67329991 
H      -5.89312229      -3.55006023      -5.31306713 
H      -5.47332808      -2.80258579      -4.03828527 
