 DBCSR| CPU Multiplication driver                                           BLAS
 DBCSR| Multrec recursion limit                                              512
 DBCSR| Multiplication stack size                                           1000
 DBCSR| Maximum elements for images                                    UNLIMITED
 DBCSR| Multiplicative factor virtual images                                   1
 DBCSR| Use multiplication densification                                       T
 DBCSR| Multiplication size stacks                                             3


  **** **** ******  **  PROGRAM STARTED AT               2019-03-28 17:33:26.986
 ***** ** ***  *** **   PROGRAM STARTED ON        oleschuett.zrh.corp.google.com
 **    ****   ******    PROGRAM STARTED BY                            oleschuett
 ***** **    ** ** **   PROGRAM PROCESS ID                                 34087
  **** **  *******  **  PROGRAM STARTED IN /usr/local/google/home/oleschuett/git
                                           /pao_ml_equivar/2H2O_rotations/phi_33

 CP2K| version string:                    CP2K version 7.0 (Development Version)
 CP2K| source code revision number:                                git:d9814d431
 CP2K| cp2kflags: libint fftw3 libxc libderiv_max_am1=5 libint_max_am=6         
 CP2K| is freely available from                            https://www.cp2k.org/
 CP2K| Program compiled at                          Mon Mar 25 16:50:07 CET 2019
 CP2K| Program compiled on                        oleschuett.zrh.corp.google.com
 CP2K| Program compiled for                                                local
 CP2K| Data directory path       /usr/local/google/home/oleschuett/git/cp2k/data
 CP2K| Input file name                                            2H2O_pao44.inp

 GLOBAL| Force Environment number                                              1
 GLOBAL| Basis set file name                                        BASIS_MOLOPT
 GLOBAL| Potential file name                                      GTH_POTENTIALS
 GLOBAL| MM Potential file name                                     MM_POTENTIAL
 GLOBAL| Coordinate file name                                         coords.xyz
 GLOBAL| Method name                                                        CP2K
 GLOBAL| Project name                                                 2H2O_pao44
 GLOBAL| Preferred FFT library                                             FFTW3
 GLOBAL| Preferred diagonalization lib.                                       SL
 GLOBAL| Run type                                                         ENERGY
 GLOBAL| All-to-all communication in single precision                          F
 GLOBAL| FFTs using library dependent lengths                                  F
 GLOBAL| Global print level                                                  LOW
 GLOBAL| MPI I/O enabled                                                       T
 GLOBAL| Total number of message passing processes                             1
 GLOBAL| Number of threads for this process                                    1
 GLOBAL| This output is from process                                           0
 GLOBAL| CPU model name :  Intel(R) Xeon(R) CPU E5-1650 v4 @ 3.60GHz

 MEMORY| system memory details [Kb]
 MEMORY|                        rank 0           min           max       average
 MEMORY| MemTotal             65953612      65953612      65953612      65953612
 MEMORY| MemFree               4763716       4763716       4763716       4763716
 MEMORY| Buffers               2543220       2543220       2543220       2543220
 MEMORY| Cached               25366384      25366384      25366384      25366384
 MEMORY| Slab                  3622452       3622452       3622452       3622452
 MEMORY| SReclaimable          2421472       2421472       2421472       2421472
 MEMORY| MemLikelyFree        35094792      35094792      35094792      35094792


 GENERATE|  Preliminary Number of Bonds generated:                             0
 GENERATE|  Achieved consistency in connectivity generation.

 *******************************************************************************
 *******************************************************************************
 **                                                                           **
 **     #####                         ##              ##                      **
 **    ##   ##            ##          ##              ##                      **
 **   ##     ##                       ##            ######                    **
 **   ##     ##  ##   ##  ##   #####  ##  ##   ####   ##    #####    #####    **
 **   ##     ##  ##   ##  ##  ##      ## ##   ##      ##   ##   ##  ##   ##   **
 **   ##  ## ##  ##   ##  ##  ##      ####     ###    ##   ######   ######    **
 **    ##  ###   ##   ##  ##  ##      ## ##      ##   ##   ##       ##        **
 **     #######   #####   ##   #####  ##  ##  ####    ##    #####   ##        **
 **           ##                                                    ##        **
 **                                                                           **
 **                                                ... make the atoms dance   **
 **                                                                           **
 **            Copyright (C) by CP2K developers group (2000 - 2018)           **
 **                                                                           **
 *******************************************************************************


 TOTAL NUMBERS AND MAXIMUM NUMBERS

  Total number of            - Atomic kinds:                                   2
                             - Atoms:                                          6
                             - Shell sets:                                     6
                             - Shells:                                        22
                             - Primitive Cartesian functions:                 42
                             - Cartesian basis functions:                     48
                             - Spherical basis functions:                     46

  Maximum angular momentum of- Orbital basis functions:                        2
                             - Local part of the GTH pseudopotential:          2
                             - Non-local part of the GTH pseudopotential:      0

 ------------------------------ Linear scaling SCF -----------------------------
 eps_scf:                                                              0.100E-07
 eps_filter:                                                           0.100E-07
 mixing_fraction:                                                      0.450E+00
 max_scf:                                                                     25
 fixed chemical potential (mu)                                                 F
 has unit metric:                                                              F
 Computing inv(S):                                                             T
 Computing sqrt(S):                                                            T
 Computing s preconditioner                                                    F
 sign sqrt order:                                                              3
 Extrapolation order:                                                          1
 Use single precision matrices                                                 F
 S preconditioner type                                                      NONE
 Polarized Atomic Orbitals (PAO)                                               T
 Purification method                                   Trace resetting 4th order
 Cluster type                                                             ATOMIC
 Computing Chebyshev                                                       FALSE
 Using PAO                                                                     T
 -------------------------------------------------------------------------------

 
 PAO|                                  EPS_PAO                           0.1E-04
 PAO|                                  MIXING                            0.5E+00
 PAO|                                  MAX_PAO                              1000
 PAO|                                  MAX_CYCLES                           1000
 PAO|                                  PARAMETERIZATION                   DIRECT
 PAO|                                  PRECONDITION                            F
 PAO|                                  REGULARIZATION                    0.0E+00
 PAO|                                  EPS_PGF                           0.1E-09
 PAO|                                  PENALTY_DISTANCE                  0.1E+00
 PAO|                                  PENALTY_STRENGTH                  0.5E-02
 PAO|                                  LINPOT_PRECONDITION_DELTA         0.0E+00
 PAO|                                  LINPOT_INITGUESS_DELT             0.0E+00
 PAO|                                  LINPOT_REGULARIZATION_DELTA       0.0E+00
 PAO|                                  LINPOT_REGULARIZATION_STRENGTH    0.0E+00
 PAO|                                  OPTIMIZER                              CG
 PAO|                                  CG_INIT_STEPS                           2
 PAO|                                  CG_RESET_LIMIT                    0.1E+00
 PAO|                                  CHECK_UNITARY_TOL                -0.1E+01
 PAO|                                  CHECK_GRADIENT_TOL               -0.1E+01
 PAO|                                  NUM_GRADIENT_ORDER                      2
 PAO|                                  NUM_GRADIENT_EPS                  0.1E-07
 PAO|                                  PRINT%RESTART%WRITE_CYCLES            100
 PAO|                                  RESTART_FILE 
 PAO|                                  PREOPT_DM_FILE 2H2O_ref_LS_DM_SPIN_1_RESTART.dm
 PAO|                                  MACHINE_LEARNING%METHOD        GAUSSIAN_P
 PAO|                                  MACHINE_LEARNING%PRIOR               ZERO
 PAO|                                  MACHINE_LEARNING%DESCRIPTOR     POTENTIAL
 PAO|                                  MACHINE_LEARNING%TOLERANCE        0.1E-01
 PAO|                                  MACHINE_LEARNING%GP_NOISE_VAR     0.1E+00
 PAO|                                  MACHINE_LEARNING%GP_SCALE         0.5E-01
 

 Calculating atomic Fock matrix for atomic kind: O

 Electronic structure
    Total number of core electrons                                          2.00
    Total number of valence electrons                                       6.00
    Total number of electrons                                               8.00
    Multiplicity                                                   not specified
    S   [  2.00] 2.00
    P      4.00


 *******************************************************************************
                  Iteration          Convergence                     Energy [au]
 *******************************************************************************
                          1        0.708315                     -15.576645311500
                          2        0.608879                     -15.587933561584
                          3        0.102828E-01                 -15.656849565404
                          4        0.113889E-02                 -15.656866888140
                          5        0.434197E-03                 -15.656867072159
                          6        0.263771E-03                 -15.656867091904
                          7        0.478536E-06                 -15.656867103452

 Energy components [Hartree]           Total Energy ::          -15.656867103452
                                        Band Energy ::           -3.000198112285
                                     Kinetic Energy ::           11.759971203220
                                   Potential Energy ::          -27.416838306672
                                      Virial (-V/T) ::            2.331369510426
                                        Core Energy ::          -26.140716385623
                                          XC Energy ::           -3.154051012914
                                     Coulomb Energy ::           13.637900295084
                       Total Pseudopotential Energy ::          -37.935781716540
                       Local Pseudopotential Energy ::          -39.218907440693
                    Nonlocal Pseudopotential Energy ::            1.283125724153
                                        Confinement ::            0.350941276976

 Orbital energies  State     L     Occupation   Energy[a.u.]          Energy[eV]

                       1     0          2.000      -0.864471          -23.523463

                       1     1          4.000      -0.317814           -8.648154


 Total Electron Density at R=0:                                         0.000068

 Calculating atomic Fock matrix for atomic kind: H

 Electronic structure
    Total number of core electrons                                          0.00
    Total number of valence electrons                                       1.00
    Total number of electrons                                               1.00
    Multiplicity                                                   not specified
    S      1.00


 *******************************************************************************
                  Iteration          Convergence                     Energy [au]
 *******************************************************************************
                          1        0.437545E-02                  -0.424159432110
                          2        0.531356E-03                  -0.424178438213
                          3        0.259176E-06                  -0.424178722480

 Energy components [Hartree]           Total Energy ::           -0.424178722480
                                        Band Energy ::           -0.199015229016
                                     Kinetic Energy ::            0.464007633961
                                   Potential Energy ::           -0.888186356441
                                      Virial (-V/T) ::            1.914163240935
                                        Core Energy ::           -0.479160803564
                                          XC Energy ::           -0.244352904054
                                     Coulomb Energy ::            0.299334985138
                       Total Pseudopotential Energy ::           -0.962295316385
                       Local Pseudopotential Energy ::           -0.962295316385
                    Nonlocal Pseudopotential Energy ::            0.000000000000
                                        Confinement ::            0.191268788606

 Orbital energies  State     L     Occupation   Energy[a.u.]          Energy[eV]

                       1     0          1.000      -0.199015           -5.415480


 Total Electron Density at R=0:                                         0.242907
 PAO| Made initial guess for matrix_X with norm:   4.8989794855663558     

     Lanczos converged:  T threshold:   0.100E-02
     Est. extremal eigenvalues:    0.336E+01   0.114E+00
     Est. condition number :    0.294E+02
     NS sqrt iter    1 1.00000000   0.822E+00       0.002       35.324
     NS sqrt iter    2 1.00000000   0.440E+00       0.002       49.085
     NS sqrt iter    3 1.00000000   0.171E+00       0.002       60.787
     NS sqrt iter    4 1.00000000   0.207E-01       0.002       64.485
     NS sqrt iter    5 1.00000000   0.540E-04       0.002       52.841
     Final NS sqrt iter    5 1.00000000   0.364E-08

 PAO| Read restart DM 2H2O_ref_LS_DM_SPIN_1_RESTART.dm with checksum:    43.835666384924174     
 PAO| Quickstep energy from restart density:  -34.450792673415279     
 PAO| ======================= Iteration:         1 =============================

     Lanczos converged:  T threshold:   0.100E-02
     Est. extremal eigenvalues:    0.336E+01   0.114E+00
     Est. condition number :    0.294E+02
     NS sqrt iter    1 1.00000000   0.822E+00       0.002       41.309
     NS sqrt iter    2 1.00000000   0.440E+00       0.002       63.706
     NS sqrt iter    3 1.00000000   0.171E+00       0.002       60.626
     NS sqrt iter    4 1.00000000   0.207E-01       0.002       62.130
     NS sqrt iter    5 1.00000000   0.540E-04       0.002       55.817
     Final NS sqrt iter    5 1.00000000   0.364E-08

     Est. extremal eigenvalues     -0.91907     1.88844  converged:  T
     TRS4 it   1 1.00000000   0.887E+00       0.001       16.128   0.100E-07
     TRS4 it   2 1.00000000   0.693E+00       0.001       32.256   0.100E-07
     TRS4 it   3 1.00000000   0.499E+00       0.001       32.256   0.100E-07
     TRS4 it   4 1.00000000   0.312E+00       0.001       32.256   0.100E-07
     TRS4 it   5 1.00000000   0.154E+00       0.001       32.256   0.100E-07
     TRS4 it   6 1.00000000   0.481E-01       0.001       31.959   0.100E-07
     TRS4 it   7 1.00000000   0.646E-02       0.001       31.354   0.100E-07
     TRS4 it   8 1.00000000   0.164E-03       0.001       32.256   0.100E-07
     TRS4 it   9 1.00000000   0.120E-06       0.001       32.256   0.100E-07
     TRS4 it  10 1.00000000   0.654E-13       0.001       32.256   0.100E-07
     Final TRS4 iteration   10 1.00000000   0.654E-13
     Chemical potential (mu):      -0.06382
 
 PAO| energy:  -7.6142473776151345      penalty:   6.5943841295818959E-033
 PAO|CG| warming up with steepest descent
 PAO|CG| beta:    0.0000000000000000     
 PAO| norm of gradient:  0.78357926911860942     
 PAO|LS| adapt:  T F F
 PAO|LS| adapt: scan_steps:    0.0000000000000000        0.0000000000000000        0.0000000000000000     
 PAO|LS| adapt: energies:   -7.6142473776151345        0.0000000000000000        0.0000000000000000     
 PAO| ======================= Iteration:         2 =============================

     Lanczos converged:  T threshold:   0.100E-02
     Est. extremal eigenvalues:    0.328E+01   0.127E+00
     Est. condition number :    0.258E+02
     NS sqrt iter    1 1.00000000   0.805E+00       0.002       28.635
     NS sqrt iter    2 1.00000000   0.425E+00       0.002       52.586
     NS sqrt iter    3 1.00000000   0.153E+00       0.002       50.715
     NS sqrt iter    4 1.00000000   0.143E-01       0.002       65.289
     NS sqrt iter    5 1.00000000   0.174E-04       0.002       50.204
     Final NS sqrt iter    5 1.00000000   0.457E-09

     Est. extremal eigenvalues     -0.92274     1.83632  converged:  T
     TRS4 it   1 1.00000000   0.884E+00       0.001       16.128   0.100E-07
     TRS4 it   2 1.00000000   0.675E+00       0.001       30.982   0.100E-07
     TRS4 it   3 1.00000000   0.483E+00       0.001       32.256   0.100E-07
     TRS4 it   4 1.00000000   0.292E+00       0.001       32.256   0.100E-07
     TRS4 it   5 1.00000000   0.135E+00       0.001       32.051   0.100E-07
     TRS4 it   6 1.00000000   0.371E-01       0.001       25.491   0.100E-07
     TRS4 it   7 1.00000000   0.388E-02       0.001       32.256   0.100E-07
     TRS4 it   8 1.00000000   0.599E-04       0.001       30.293   0.100E-07
     TRS4 it   9 1.00000000   0.159E-07       0.001       30.580   0.100E-07
     Final TRS4 iteration    9 1.00000000   0.159E-07
     Chemical potential (mu):      -0.05185
 
 PAO| energy:  -7.6697651515780585      penalty:   2.2508021021185683E-008
 PAO|LS| adapt:  T T F
 PAO|LS| adapt: scan_steps:    0.0000000000000000       0.10000000000000001        0.0000000000000000     
 PAO|LS| adapt: energies:   -7.6142473776151345       -7.6697651515780585        0.0000000000000000     
 PAO| ======================= Iteration:         3 =============================

     Lanczos converged:  T threshold:   0.100E-02
     Est. extremal eigenvalues:    0.319E+01   0.138E+00
     Est. condition number :    0.231E+02
     NS sqrt iter    1 1.00000000   0.788E+00       0.004       16.879
     NS sqrt iter    2 1.00000000   0.408E+00       0.002       53.057
     NS sqrt iter    3 1.00000000   0.136E+00       0.002       59.755
     NS sqrt iter    4 1.00000000   0.989E-02       0.002       65.638
     NS sqrt iter    5 1.00000000   0.596E-05       0.002       52.926
     Final NS sqrt iter    5 1.00000000   0.544E-10

     Est. extremal eigenvalues     -0.92617     1.79460  converged:  T
     TRS4 it   1 1.00000000   0.882E+00       0.001       16.128   0.100E-07
     TRS4 it   2 1.00000000   0.659E+00       0.001       32.256   0.100E-07
     TRS4 it   3 1.00000000   0.468E+00       0.001       29.451   0.100E-07
     TRS4 it   4 1.00000000   0.273E+00       0.001       32.256   0.100E-07
     TRS4 it   5 1.00000000   0.117E+00       0.001       32.256   0.100E-07
     TRS4 it   6 1.00000000   0.277E-01       0.001       32.256   0.100E-07
     TRS4 it   7 1.00000000   0.217E-02       0.001       32.256   0.100E-07
     TRS4 it   8 1.00000000   0.187E-04       0.001       32.256   0.100E-07
     TRS4 it   9 1.00000000   0.156E-08       0.003       12.656   0.100E-07
     Final TRS4 iteration    9 1.00000000   0.156E-08
     Chemical potential (mu):      -0.03892
 
 PAO| energy:  -7.7128566832977539      penalty:   3.6012806533568356E-007
 PAO|LS| adapt:  T T F
 PAO|LS| adapt: scan_steps:    0.0000000000000000       0.20000000000000001        0.0000000000000000     
 PAO|LS| adapt: energies:   -7.6142473776151345       -7.7128566832977539        0.0000000000000000     
 PAO| ======================= Iteration:         4 =============================

     Lanczos converged:  T threshold:   0.100E-02
     Est. extremal eigenvalues:    0.299E+01   0.156E+00
     Est. condition number :    0.192E+02
     NS sqrt iter    1 1.00000000   0.750E+00       0.002       35.653
     NS sqrt iter    2 1.00000000   0.374E+00       0.002       59.973
     NS sqrt iter    3 1.00000000   0.106E+00       0.002       64.379
     NS sqrt iter    4 1.00000000   0.487E-02       0.002       53.784
     NS sqrt iter    5 1.00000000   0.890E-06       0.005       17.987
     Final NS sqrt iter    5 1.00000000   0.135E-11

     Est. extremal eigenvalues     -0.93150     1.73437  converged:  T
     TRS4 it   1 1.00000000   0.879E+00       0.001       16.128   0.100E-07
     TRS4 it   2 1.00000000   0.633E+00       0.001       32.256   0.100E-07
     TRS4 it   3 1.00000000   0.439E+00       0.001       32.256   0.100E-07
     TRS4 it   4 1.00000000   0.236E+00       0.001       32.256   0.100E-07
     TRS4 it   5 1.00000000   0.861E-01       0.001       32.256   0.100E-07
     TRS4 it   6 1.00000000   0.145E-01       0.001       32.256   0.100E-07
     TRS4 it   7 1.00000000   0.562E-03       0.001       32.256   0.100E-07
     TRS4 it   8 1.00000000   0.122E-05       0.001       32.256   0.100E-07
     TRS4 it   9 1.00000000   0.663E-11       0.001       32.256   0.100E-07
     Final TRS4 iteration    9 1.00000000   0.663E-11
     Chemical potential (mu):      -0.01050
 
 PAO| energy:  -7.7601390366365646      penalty:   5.7620468773531295E-006
 PAO|LS| Need extra step
 PAO|LS| adapt:  T T F
 PAO|LS| adapt: scan_steps:    0.0000000000000000       0.40000000000000002        0.0000000000000000     
 PAO|LS| adapt: energies:   -7.6142473776151345       -7.7601390366365646        0.0000000000000000     
 PAO| ======================= Iteration:         5 =============================

     Lanczos converged:  T threshold:   0.100E-02
     Est. extremal eigenvalues:    0.263E+01   0.182E+00
     Est. condition number :    0.144E+02
     NS sqrt iter    1 1.00000000   0.686E+00       0.002       36.166
     NS sqrt iter    2 1.00000000   0.312E+00       0.002       50.272
     NS sqrt iter    3 1.00000000   0.655E-01       0.002       46.930
     NS sqrt iter    4 1.00000000   0.136E-02       0.002       61.999
     NS sqrt iter    5 1.00000000   0.256E-07       0.001       38.847
     Final NS sqrt iter    5 1.00000000   0.247E-08

     Est. extremal eigenvalues     -0.93274     1.66760  converged:  T
     TRS4 it   1 1.00000000   0.876E+00       0.001       16.128   0.100E-07
     TRS4 it   2 1.00000000   0.598E+00       0.001       32.256   0.100E-07
     TRS4 it   3 1.00000000   0.393E+00       0.001       32.256   0.100E-07
     TRS4 it   4 1.00000000   0.181E+00       0.001       32.256   0.100E-07
     TRS4 it   5 1.00000000   0.469E-01       0.001       32.256   0.100E-07
     TRS4 it   6 1.00000000   0.390E-02       0.001       32.256   0.100E-07
     TRS4 it   7 1.00000000   0.347E-04       0.001       32.256   0.100E-07
     TRS4 it   8 1.00000000   0.348E-08       0.001       32.256   0.100E-07
     Final TRS4 iteration    8 1.00000000   0.348E-08
     Chemical potential (mu):       0.03802
 
 PAO| energy:  -7.7054598625882091      penalty:   9.2192732693543967E-005
 PAO|LS| Need extra step
 PAO|LS| adapt:  T T T
 PAO|LS| adapt: scan_steps:    0.0000000000000000       0.40000000000000002       0.80000000000000004     
 PAO|LS| adapt: energies:   -7.6142473776151345       -7.7601390366365646       -7.7054598625882091     
 PAO|LS| adapt: suggested step_size:   0.49095289038495321     
 PAO|LS| adapt: predicted energy  -7.7653240611037493     
 PAO| ======================= Iteration:         6 =============================

     Lanczos converged:  T threshold:   0.100E-02
     Est. extremal eigenvalues:    0.290E+01   0.162E+00
     Est. condition number :    0.179E+02
     NS sqrt iter    1 1.00000000   0.734E+00       0.002       41.132
     NS sqrt iter    2 1.00000000   0.358E+00       0.002       56.144
     NS sqrt iter    3 1.00000000   0.948E-01       0.002       66.518
     NS sqrt iter    4 1.00000000   0.359E-02       0.002       60.671
     NS sqrt iter    5 1.00000000   0.394E-06       0.002       51.477
     Final NS sqrt iter    5 1.00000000   0.176E-09

     Est. extremal eigenvalues     -0.93298     1.71436  converged:  T
     TRS4 it   1 1.00000000   0.878E+00       0.001       16.128   0.100E-07
     TRS4 it   2 1.00000000   0.623E+00       0.001       32.155   0.100E-07
     TRS4 it   3 1.00000000   0.427E+00       0.001       32.256   0.100E-07
     TRS4 it   4 1.00000000   0.222E+00       0.001       32.256   0.100E-07
     TRS4 it   5 1.00000000   0.745E-01       0.001       31.413   0.100E-07
     TRS4 it   6 1.00000000   0.106E-01       0.001       32.256   0.100E-07
     TRS4 it   7 1.00000000   0.288E-03       0.001       32.256   0.100E-07
     TRS4 it   8 1.00000000   0.306E-06       0.001       32.256   0.100E-07
     TRS4 it   9 1.00000000   0.413E-12       0.001       32.256   0.100E-07
     Final TRS4 iteration    9 1.00000000   0.413E-12
     Chemical potential (mu):       0.00320
 
 PAO| energy:  -7.7645951087051772      penalty:   1.3076637247573631E-005
 PAO|CG| warming up with steepest descent
 PAO|CG| beta:    0.0000000000000000     
 PAO| norm of gradient:  0.41770426745763783     
 PAO| energy improvement: -0.15034773109004274     
 PAO| step      6                   -7.764595109  0.261E-01  0.491E+00     0.146
 PAO|LS| adapt:  T F F
 PAO|LS| adapt: scan_steps:    0.0000000000000000        0.0000000000000000        0.0000000000000000     
 PAO|LS| adapt: energies:   -7.7645951087051772        0.0000000000000000        0.0000000000000000     
 PAO| ======================= Iteration:         7 =============================

     Lanczos converged:  T threshold:   0.100E-02
     Est. extremal eigenvalues:    0.281E+01   0.176E+00
     Est. condition number :    0.160E+02
     NS sqrt iter    1 1.00000000   0.716E+00       0.002       39.111
     NS sqrt iter    2 1.00000000   0.338E+00       0.003       42.397
     NS sqrt iter    3 1.00000000   0.792E-01       0.002       64.134
     NS sqrt iter    4 1.00000000   0.217E-02       0.002       64.858
     NS sqrt iter    5 1.00000000   0.970E-07       0.002       48.131
     Final NS sqrt iter    5 1.00000000   0.117E-08

     Est. extremal eigenvalues     -0.93469     1.70148  converged:  T
     TRS4 it   1 1.00000000   0.877E+00       0.001       16.128   0.100E-07
     TRS4 it   2 1.00000000   0.621E+00       0.001       31.893   0.100E-07
     TRS4 it   3 1.00000000   0.427E+00       0.001       32.256   0.100E-07
     TRS4 it   4 1.00000000   0.223E+00       0.001       32.256   0.100E-07
     TRS4 it   5 1.00000000   0.752E-01       0.001       32.256   0.100E-07
     TRS4 it   6 1.00000000   0.105E-01       0.001       32.256   0.100E-07
     TRS4 it   7 1.00000000   0.269E-03       0.001       32.256   0.100E-07
     TRS4 it   8 1.00000000   0.253E-06       0.001       32.256   0.100E-07
     TRS4 it   9 1.00000000   0.276E-12       0.001       32.256   0.100E-07
     Final TRS4 iteration    9 1.00000000   0.276E-12
     Chemical potential (mu):       0.00530
 
 PAO| energy:  -7.7585283521617638      penalty:   1.9809899862628395E-005
 PAO|LS| adapt:  T F T
 PAO|LS| adapt: scan_steps:    0.0000000000000000        0.0000000000000000       0.49095289038495321     
 PAO|LS| adapt: energies:   -7.7645951087051772        0.0000000000000000       -7.7585283521617638     
 PAO| ======================= Iteration:         8 =============================

     Lanczos converged:  T threshold:   0.100E-02
     Est. extremal eigenvalues:    0.286E+01   0.169E+00
     Est. condition number :    0.169E+02
     NS sqrt iter    1 1.00000000   0.725E+00       0.002       40.537
     NS sqrt iter    2 1.00000000   0.348E+00       0.002       64.905
     NS sqrt iter    3 1.00000000   0.868E-01       0.002       60.399
     NS sqrt iter    4 1.00000000   0.281E-02       0.002       65.550
     NS sqrt iter    5 1.00000000   0.199E-06       0.002       51.328
     Final NS sqrt iter    5 1.00000000   0.855E-09

     Est. extremal eigenvalues     -0.93480     1.70732  converged:  T
     TRS4 it   1 1.00000000   0.877E+00       0.001       16.128   0.100E-07
     TRS4 it   2 1.00000000   0.622E+00       0.001       32.256   0.100E-07
     TRS4 it   3 1.00000000   0.427E+00       0.001       32.256   0.100E-07
     TRS4 it   4 1.00000000   0.221E+00       0.001       32.256   0.100E-07
     TRS4 it   5 1.00000000   0.746E-01       0.001       32.256   0.100E-07
     TRS4 it   6 1.00000000   0.106E-01       0.001       32.256   0.100E-07
     TRS4 it   7 1.00000000   0.285E-03       0.001       32.256   0.100E-07
     TRS4 it   8 1.00000000   0.295E-06       0.001       32.256   0.100E-07
     TRS4 it   9 1.00000000   0.381E-12       0.001       32.256   0.100E-07
     Final TRS4 iteration    9 1.00000000   0.381E-12
     Chemical potential (mu):       0.00380
 
 PAO| energy:  -7.7842513060242000      penalty:   1.4182290871213831E-005
 PAO|LS| adapt:  T T T
 PAO|LS| adapt: scan_steps:    0.0000000000000000       0.24547644519247661       0.49095289038495321     
 PAO|LS| adapt: energies:   -7.7645951087051772       -7.7842513060242000       -7.7585283521617638     
 PAO|LS| adapt: suggested step_size:   0.22906752401003513     
 PAO|LS| adapt: predicted energy  -7.7843526894073145     
 PAO| ======================= Iteration:         9 =============================

     Lanczos converged:  T threshold:   0.100E-02
     Est. extremal eigenvalues:    0.286E+01   0.169E+00
     Est. condition number :    0.170E+02
     NS sqrt iter    1 1.00000000   0.725E+00       0.002       41.832
     NS sqrt iter    2 1.00000000   0.349E+00       0.002       63.911
     NS sqrt iter    3 1.00000000   0.874E-01       0.002       63.412
     NS sqrt iter    4 1.00000000   0.286E-02       0.002       62.865
     NS sqrt iter    5 1.00000000   0.209E-06       0.002       51.288
     Final NS sqrt iter    5 1.00000000   0.892E-09

     Est. extremal eigenvalues     -0.93474     1.70775  converged:  T
     TRS4 it   1 1.00000000   0.877E+00       0.001       16.128   0.100E-07
     TRS4 it   2 1.00000000   0.622E+00       0.001       32.256   0.100E-07
     TRS4 it   3 1.00000000   0.427E+00       0.001       32.256   0.100E-07
     TRS4 it   4 1.00000000   0.221E+00       0.001       32.256   0.100E-07
     TRS4 it   5 1.00000000   0.746E-01       0.001       32.256   0.100E-07
     TRS4 it   6 1.00000000   0.106E-01       0.001       32.124   0.100E-07
     TRS4 it   7 1.00000000   0.286E-03       0.001       32.256   0.100E-07
     TRS4 it   8 1.00000000   0.297E-06       0.001       29.022   0.100E-07
     TRS4 it   9 1.00000000   0.385E-12       0.001       23.900   0.100E-07
     Final TRS4 iteration    9 1.00000000   0.385E-12
     Chemical potential (mu):       0.00373
 
 PAO| energy:  -7.7843773465278820      penalty:   1.4006570151892080E-005
 PAO|CG| trace_G_new    3.6877880452817459E-002
 PAO|CG| trace_G_prev   0.17447685505232183     
 PAO|CG| trace_G_mix   -1.4536638322564513E-003
 PAO|CG| trace_D   0.17447685505232183     
 PAO|CG| trace_D_Gnew   1.4536638322564513E-003
 PAO|CG| beta:   0.21969414953965735     
 PAO| norm of gradient:  0.19203614361056479     
 PAO| energy improvement:  -1.9782237822704829E-002
 PAO| step      9                   -7.784377347  0.120E-01  0.229E+00     0.085
 PAO|LS| adapt:  T F F
 PAO|LS| adapt: scan_steps:    0.0000000000000000        0.0000000000000000        0.0000000000000000     
 PAO|LS| adapt: energies:   -7.7843773465278820        0.0000000000000000        0.0000000000000000     
 PAO| ======================= Iteration:        10 =============================

     Lanczos converged:  T threshold:   0.100E-02
     Est. extremal eigenvalues:    0.282E+01   0.174E+00
     Est. condition number :    0.162E+02
     NS sqrt iter    1 1.00000000   0.718E+00       0.002       36.731
     NS sqrt iter    2 1.00000000   0.340E+00       0.002       57.604
     NS sqrt iter    3 1.00000000   0.817E-01       0.002       65.183
     NS sqrt iter    4 1.00000000   0.235E-02       0.002       57.827
     NS sqrt iter    5 1.00000000   0.117E-06       0.002       46.422
     Final NS sqrt iter    5 1.00000000   0.117E-08

     Est. extremal eigenvalues     -0.93563     1.70524  converged:  T
     TRS4 it   1 1.00000000   0.876E+00       0.001       16.128   0.100E-07
     TRS4 it   2 1.00000000   0.621E+00       0.001       29.554   0.100E-07
     TRS4 it   3 1.00000000   0.425E+00       0.001       31.541   0.100E-07
     TRS4 it   4 1.00000000   0.219E+00       0.001       32.256   0.100E-07
     TRS4 it   5 1.00000000   0.728E-01       0.001       32.256   0.100E-07
     TRS4 it   6 1.00000000   0.100E-01       0.001       32.256   0.100E-07
     TRS4 it   7 1.00000000   0.252E-03       0.001       32.256   0.100E-07
     TRS4 it   8 1.00000000   0.225E-06       0.001       32.256   0.100E-07
     TRS4 it   9 1.00000000   0.219E-12       0.001       32.256   0.100E-07
     Final TRS4 iteration    9 1.00000000   0.219E-12
     Chemical potential (mu):       0.00682
 
 PAO| energy:  -7.7894188829924396      penalty:   1.4544354577602517E-005
 PAO|LS| adapt:  T T F
 PAO|LS| adapt: scan_steps:    0.0000000000000000       0.22906752401003513        0.0000000000000000     
 PAO|LS| adapt: energies:   -7.7843773465278820       -7.7894188829924396        0.0000000000000000     
 PAO| ======================= Iteration:        11 =============================

     Lanczos converged:  T threshold:   0.100E-02
     Est. extremal eigenvalues:    0.279E+01   0.180E+00
     Est. condition number :    0.155E+02
     NS sqrt iter    1 1.00000000   0.710E+00       0.002       38.631
     NS sqrt iter    2 1.00000000   0.332E+00       0.002       63.003
     NS sqrt iter    3 1.00000000   0.764E-01       0.002       63.658
     NS sqrt iter    4 1.00000000   0.193E-02       0.001       75.019
     NS sqrt iter    5 1.00000000   0.647E-07       0.001       53.354
     Final NS sqrt iter    5 1.00000000   0.546E-09

     Est. extremal eigenvalues     -0.93555     1.70401  converged:  T
     TRS4 it   1 1.00000000   0.875E+00       0.001       16.128   0.100E-07
     TRS4 it   2 1.00000000   0.620E+00       0.001       32.256   0.100E-07
     TRS4 it   3 1.00000000   0.424E+00       0.001       32.256   0.100E-07
     TRS4 it   4 1.00000000   0.217E+00       0.001       32.256   0.100E-07
     TRS4 it   5 1.00000000   0.711E-01       0.001       32.256   0.100E-07
     TRS4 it   6 1.00000000   0.950E-02       0.001       32.256   0.100E-07
     TRS4 it   7 1.00000000   0.222E-03       0.001       32.256   0.100E-07
     TRS4 it   8 1.00000000   0.169E-06       0.001       32.256   0.100E-07
     TRS4 it   9 1.00000000   0.123E-12       0.001       32.256   0.100E-07
     Final TRS4 iteration    9 1.00000000   0.123E-12
     Chemical potential (mu):       0.01001
 
 PAO| energy:  -7.7880365612431071      penalty:   1.5751003147994261E-005
 PAO|LS| adapt:  T T T
 PAO|LS| adapt: scan_steps:    0.0000000000000000       0.22906752401003513       0.45813504802007027     
 PAO|LS| adapt: energies:   -7.7843773465278820       -7.7894188829924396       -7.7880365612431071     
 PAO|LS| adapt: suggested step_size:   0.29430925465916913     
 PAO|LS| adapt: predicted energy  -7.7896794322582839     
 PAO| ======================= Iteration:        12 =============================

     Lanczos converged:  T threshold:   0.100E-02
     Est. extremal eigenvalues:    0.281E+01   0.176E+00
     Est. condition number :    0.160E+02
     NS sqrt iter    1 1.00000000   0.715E+00       0.002       37.812
     NS sqrt iter    2 1.00000000   0.338E+00       0.002       63.625
     NS sqrt iter    3 1.00000000   0.802E-01       0.002       58.370
     NS sqrt iter    4 1.00000000   0.222E-02       0.002       57.952
     NS sqrt iter    5 1.00000000   0.991E-07       0.001       51.987
     Final NS sqrt iter    5 1.00000000   0.107E-08

     Est. extremal eigenvalues     -0.93570     1.70476  converged:  T
     TRS4 it   1 1.00000000   0.876E+00       0.002        8.675   0.100E-07
     TRS4 it   2 1.00000000   0.621E+00       0.001       30.698   0.100E-07
     TRS4 it   3 1.00000000   0.425E+00       0.001       32.256   0.100E-07
     TRS4 it   4 1.00000000   0.219E+00       0.001       31.646   0.100E-07
     TRS4 it   5 1.00000000   0.723E-01       0.002       19.985   0.100E-07
     TRS4 it   6 1.00000000   0.987E-02       0.001       27.175   0.100E-07
     TRS4 it   7 1.00000000   0.243E-03       0.001       32.256   0.100E-07
     TRS4 it   8 1.00000000   0.207E-06       0.001       32.256   0.100E-07
     TRS4 it   9 1.00000000   0.185E-12       0.001       32.256   0.100E-07
     Final TRS4 iteration    9 1.00000000   0.185E-12
     Chemical potential (mu):       0.00772
 
 PAO| energy:  -7.7896631851585587      penalty:   1.4812208632182100E-005
 PAO|CG| trace_G_new    1.1835555572306105E-002
 PAO|CG| trace_G_prev    3.6877880452817459E-002
 PAO|CG| trace_G_mix   -4.5479426921361940E-004
 PAO|CG| trace_D    4.4660373596380185E-002
 PAO|CG| trace_D_Gnew   2.0618440707706963E-004
 PAO|CG| beta:   0.33327158965234799     
 PAO| norm of gradient:  0.10879133960157907     
 PAO| energy improvement:  -5.2858386306766647E-003
 PAO| step     12                   -7.789663185  0.680E-02  0.294E+00     0.088
 PAO|LS| adapt:  T F F
 PAO|LS| adapt: scan_steps:    0.0000000000000000        0.0000000000000000        0.0000000000000000     
 PAO|LS| adapt: energies:   -7.7896631851585587        0.0000000000000000        0.0000000000000000     
 PAO| ======================= Iteration:        13 =============================

     Lanczos converged:  T threshold:   0.100E-02
     Est. extremal eigenvalues:    0.278E+01   0.180E+00
     Est. condition number :    0.154E+02
     NS sqrt iter    1 1.00000000   0.708E+00       0.002       39.034
     NS sqrt iter    2 1.00000000   0.331E+00       0.002       61.686
     NS sqrt iter    3 1.00000000   0.758E-01       0.002       60.527
     NS sqrt iter    4 1.00000000   0.189E-02       0.002       57.619
     NS sqrt iter    5 1.00000000   0.621E-07       0.002       34.430
     Final NS sqrt iter    5 1.00000000   0.533E-09

     Est. extremal eigenvalues     -0.93619     1.69905  converged:  T
     TRS4 it   1 1.00000000   0.876E+00       0.001       16.128   0.100E-07
     TRS4 it   2 1.00000000   0.618E+00       0.001       31.820   0.100E-07
     TRS4 it   3 1.00000000   0.421E+00       0.001       32.256   0.100E-07
     TRS4 it   4 1.00000000   0.214E+00       0.001       32.256   0.100E-07
     TRS4 it   5 1.00000000   0.689E-01       0.001       32.256   0.100E-07
     TRS4 it   6 1.00000000   0.890E-02       0.001       31.874   0.100E-07
     TRS4 it   7 1.00000000   0.195E-03       0.001       30.816   0.100E-07
     TRS4 it   8 1.00000000   0.130E-06       0.001       23.457   0.100E-07
     TRS4 it   9 1.00000000   0.722E-13       0.001       24.894   0.100E-07
     Final TRS4 iteration    9 1.00000000   0.722E-13
     Chemical potential (mu):       0.01221
 
 PAO| energy:  -7.7917376651207357      penalty:   1.5122262030090825E-005
 PAO|LS| adapt:  T T F
 PAO|LS| adapt: scan_steps:    0.0000000000000000       0.29430925465916913        0.0000000000000000     
 PAO|LS| adapt: energies:   -7.7896631851585587       -7.7917376651207357        0.0000000000000000     
 PAO| ======================= Iteration:        14 =============================

     Lanczos converged:  T threshold:   0.100E-02
     Est. extremal eigenvalues:    0.274E+01   0.184E+00
     Est. condition number :    0.149E+02
     NS sqrt iter    1 1.00000000   0.701E+00       0.002       28.482
     NS sqrt iter    2 1.00000000   0.324E+00       0.002       69.223
     NS sqrt iter    3 1.00000000   0.717E-01       0.002       61.512
     NS sqrt iter    4 1.00000000   0.161E-02       0.003       42.019
     NS sqrt iter    5 1.00000000   0.387E-07       0.002       32.578
     Final NS sqrt iter    5 1.00000000   0.337E-08

     Est. extremal eigenvalues     -0.93617     1.69360  converged:  T
     TRS4 it   1 1.00000000   0.875E+00       0.001       16.128   0.100E-07
     TRS4 it   2 1.00000000   0.615E+00       0.001       29.661   0.100E-07
     TRS4 it   3 1.00000000   0.417E+00       0.001       29.951   0.100E-07
     TRS4 it   4 1.00000000   0.209E+00       0.001       29.480   0.100E-07
     TRS4 it   5 1.00000000   0.656E-01       0.001       27.220   0.100E-07
     TRS4 it   6 1.00000000   0.802E-02       0.002       14.877   0.100E-07
     TRS4 it   7 1.00000000   0.156E-03       0.001       25.130   0.100E-07
     TRS4 it   8 1.00000000   0.814E-07       0.001       26.846   0.100E-07
     TRS4 it   9 1.00000000   0.279E-13       0.001       29.160   0.100E-07
     Final TRS4 iteration    9 1.00000000   0.279E-13
     Chemical potential (mu):       0.01658
 
 PAO| energy:  -7.7910851346773571      penalty:   1.5916301878272805E-005
 PAO|LS| adapt:  T T T
 PAO|LS| adapt: scan_steps:    0.0000000000000000       0.29430925465916913       0.58861850931833826     
 PAO|LS| adapt: energies:   -7.7896631851585587       -7.7917376651207357       -7.7910851346773571     
 PAO|LS| adapt: suggested step_size:   0.37104033390036434     
 PAO|LS| adapt: predicted energy  -7.7918303463051330     
 PAO| ======================= Iteration:        15 =============================

     Lanczos converged:  T threshold:   0.100E-02
     Est. extremal eigenvalues:    0.277E+01   0.181E+00
     Est. condition number :    0.153E+02
     NS sqrt iter    1 1.00000000   0.706E+00       0.002       36.881
     NS sqrt iter    2 1.00000000   0.329E+00       0.002       68.070
     NS sqrt iter    3 1.00000000   0.747E-01       0.002       65.453
     NS sqrt iter    4 1.00000000   0.182E-02       0.002       48.177
     NS sqrt iter    5 1.00000000   0.549E-07       0.002       45.555
     Final NS sqrt iter    5 1.00000000   0.473E-09

     Est. extremal eigenvalues     -0.93623     1.69761  converged:  T
     TRS4 it   1 1.00000000   0.875E+00       0.001       16.128   0.100E-07
     TRS4 it   2 1.00000000   0.617E+00       0.001       27.554   0.100E-07
     TRS4 it   3 1.00000000   0.420E+00       0.001       32.256   0.100E-07
     TRS4 it   4 1.00000000   0.213E+00       0.001       32.256   0.100E-07
     TRS4 it   5 1.00000000   0.680E-01       0.001       32.256   0.100E-07
     TRS4 it   6 1.00000000   0.866E-02       0.001       29.956   0.100E-07
     TRS4 it   7 1.00000000   0.184E-03       0.001       32.256   0.100E-07
     TRS4 it   8 1.00000000   0.115E-06       0.001       30.170   0.100E-07
     TRS4 it   9 1.00000000   0.561E-13       0.001       32.213   0.100E-07
     Final TRS4 iteration    9 1.00000000   0.561E-13
     Chemical potential (mu):       0.01336
 
 PAO| energy:  -7.7918272675277551      penalty:   1.5279573401209524E-005
 PAO|CG| trace_G_new    2.6277239482752610E-003
 PAO|CG| trace_G_prev    1.1835555572306105E-002
 PAO|CG| trace_G_mix    6.2497809441745694E-005
 PAO|CG| trace_D    1.6658550334705622E-002
 PAO|CG| trace_D_Gnew   3.4356096682221915E-005
 PAO|CG| beta:   0.21673897124321412     
 PAO| norm of gradient:   5.1261329950316945E-002
 PAO| energy improvement:  -2.1640823691964073E-003
 PAO| step     15                   -7.791827268  0.320E-02  0.371E+00     0.096
 PAO|LS| adapt:  T F F
 PAO|LS| adapt: scan_steps:    0.0000000000000000        0.0000000000000000        0.0000000000000000     
 PAO|LS| adapt: energies:   -7.7918272675277551        0.0000000000000000        0.0000000000000000     
 PAO| ======================= Iteration:        16 =============================

     Lanczos converged:  T threshold:   0.100E-02
     Est. extremal eigenvalues:    0.276E+01   0.182E+00
     Est. condition number :    0.152E+02
     NS sqrt iter    1 1.00000000   0.704E+00       0.002       35.332
     NS sqrt iter    2 1.00000000   0.328E+00       0.002       59.585
     NS sqrt iter    3 1.00000000   0.740E-01       0.002       61.322
     NS sqrt iter    4 1.00000000   0.176E-02       0.002       55.249
     NS sqrt iter    5 1.00000000   0.498E-07       0.002       41.802
     Final NS sqrt iter    5 1.00000000   0.437E-09

     Est. extremal eigenvalues     -0.93626     1.69720  converged:  T
     TRS4 it   1 1.00000000   0.876E+00       0.001       16.128   0.100E-07
     TRS4 it   2 1.00000000   0.616E+00       0.001       32.256   0.100E-07
     TRS4 it   3 1.00000000   0.419E+00       0.001       29.872   0.100E-07
     TRS4 it   4 1.00000000   0.211E+00       0.001       32.256   0.100E-07
     TRS4 it   5 1.00000000   0.669E-01       0.001       31.935   0.100E-07
     TRS4 it   6 1.00000000   0.838E-02       0.001       30.383   0.100E-07
     TRS4 it   7 1.00000000   0.173E-03       0.001       30.838   0.100E-07
     TRS4 it   8 1.00000000   0.103E-06       0.001       28.507   0.100E-07
     TRS4 it   9 1.00000000   0.450E-13       0.001       29.782   0.100E-07
     Final TRS4 iteration    9 1.00000000   0.450E-13
     Chemical potential (mu):       0.01419
 
 PAO| energy:  -7.7919522660095941      penalty:   1.5061220234503403E-005
 PAO|LS| adapt:  T T F
 PAO|LS| adapt: scan_steps:    0.0000000000000000       0.37104033390036434        0.0000000000000000     
 PAO|LS| adapt: energies:   -7.7918272675277551       -7.7919522660095941        0.0000000000000000     
 PAO| ======================= Iteration:        17 =============================

     Lanczos converged:  T threshold:   0.100E-02
     Est. extremal eigenvalues:    0.275E+01   0.183E+00
     Est. condition number :    0.151E+02
     NS sqrt iter    1 1.00000000   0.703E+00       0.002       30.981
     NS sqrt iter    2 1.00000000   0.327E+00       0.002       54.996
     NS sqrt iter    3 1.00000000   0.734E-01       0.002       57.976
     NS sqrt iter    4 1.00000000   0.171E-02       0.002       50.062
     NS sqrt iter    5 1.00000000   0.453E-07       0.002       41.149
     Final NS sqrt iter    5 1.00000000   0.343E-09

     Est. extremal eigenvalues     -0.93616     1.69687  converged:  T
     TRS4 it   1 1.00000000   0.876E+00       0.001       16.128   0.100E-07
     TRS4 it   2 1.00000000   0.616E+00       0.001       32.256   0.100E-07
     TRS4 it   3 1.00000000   0.418E+00       0.001       28.657   0.100E-07
     TRS4 it   4 1.00000000   0.210E+00       0.001       32.256   0.100E-07
     TRS4 it   5 1.00000000   0.658E-01       0.001       32.256   0.100E-07
     TRS4 it   6 1.00000000   0.812E-02       0.001       32.256   0.100E-07
     TRS4 it   7 1.00000000   0.163E-03       0.001       32.256   0.100E-07
     TRS4 it   8 1.00000000   0.926E-07       0.001       31.301   0.100E-07
     TRS4 it   9 1.00000000   0.364E-13       0.001       31.824   0.100E-07
     Final TRS4 iteration    9 1.00000000   0.364E-13
     Chemical potential (mu):       0.01500
 
 PAO| energy:  -7.7903770936211174      penalty:   1.4969663394779809E-005
 PAO|LS| adapt:  T T T
 PAO|LS| adapt: scan_steps:    0.0000000000000000       0.37104033390036434       0.74208066780072868     
 PAO|LS| adapt: energies:   -7.7918272675277551       -7.7919522660095941       -7.7903770936211174     
 PAO|LS| adapt: suggested step_size:   0.21279947119444853     
 PAO|LS| adapt: predicted energy  -7.7921068831422176     
 PAO| ======================= Iteration:        18 =============================

     Lanczos converged:  T threshold:   0.100E-02
     Est. extremal eigenvalues:    0.276E+01   0.182E+00
     Est. condition number :    0.152E+02
     NS sqrt iter    1 1.00000000   0.705E+00       0.002       37.735
     NS sqrt iter    2 1.00000000   0.328E+00       0.002       60.425
     NS sqrt iter    3 1.00000000   0.743E-01       0.002       57.872
     NS sqrt iter    4 1.00000000   0.178E-02       0.002       62.448
     NS sqrt iter    5 1.00000000   0.519E-07       0.002       43.612
     Final NS sqrt iter    5 1.00000000   0.452E-09

     Est. extremal eigenvalues     -0.93626     1.69736  converged:  T
     TRS4 it   1 1.00000000   0.876E+00       0.001       16.128   0.100E-07
     TRS4 it   2 1.00000000   0.617E+00       0.001       32.256   0.100E-07
     TRS4 it   3 1.00000000   0.419E+00       0.001       32.256   0.100E-07
     TRS4 it   4 1.00000000   0.212E+00       0.001       29.416   0.100E-07
     TRS4 it   5 1.00000000   0.673E-01       0.001       29.416   0.100E-07
     TRS4 it   6 1.00000000   0.850E-02       0.001       32.256   0.100E-07
     TRS4 it   7 1.00000000   0.178E-03       0.001       32.256   0.100E-07
     TRS4 it   8 1.00000000   0.108E-06       0.001       31.105   0.100E-07
     TRS4 it   9 1.00000000   0.498E-13       0.001       32.256   0.100E-07
     Final TRS4 iteration    9 1.00000000   0.498E-13
     Chemical potential (mu):       0.01384
 
 PAO| energy:  -7.7921064117332497      penalty:   1.5139113614296033E-005
 PAO|CG| trace_G_new    7.3175831426280685E-004
 PAO|CG| trace_G_prev    2.6277239482752610E-003
 PAO|CG| trace_G_mix    1.7249460130032096E-006
 PAO|CG| trace_D    3.3953797613949874E-003
 PAO|CG| trace_D_Gnew  -1.7803858937128853E-006
 PAO|CG| beta:   0.27781965785598217     
 PAO| norm of gradient:   2.7051031667254519E-002
 PAO| energy improvement:  -2.7914420549457475E-004
 PAO| step     18                   -7.792106412  0.169E-02  0.213E+00     0.092
 PAO|LS| adapt:  T F F
 PAO|LS| adapt: scan_steps:    0.0000000000000000        0.0000000000000000        0.0000000000000000     
 PAO|LS| adapt: energies:   -7.7921064117332497        0.0000000000000000        0.0000000000000000     
 PAO| ======================= Iteration:        19 =============================

     Lanczos converged:  T threshold:   0.100E-02
     Est. extremal eigenvalues:    0.276E+01   0.182E+00
     Est. condition number :    0.152E+02
     NS sqrt iter    1 1.00000000   0.705E+00       0.002       35.827
     NS sqrt iter    2 1.00000000   0.329E+00       0.002       54.433
     NS sqrt iter    3 1.00000000   0.745E-01       0.002       52.738
     NS sqrt iter    4 1.00000000   0.179E-02       0.002       64.725
     NS sqrt iter    5 1.00000000   0.524E-07       0.002       44.450
     Final NS sqrt iter    5 1.00000000   0.460E-09

     Est. extremal eigenvalues     -0.93626     1.69765  converged:  T
     TRS4 it   1 1.00000000   0.876E+00       0.001       16.128   0.100E-07
     TRS4 it   2 1.00000000   0.617E+00       0.001       32.256   0.100E-07
     TRS4 it   3 1.00000000   0.419E+00       0.001       32.256   0.100E-07
     TRS4 it   4 1.00000000   0.212E+00       0.001       32.256   0.100E-07
     TRS4 it   5 1.00000000   0.672E-01       0.001       30.951   0.100E-07
     TRS4 it   6 1.00000000   0.849E-02       0.001       30.856   0.100E-07
     TRS4 it   7 1.00000000   0.178E-03       0.001       32.115   0.100E-07
     TRS4 it   8 1.00000000   0.110E-06       0.001       32.256   0.100E-07
     TRS4 it   9 1.00000000   0.515E-13       0.001       32.256   0.100E-07
     Final TRS4 iteration    9 1.00000000   0.515E-13
     Chemical potential (mu):       0.01357
 
 PAO| energy:  -7.7922252341324496      penalty:   1.4849137441598743E-005
 PAO|LS| adapt:  T T F
 PAO|LS| adapt: scan_steps:    0.0000000000000000       0.21279947119444853        0.0000000000000000     
 PAO|LS| adapt: energies:   -7.7921064117332497       -7.7922252341324496        0.0000000000000000     
 PAO| ======================= Iteration:        20 =============================

     Lanczos converged:  T threshold:   0.100E-02
     Est. extremal eigenvalues:    0.276E+01   0.181E+00
     Est. condition number :    0.152E+02
     NS sqrt iter    1 1.00000000   0.705E+00       0.002       37.865
     NS sqrt iter    2 1.00000000   0.329E+00       0.002       58.285
     NS sqrt iter    3 1.00000000   0.747E-01       0.002       62.006
     NS sqrt iter    4 1.00000000   0.180E-02       0.002       62.356
     NS sqrt iter    5 1.00000000   0.529E-07       0.002       38.985
     Final NS sqrt iter    5 1.00000000   0.469E-09

     Est. extremal eigenvalues     -0.93626     1.69794  converged:  T
     TRS4 it   1 1.00000000   0.876E+00       0.001       16.128   0.100E-07
     TRS4 it   2 1.00000000   0.617E+00       0.001       26.704   0.100E-07
     TRS4 it   3 1.00000000   0.419E+00       0.001       32.256   0.100E-07
     TRS4 it   4 1.00000000   0.211E+00       0.001       29.224   0.100E-07
     TRS4 it   5 1.00000000   0.671E-01       0.001       32.256   0.100E-07
     TRS4 it   6 1.00000000   0.848E-02       0.001       32.256   0.100E-07
     TRS4 it   7 1.00000000   0.179E-03       0.001       32.256   0.100E-07
     TRS4 it   8 1.00000000   0.111E-06       0.001       29.012   0.100E-07
     TRS4 it   9 1.00000000   0.532E-13       0.001       30.045   0.100E-07
     Final TRS4 iteration    9 1.00000000   0.532E-13
     Chemical potential (mu):       0.01330
 
 PAO| energy:  -7.7922696508718108      penalty:   1.4571676400751553E-005
 PAO|LS| adapt:  T T F
 PAO|LS| adapt: scan_steps:    0.0000000000000000       0.42559894238889706        0.0000000000000000     
 PAO|LS| adapt: energies:   -7.7921064117332497       -7.7922696508718108        0.0000000000000000     
 PAO| ======================= Iteration:        21 =============================

     Lanczos converged:  T threshold:   0.100E-02
     Est. extremal eigenvalues:    0.277E+01   0.181E+00
     Est. condition number :    0.153E+02
     NS sqrt iter    1 1.00000000   0.705E+00       0.002       33.259
     NS sqrt iter    2 1.00000000   0.329E+00       0.002       51.654
     NS sqrt iter    3 1.00000000   0.752E-01       0.002       53.144
     NS sqrt iter    4 1.00000000   0.182E-02       0.002       55.749
     NS sqrt iter    5 1.00000000   0.539E-07       0.002       41.134
     Final NS sqrt iter    5 1.00000000   0.477E-09

     Est. extremal eigenvalues     -0.93625     1.69852  converged:  T
     TRS4 it   1 1.00000000   0.876E+00       0.001       16.128   0.100E-07
     TRS4 it   2 1.00000000   0.617E+00       0.001       32.205   0.100E-07
     TRS4 it   3 1.00000000   0.419E+00       0.001       31.174   0.100E-07
     TRS4 it   4 1.00000000   0.211E+00       0.001       32.256   0.100E-07
     TRS4 it   5 1.00000000   0.669E-01       0.001       32.256   0.100E-07
     TRS4 it   6 1.00000000   0.847E-02       0.001       32.256   0.100E-07
     TRS4 it   7 1.00000000   0.180E-03       0.001       30.906   0.100E-07
     TRS4 it   8 1.00000000   0.115E-06       0.001       32.256   0.100E-07
     TRS4 it   9 1.00000000   0.571E-13       0.001       32.256   0.100E-07
     Final TRS4 iteration    9 1.00000000   0.571E-13
     Chemical potential (mu):       0.01276
 
 PAO| energy:  -7.7921328341449554      penalty:   1.4053724593060916E-005
 PAO|LS| Need extra step
 PAO|LS| adapt:  T T T
 PAO|LS| adapt: scan_steps:    0.0000000000000000       0.42559894238889706       0.85119788477779412     
 PAO|LS| adapt: energies:   -7.7921064117332497       -7.7922696508718108       -7.7921328341449554     
 PAO|LS| adapt: suggested step_size:   0.44433770368872916     
 PAO|LS| adapt: predicted energy  -7.7922699417109182     
 PAO| ======================= Iteration:        22 =============================

     Lanczos converged:  T threshold:   0.100E-02
     Est. extremal eigenvalues:    0.276E+01   0.181E+00
     Est. condition number :    0.152E+02
     NS sqrt iter    1 1.00000000   0.705E+00       0.002       37.067
     NS sqrt iter    2 1.00000000   0.329E+00       0.002       58.452
     NS sqrt iter    3 1.00000000   0.748E-01       0.002       62.398
     NS sqrt iter    4 1.00000000   0.180E-02       0.002       62.142
     NS sqrt iter    5 1.00000000   0.529E-07       0.002       40.660
     Final NS sqrt iter    5 1.00000000   0.469E-09

     Est. extremal eigenvalues     -0.93626     1.69796  converged:  T
     TRS4 it   1 1.00000000   0.876E+00       0.001       16.128   0.100E-07
     TRS4 it   2 1.00000000   0.617E+00       0.001       31.235   0.100E-07
     TRS4 it   3 1.00000000   0.419E+00       0.001       32.256   0.100E-07
     TRS4 it   4 1.00000000   0.211E+00       0.001       32.256   0.100E-07
     TRS4 it   5 1.00000000   0.671E-01       0.001       30.510   0.100E-07
     TRS4 it   6 1.00000000   0.848E-02       0.001       32.256   0.100E-07
     TRS4 it   7 1.00000000   0.179E-03       0.001       32.256   0.100E-07
     TRS4 it   8 1.00000000   0.111E-06       0.001       32.256   0.100E-07
     TRS4 it   9 1.00000000   0.533E-13       0.001       32.256   0.100E-07
     Final TRS4 iteration    9 1.00000000   0.533E-13
     Chemical potential (mu):       0.01328
 
 PAO| energy:  -7.7922699773769040      penalty:   1.4547837305648328E-005
 PAO|CG| trace_G_new    2.2442229700826309E-004
 PAO|CG| trace_G_prev    7.3175831426280685E-004
 PAO|CG| trace_G_mix    3.0805579002560398E-006
 PAO|CG| trace_D    9.9481575105440554E-004
 PAO|CG| trace_D_Gnew  -1.8964847690121724E-006
 PAO|CG| beta:   0.30247929513584376     
 PAO| norm of gradient:   1.4980730856946302E-002
 PAO| energy improvement:  -1.6356564365427317E-004
 PAO| step     22                   -7.792269977  0.936E-03  0.444E+00     0.118
 PAO|LS| adapt:  T F F
 PAO|LS| adapt: scan_steps:    0.0000000000000000        0.0000000000000000        0.0000000000000000     
 PAO|LS| adapt: energies:   -7.7922699773769040        0.0000000000000000        0.0000000000000000     
 PAO| ======================= Iteration:        23 =============================

     Lanczos converged:  T threshold:   0.100E-02
     Est. extremal eigenvalues:    0.277E+01   0.181E+00
     Est. condition number :    0.152E+02
     NS sqrt iter    1 1.00000000   0.705E+00       0.002       31.309
     NS sqrt iter    2 1.00000000   0.329E+00       0.002       46.291
     NS sqrt iter    3 1.00000000   0.748E-01       0.002       67.310
     NS sqrt iter    4 1.00000000   0.180E-02       0.002       68.146
     NS sqrt iter    5 1.00000000   0.530E-07       0.001       48.003
     Final NS sqrt iter    5 1.00000000   0.475E-09

     Est. extremal eigenvalues     -0.93626     1.69786  converged:  T
     TRS4 it   1 1.00000000   0.876E+00       0.001       16.128   0.100E-07
     TRS4 it   2 1.00000000   0.617E+00       0.001       32.256   0.100E-07
     TRS4 it   3 1.00000000   0.419E+00       0.001       32.256   0.100E-07
     TRS4 it   4 1.00000000   0.212E+00       0.001       32.256   0.100E-07
     TRS4 it   5 1.00000000   0.672E-01       0.001       32.256   0.100E-07
     TRS4 it   6 1.00000000   0.852E-02       0.001       32.256   0.100E-07
     TRS4 it   7 1.00000000   0.181E-03       0.001       32.256   0.100E-07
     TRS4 it   8 1.00000000   0.114E-06       0.001       32.256   0.100E-07
     TRS4 it   9 1.00000000   0.562E-13       0.001       32.256   0.100E-07
     Final TRS4 iteration    9 1.00000000   0.562E-13
     Chemical potential (mu):       0.01297
 
 PAO| energy:  -7.7923197133599329      penalty:   1.3864275701278613E-005
 PAO|LS| adapt:  T T F
 PAO|LS| adapt: scan_steps:    0.0000000000000000       0.44433770368872916        0.0000000000000000     
 PAO|LS| adapt: energies:   -7.7922699773769040       -7.7923197133599329        0.0000000000000000     
 PAO| ======================= Iteration:        24 =============================

     Lanczos converged:  T threshold:   0.100E-02
     Est. extremal eigenvalues:    0.277E+01   0.181E+00
     Est. condition number :    0.152E+02
     NS sqrt iter    1 1.00000000   0.705E+00       0.002       42.479
     NS sqrt iter    2 1.00000000   0.329E+00       0.002       67.669
     NS sqrt iter    3 1.00000000   0.749E-01       0.002       59.663
     NS sqrt iter    4 1.00000000   0.181E-02       0.002       66.927
     NS sqrt iter    5 1.00000000   0.531E-07       0.002       45.824
     Final NS sqrt iter    5 1.00000000   0.480E-09

     Est. extremal eigenvalues     -0.93626     1.69776  converged:  T
     TRS4 it   1 1.00000000   0.876E+00       0.001       16.128   0.100E-07
     TRS4 it   2 1.00000000   0.617E+00       0.001       32.256   0.100E-07
     TRS4 it   3 1.00000000   0.419E+00       0.001       32.256   0.100E-07
     TRS4 it   4 1.00000000   0.212E+00       0.001       32.256   0.100E-07
     TRS4 it   5 1.00000000   0.673E-01       0.001       32.256   0.100E-07
     TRS4 it   6 1.00000000   0.856E-02       0.001       32.256   0.100E-07
     TRS4 it   7 1.00000000   0.183E-03       0.001       32.256   0.100E-07
     TRS4 it   8 1.00000000   0.117E-06       0.001       32.256   0.100E-07
     TRS4 it   9 1.00000000   0.592E-13       0.001       32.256   0.100E-07
     Final TRS4 iteration    9 1.00000000   0.592E-13
     Chemical potential (mu):       0.01267
 
 PAO| energy:  -7.7922683255638461      penalty:   1.3209190604662785E-005
 PAO|LS| adapt:  T T T
 PAO|LS| adapt: scan_steps:    0.0000000000000000       0.44433770368872916       0.88867540737745832     
 PAO|LS| adapt: energies:   -7.7922699773769040       -7.7923197133599329       -7.7922683255638461     
 PAO|LS| adapt: suggested step_size:   0.44070867188491453     
 PAO|LS| adapt: predicted energy  -7.7923197167326395     
 PAO| ======================= Iteration:        25 =============================

     Lanczos converged:  T threshold:   0.100E-02
     Est. extremal eigenvalues:    0.277E+01   0.181E+00
     Est. condition number :    0.152E+02
     NS sqrt iter    1 1.00000000   0.705E+00       0.002       42.970
     NS sqrt iter    2 1.00000000   0.329E+00       0.002       67.610
     NS sqrt iter    3 1.00000000   0.748E-01       0.002       65.565
     NS sqrt iter    4 1.00000000   0.180E-02       0.002       66.899
     NS sqrt iter    5 1.00000000   0.530E-07       0.001       47.827
     Final NS sqrt iter    5 1.00000000   0.475E-09

     Est. extremal eigenvalues     -0.93626     1.69786  converged:  T
     TRS4 it   1 1.00000000   0.876E+00       0.001       16.128   0.100E-07
     TRS4 it   2 1.00000000   0.617E+00       0.001       32.256   0.100E-07
     TRS4 it   3 1.00000000   0.419E+00       0.001       32.256   0.100E-07
     TRS4 it   4 1.00000000   0.212E+00       0.001       32.256   0.100E-07
     TRS4 it   5 1.00000000   0.672E-01       0.001       32.256   0.100E-07
     TRS4 it   6 1.00000000   0.852E-02       0.001       32.256   0.100E-07
     TRS4 it   7 1.00000000   0.181E-03       0.001       32.256   0.100E-07
     TRS4 it   8 1.00000000   0.114E-06       0.001       32.256   0.100E-07
     TRS4 it   9 1.00000000   0.560E-13       0.001       32.256   0.100E-07
     Final TRS4 iteration    9 1.00000000   0.560E-13
     Chemical potential (mu):       0.01298
 
 PAO| energy:  -7.7923197154106827      penalty:   1.3869742372315889E-005
 PAO|CG| trace_G_new    8.0753493218302304E-005
 PAO|CG| trace_G_prev    2.2442229700826309E-004
 PAO|CG| trace_G_mix    7.2161104150933757E-007
 PAO|CG| trace_D    3.1658898950437115E-004
 PAO|CG| trace_D_Gnew  -3.6425767898912701E-007
 PAO|CG| beta:   0.35661288224781978     
 PAO| norm of gradient:   8.9862947435693594E-003
 PAO| energy improvement:  -4.9738033778723434E-005
 PAO| step     25                   -7.792319715  0.562E-03  0.441E+00     0.081
 PAO|LS| adapt:  T F F
 PAO|LS| adapt: scan_steps:    0.0000000000000000        0.0000000000000000        0.0000000000000000     
 PAO|LS| adapt: energies:   -7.7923197154106827        0.0000000000000000        0.0000000000000000     
 PAO| ======================= Iteration:        26 =============================

     Lanczos converged:  T threshold:   0.100E-02
     Est. extremal eigenvalues:    0.276E+01   0.181E+00
     Est. condition number :    0.152E+02
     NS sqrt iter    1 1.00000000   0.705E+00       0.002       41.710
     NS sqrt iter    2 1.00000000   0.329E+00       0.002       60.818
     NS sqrt iter    3 1.00000000   0.747E-01       0.002       67.583
     NS sqrt iter    4 1.00000000   0.180E-02       0.002       67.190
     NS sqrt iter    5 1.00000000   0.527E-07       0.001       47.514
     Final NS sqrt iter    5 1.00000000   0.473E-09

     Est. extremal eigenvalues     -0.93626     1.69761  converged:  T
     TRS4 it   1 1.00000000   0.876E+00       0.001       16.128   0.100E-07
     TRS4 it   2 1.00000000   0.617E+00       0.001       32.256   0.100E-07
     TRS4 it   3 1.00000000   0.419E+00       0.001       32.256   0.100E-07
     TRS4 it   4 1.00000000   0.211E+00       0.001       32.256   0.100E-07
     TRS4 it   5 1.00000000   0.671E-01       0.001       32.256   0.100E-07
     TRS4 it   6 1.00000000   0.850E-02       0.001       32.256   0.100E-07
     TRS4 it   7 1.00000000   0.180E-03       0.001       32.256   0.100E-07
     TRS4 it   8 1.00000000   0.113E-06       0.001       32.256   0.100E-07
     TRS4 it   9 1.00000000   0.545E-13       0.001       32.256   0.100E-07
     Final TRS4 iteration    9 1.00000000   0.545E-13
     Chemical potential (mu):       0.01310
 
 PAO| energy:  -7.7923239509659421      penalty:   1.3146471247640300E-005
 PAO|LS| adapt:  T T F
 PAO|LS| adapt: scan_steps:    0.0000000000000000       0.44070867188491453        0.0000000000000000     
 PAO|LS| adapt: energies:   -7.7923197154106827       -7.7923239509659421        0.0000000000000000     
 PAO| ======================= Iteration:        27 =============================

     Lanczos converged:  T threshold:   0.100E-02
     Est. extremal eigenvalues:    0.276E+01   0.182E+00
     Est. condition number :    0.152E+02
     NS sqrt iter    1 1.00000000   0.705E+00       0.002       40.636
     NS sqrt iter    2 1.00000000   0.329E+00       0.002       62.985
     NS sqrt iter    3 1.00000000   0.746E-01       0.002       67.439
     NS sqrt iter    4 1.00000000   0.179E-02       0.002       67.321
     NS sqrt iter    5 1.00000000   0.524E-07       0.001       47.309
     Final NS sqrt iter    5 1.00000000   0.472E-09

     Est. extremal eigenvalues     -0.93626     1.69736  converged:  T
     TRS4 it   1 1.00000000   0.876E+00       0.001       16.128   0.100E-07
     TRS4 it   2 1.00000000   0.617E+00       0.001       32.256   0.100E-07
     TRS4 it   3 1.00000000   0.419E+00       0.001       32.256   0.100E-07
     TRS4 it   4 1.00000000   0.211E+00       0.001       32.256   0.100E-07
     TRS4 it   5 1.00000000   0.671E-01       0.001       32.256   0.100E-07
     TRS4 it   6 1.00000000   0.848E-02       0.001       32.256   0.100E-07
     TRS4 it   7 1.00000000   0.179E-03       0.001       32.256   0.100E-07
     TRS4 it   8 1.00000000   0.111E-06       0.001       32.256   0.100E-07
     TRS4 it   9 1.00000000   0.533E-13       0.001       32.256   0.100E-07
     Final TRS4 iteration    9 1.00000000   0.533E-13
     Chemical potential (mu):       0.01323
 
 PAO| energy:  -7.7922652583270002      penalty:   1.2446899020025577E-005
 PAO|LS| adapt:  T T T
 PAO|LS| adapt: scan_steps:    0.0000000000000000       0.44070867188491453       0.88141734376982905     
 PAO|LS| adapt: energies:   -7.7923197154106827       -7.7923239509659421       -7.7922652583270002     
 PAO|LS| adapt: suggested step_size:   0.25001744572597351     
 PAO|LS| adapt: predicted energy  -7.7923298417554383     
 PAO| ======================= Iteration:        28 =============================

     Lanczos converged:  T threshold:   0.100E-02
     Est. extremal eigenvalues:    0.276E+01   0.181E+00
     Est. condition number :    0.152E+02
     NS sqrt iter    1 1.00000000   0.705E+00       0.001       43.077
     NS sqrt iter    2 1.00000000   0.329E+00       0.002       67.235
     NS sqrt iter    3 1.00000000   0.748E-01       0.002       66.033
     NS sqrt iter    4 1.00000000   0.180E-02       0.002       64.646
     NS sqrt iter    5 1.00000000   0.528E-07       0.001       47.561
     Final NS sqrt iter    5 1.00000000   0.474E-09

     Est. extremal eigenvalues     -0.93626     1.69772  converged:  T
     TRS4 it   1 1.00000000   0.876E+00       0.001       16.128   0.100E-07
     TRS4 it   2 1.00000000   0.617E+00       0.001       32.256   0.100E-07
     TRS4 it   3 1.00000000   0.419E+00       0.001       32.256   0.100E-07
     TRS4 it   4 1.00000000   0.211E+00       0.001       32.256   0.100E-07
     TRS4 it   5 1.00000000   0.672E-01       0.001       32.256   0.100E-07
     TRS4 it   6 1.00000000   0.851E-02       0.001       32.256   0.100E-07
     TRS4 it   7 1.00000000   0.180E-03       0.001       32.256   0.100E-07
     TRS4 it   8 1.00000000   0.113E-06       0.001       32.256   0.100E-07
     TRS4 it   9 1.00000000   0.555E-13       0.001       32.256   0.100E-07
     Final TRS4 iteration    9 1.00000000   0.555E-13
     Chemical potential (mu):       0.01305
 
 PAO| energy:  -7.7923298323609025      penalty:   1.3456497292592726E-005
 PAO|CG| trace_G_new    3.2110463120190813E-005
 PAO|CG| trace_G_prev    8.0753493218302304E-005
 PAO|CG| trace_G_mix    5.3437748912443708E-008
 PAO|CG| trace_D    1.2127478289365095E-004
 PAO|CG| trace_D_Gnew  -2.6428283980419961E-008
 PAO|CG| beta:   0.39697385331205504     
 PAO| norm of gradient:   5.6666094907087796E-003
 PAO| energy improvement:  -1.0116950219796195E-005
 PAO| step     28                   -7.792329832  0.354E-03  0.250E+00     0.079
 PAO|LS| adapt:  T F F
 PAO|LS| adapt: scan_steps:    0.0000000000000000        0.0000000000000000        0.0000000000000000     
 PAO|LS| adapt: energies:   -7.7923298323609025        0.0000000000000000        0.0000000000000000     
 PAO| ======================= Iteration:        29 =============================

     Lanczos converged:  T threshold:   0.100E-02
     Est. extremal eigenvalues:    0.276E+01   0.181E+00
     Est. condition number :    0.152E+02
     NS sqrt iter    1 1.00000000   0.705E+00       0.002       42.909
     NS sqrt iter    2 1.00000000   0.329E+00       0.002       67.320
     NS sqrt iter    3 1.00000000   0.747E-01       0.002       68.189
     NS sqrt iter    4 1.00000000   0.180E-02       0.002       66.207
     NS sqrt iter    5 1.00000000   0.527E-07       0.001       47.756
     Final NS sqrt iter    5 1.00000000   0.473E-09

     Est. extremal eigenvalues     -0.93626     1.69769  converged:  T
     TRS4 it   1 1.00000000   0.876E+00       0.001       16.128   0.100E-07
     TRS4 it   2 1.00000000   0.617E+00       0.001       32.256   0.100E-07
     TRS4 it   3 1.00000000   0.419E+00       0.001       32.256   0.100E-07
     TRS4 it   4 1.00000000   0.211E+00       0.001       32.256   0.100E-07
     TRS4 it   5 1.00000000   0.671E-01       0.001       32.256   0.100E-07
     TRS4 it   6 1.00000000   0.849E-02       0.001       32.256   0.100E-07
     TRS4 it   7 1.00000000   0.179E-03       0.001       32.256   0.100E-07
     TRS4 it   8 1.00000000   0.112E-06       0.001       32.256   0.100E-07
     TRS4 it   9 1.00000000   0.542E-13       0.001       32.256   0.100E-07
     Final TRS4 iteration    9 1.00000000   0.542E-13
     Chemical potential (mu):       0.01318
 
 PAO| energy:  -7.7923369094657451      penalty:   1.3023677062876973E-005
 PAO|LS| adapt:  T T F
 PAO|LS| adapt: scan_steps:    0.0000000000000000       0.25001744572597351        0.0000000000000000     
 PAO|LS| adapt: energies:   -7.7923298323609025       -7.7923369094657451        0.0000000000000000     
 PAO| ======================= Iteration:        30 =============================

     Lanczos converged:  T threshold:   0.100E-02
     Est. extremal eigenvalues:    0.276E+01   0.181E+00
     Est. condition number :    0.152E+02
     NS sqrt iter    1 1.00000000   0.705E+00       0.002       38.999
     NS sqrt iter    2 1.00000000   0.329E+00       0.002       64.083
     NS sqrt iter    3 1.00000000   0.746E-01       0.002       67.639
     NS sqrt iter    4 1.00000000   0.180E-02       0.002       62.285
     NS sqrt iter    5 1.00000000   0.527E-07       0.002       45.189
     Final NS sqrt iter    5 1.00000000   0.473E-09

     Est. extremal eigenvalues     -0.93626     1.69765  converged:  T
     TRS4 it   1 1.00000000   0.876E+00       0.001       16.128   0.100E-07
     TRS4 it   2 1.00000000   0.617E+00       0.001       32.256   0.100E-07
     TRS4 it   3 1.00000000   0.419E+00       0.001       32.256   0.100E-07
     TRS4 it   4 1.00000000   0.211E+00       0.001       32.256   0.100E-07
     TRS4 it   5 1.00000000   0.670E-01       0.001       32.256   0.100E-07
     TRS4 it   6 1.00000000   0.846E-02       0.001       32.256   0.100E-07
     TRS4 it   7 1.00000000   0.178E-03       0.001       32.256   0.100E-07
     TRS4 it   8 1.00000000   0.111E-06       0.001       32.256   0.100E-07
     TRS4 it   9 1.00000000   0.526E-13       0.001       32.256   0.100E-07
     Final TRS4 iteration    9 1.00000000   0.526E-13
     Chemical potential (mu):       0.01332
 
 PAO| energy:  -7.7923420793836558      penalty:   1.2598761585718980E-005
 PAO|LS| adapt:  T T F
 PAO|LS| adapt: scan_steps:    0.0000000000000000       0.50003489145194702        0.0000000000000000     
 PAO|LS| adapt: energies:   -7.7923298323609025       -7.7923420793836558        0.0000000000000000     
 PAO| ======================= Iteration:        31 =============================

     Lanczos converged:  T threshold:   0.100E-02
     Est. extremal eigenvalues:    0.276E+01   0.181E+00
     Est. condition number :    0.152E+02
     NS sqrt iter    1 1.00000000   0.704E+00       0.001       43.041
     NS sqrt iter    2 1.00000000   0.328E+00       0.002       64.547
     NS sqrt iter    3 1.00000000   0.745E-01       0.002       65.112
     NS sqrt iter    4 1.00000000   0.179E-02       0.002       67.787
     NS sqrt iter    5 1.00000000   0.526E-07       0.001       47.749
     Final NS sqrt iter    5 1.00000000   0.463E-09

     Est. extremal eigenvalues     -0.93627     1.69758  converged:  T
     TRS4 it   1 1.00000000   0.876E+00       0.001       16.128   0.100E-07
     TRS4 it   2 1.00000000   0.616E+00       0.001       32.256   0.100E-07
     TRS4 it   3 1.00000000   0.419E+00       0.001       32.256   0.100E-07
     TRS4 it   4 1.00000000   0.211E+00       0.001       32.256   0.100E-07
     TRS4 it   5 1.00000000   0.668E-01       0.001       32.256   0.100E-07
     TRS4 it   6 1.00000000   0.842E-02       0.001       32.256   0.100E-07
     TRS4 it   7 1.00000000   0.176E-03       0.001       32.256   0.100E-07
     TRS4 it   8 1.00000000   0.108E-06       0.001       32.256   0.100E-07
     TRS4 it   9 1.00000000   0.501E-13       0.001       32.256   0.100E-07
     Final TRS4 iteration    9 1.00000000   0.501E-13
     Chemical potential (mu):       0.01358
 
 PAO| energy:  -7.7923466984032137      penalty:   1.1772481524731045E-005
 PAO|LS| Need extra step
 PAO|LS| adapt:  T T F
 PAO|LS| adapt: scan_steps:    0.0000000000000000        1.0000697829038940        0.0000000000000000     
 PAO|LS| adapt: energies:   -7.7923298323609025       -7.7923466984032137        0.0000000000000000     
 PAO| ======================= Iteration:        32 =============================

     Lanczos converged:  T threshold:   0.100E-02
     Est. extremal eigenvalues:    0.276E+01   0.181E+00
     Est. condition number :    0.152E+02
     NS sqrt iter    1 1.00000000   0.703E+00       0.002       42.174
     NS sqrt iter    2 1.00000000   0.328E+00       0.002       65.618
     NS sqrt iter    3 1.00000000   0.742E-01       0.002       66.467
     NS sqrt iter    4 1.00000000   0.179E-02       0.002       67.567
     NS sqrt iter    5 1.00000000   0.525E-07       0.001       47.685
     Final NS sqrt iter    5 1.00000000   0.468E-09

     Est. extremal eigenvalues     -0.93627     1.69741  converged:  T
     TRS4 it   1 1.00000000   0.876E+00       0.001       16.128   0.100E-07
     TRS4 it   2 1.00000000   0.616E+00       0.001       32.256   0.100E-07
     TRS4 it   3 1.00000000   0.418E+00       0.001       32.256   0.100E-07
     TRS4 it   4 1.00000000   0.211E+00       0.001       32.256   0.100E-07
     TRS4 it   5 1.00000000   0.665E-01       0.001       32.006   0.100E-07
     TRS4 it   6 1.00000000   0.834E-02       0.001       32.256   0.100E-07
     TRS4 it   7 1.00000000   0.172E-03       0.001       32.256   0.100E-07
     TRS4 it   8 1.00000000   0.103E-06       0.001       32.256   0.100E-07
     TRS4 it   9 1.00000000   0.457E-13       0.001       32.256   0.100E-07
     Final TRS4 iteration    9 1.00000000   0.457E-13
     Chemical potential (mu):       0.01412
 
 PAO| energy:  -7.7923330590166140      penalty:   1.0212992244371946E-005
 PAO|LS| Need extra step
 PAO|LS| adapt:  T T T
 PAO|LS| adapt: scan_steps:    0.0000000000000000        1.0000697829038940        2.0001395658077881     
 PAO|LS| adapt: energies:   -7.7923298323609025       -7.7923466984032137       -7.7923330590166140     
 PAO|LS| adapt: suggested step_size:    1.0529600550966927     
 PAO|LS| adapt: predicted energy  -7.7923467410649110     
 PAO| ======================= Iteration:        33 =============================

     Lanczos converged:  T threshold:   0.100E-02
     Est. extremal eigenvalues:    0.276E+01   0.181E+00
     Est. condition number :    0.152E+02
     NS sqrt iter    1 1.00000000   0.704E+00       0.002       39.305
     NS sqrt iter    2 1.00000000   0.328E+00       0.002       64.835
     NS sqrt iter    3 1.00000000   0.745E-01       0.002       67.904
     NS sqrt iter    4 1.00000000   0.179E-02       0.002       67.568
     NS sqrt iter    5 1.00000000   0.526E-07       0.002       43.561
     Final NS sqrt iter    5 1.00000000   0.463E-09

     Est. extremal eigenvalues     -0.93627     1.69757  converged:  T
     TRS4 it   1 1.00000000   0.876E+00       0.001       16.128   0.100E-07
     TRS4 it   2 1.00000000   0.616E+00       0.001       32.256   0.100E-07
     TRS4 it   3 1.00000000   0.419E+00       0.001       32.256   0.100E-07
     TRS4 it   4 1.00000000   0.211E+00       0.001       32.256   0.100E-07
     TRS4 it   5 1.00000000   0.668E-01       0.001       32.256   0.100E-07
     TRS4 it   6 1.00000000   0.842E-02       0.001       32.256   0.100E-07
[...]
 PAO| ======================= Iteration:       421 =============================

     Lanczos converged:  T threshold:   0.100E-02
     Est. extremal eigenvalues:    0.250E+01   0.190E+00
     Est. condition number :    0.131E+02
     NS sqrt iter    1 1.00000000   0.634E+00       0.002       39.399
     NS sqrt iter    2 1.00000000   0.276E+00       0.002       64.968
     NS sqrt iter    3 1.00000000   0.490E-01       0.002       61.746
     NS sqrt iter    4 1.00000000   0.777E-03       0.002       63.242
     NS sqrt iter    5 1.00000000   0.617E-08       0.001       27.671
     Final NS sqrt iter    5 1.00000000   0.365E-09

     Est. extremal eigenvalues     -0.93595     1.63214  converged:  T
     TRS4 it   1 1.00000000   0.881E+00       0.001       16.128   0.100E-07
     TRS4 it   2 1.00000000   0.633E+00       0.001       29.043   0.100E-07
     TRS4 it   3 1.00000000   0.454E+00       0.001       30.558   0.100E-07
     TRS4 it   4 1.00000000   0.276E+00       0.001       31.308   0.100E-07
     TRS4 it   5 1.00000000   0.136E+00       0.001       32.256   0.100E-07
     TRS4 it   6 1.00000000   0.418E-01       0.001       32.256   0.100E-07
     TRS4 it   7 1.00000000   0.545E-02       0.001       32.256   0.100E-07
     TRS4 it   8 1.00000000   0.125E-03       0.001       32.256   0.100E-07
     TRS4 it   9 1.00000000   0.701E-07       0.001       32.256   0.100E-07
     Final TRS4 iteration    9 1.00000000   0.701E-07
     Chemical potential (mu):      -0.07280
 
 PAO| energy:  -7.7914595096572237      penalty:   2.0214986424518829E-008
 PAO|LS| Need extra step
 PAO|LS| adapt:  T T T
 PAO|LS| adapt: scan_steps:    0.0000000000000000       0.20000000000000001       0.40000000000000002     
 PAO|LS| adapt: energies:   -7.7914595060967464       -7.7914595109079796       -7.7914595096572237     
 PAO|LS| adapt: suggested step_size:   0.25873447095195695     
 PAO|LS| adapt: predicted energy  -7.7914595111693830     
 PAO| ======================= Iteration:       422 =============================

     Lanczos converged:  T threshold:   0.100E-02
     Est. extremal eigenvalues:    0.250E+01   0.190E+00
     Est. condition number :    0.131E+02
     NS sqrt iter    1 1.00000000   0.634E+00       0.002       34.632
     NS sqrt iter    2 1.00000000   0.276E+00       0.002       63.233
     NS sqrt iter    3 1.00000000   0.490E-01       0.002       61.660
     NS sqrt iter    4 1.00000000   0.777E-03       0.002       59.775
     NS sqrt iter    5 1.00000000   0.617E-08       0.002       24.987
     Final NS sqrt iter    5 1.00000000   0.365E-09

     Est. extremal eigenvalues     -0.93595     1.63214  converged:  T
     TRS4 it   1 1.00000000   0.881E+00       0.001       16.128   0.100E-07
     TRS4 it   2 1.00000000   0.633E+00       0.001       32.121   0.100E-07
     TRS4 it   3 1.00000000   0.454E+00       0.001       32.256   0.100E-07
     TRS4 it   4 1.00000000   0.276E+00       0.001       32.256   0.100E-07
     TRS4 it   5 1.00000000   0.136E+00       0.001       32.256   0.100E-07
     TRS4 it   6 1.00000000   0.418E-01       0.001       32.256   0.100E-07
     TRS4 it   7 1.00000000   0.545E-02       0.001       32.256   0.100E-07
     TRS4 it   8 1.00000000   0.125E-03       0.001       32.256   0.100E-07
     TRS4 it   9 1.00000000   0.701E-07       0.001       32.256   0.100E-07
     Final TRS4 iteration    9 1.00000000   0.701E-07
     Chemical potential (mu):      -0.07280
 
 PAO| energy:  -7.7914595111693892      penalty:   2.0447672841637705E-008
 PAO|CG| warming up with steepest descent
 PAO|CG| beta:    0.0000000000000000     
 PAO| norm of gradient:   1.2888528181407915E-004
 PAO| energy improvement:  -5.0726427502922888E-009
 PAO| step    422                   -7.791459511  0.806E-05  0.259E+00     0.113
 PAO| converged after          422  steps :-)
 PAO| Recalculating energy after mixing.

     Lanczos converged:  T threshold:   0.100E-02
     Est. extremal eigenvalues:    0.250E+01   0.190E+00
     Est. condition number :    0.131E+02
     NS sqrt iter    1 1.00000000   0.634E+00       0.002       36.938
     NS sqrt iter    2 1.00000000   0.276E+00       0.002       63.738
     NS sqrt iter    3 1.00000000   0.490E-01       0.002       64.736
     NS sqrt iter    4 1.00000000   0.777E-03       0.002       65.082
     NS sqrt iter    5 1.00000000   0.617E-08       0.001       27.930
     Final NS sqrt iter    5 1.00000000   0.365E-09

     Est. extremal eigenvalues     -0.93595     1.63214  converged:  T
     TRS4 it   1 1.00000000   0.881E+00       0.001       16.128   0.100E-07
     TRS4 it   2 1.00000000   0.633E+00       0.001       32.256   0.100E-07
     TRS4 it   3 1.00000000   0.454E+00       0.001       32.256   0.100E-07
     TRS4 it   4 1.00000000   0.276E+00       0.001       32.256   0.100E-07
     TRS4 it   5 1.00000000   0.136E+00       0.001       32.256   0.100E-07
     TRS4 it   6 1.00000000   0.418E-01       0.001       32.256   0.100E-07
     TRS4 it   7 1.00000000   0.545E-02       0.001       32.256   0.100E-07
     TRS4 it   8 1.00000000   0.125E-03       0.001       32.256   0.100E-07
     TRS4 it   9 1.00000000   0.701E-07       0.001       32.256   0.100E-07
     Final TRS4 iteration    9 1.00000000   0.701E-07
     Chemical potential (mu):      -0.07280
 
 PAO| energy:  -7.7914595099012161      penalty:   2.0661925735179734E-008
 PAO| Writing restart file.
     Est. extremal eigenvalues     -0.93595     1.63214  converged:  T
     TRS4 it   1 1.00000000   0.881E+00       0.001       16.128   0.100E-07
     TRS4 it   2 1.00000000   0.633E+00       0.001       32.122   0.100E-07
     TRS4 it   3 1.00000000   0.454E+00       0.001       32.256   0.100E-07
     TRS4 it   4 1.00000000   0.276E+00       0.001       32.256   0.100E-07
     TRS4 it   5 1.00000000   0.136E+00       0.001       32.256   0.100E-07
     TRS4 it   6 1.00000000   0.418E-01       0.001       32.212   0.100E-07
     TRS4 it   7 1.00000000   0.545E-02       0.001       31.417   0.100E-07
     TRS4 it   8 1.00000000   0.125E-03       0.001       32.256   0.100E-07
     TRS4 it   9 1.00000000   0.701E-07       0.001       32.256   0.100E-07
     Final TRS4 iteration    9 1.00000000   0.701E-07
     Chemical potential (mu):      -0.07280

 SCF     1       -34.450252869       -34.450252869    2.224699

*********************************************************
 Using MIXING_FRACTION=0.450 to mix KS matrix:  iscf=  2
 KS_nw=0.450*KS + 0.550*KS_old
*********************************************************
     Est. extremal eigenvalues     -0.93595     1.63214  converged:  T
     TRS4 it   1 1.00000000   0.881E+00       0.001       16.128   0.100E-07
     TRS4 it   2 1.00000000   0.633E+00       0.001       32.256   0.100E-07
     TRS4 it   3 1.00000000   0.454E+00       0.001       32.256   0.100E-07
     TRS4 it   4 1.00000000   0.276E+00       0.001       32.256   0.100E-07
     TRS4 it   5 1.00000000   0.136E+00       0.001       32.256   0.100E-07
     TRS4 it   6 1.00000000   0.418E-01       0.001       32.256   0.100E-07
     TRS4 it   7 1.00000000   0.545E-02       0.001       32.256   0.100E-07
     TRS4 it   8 1.00000000   0.125E-03       0.001       31.869   0.100E-07
     TRS4 it   9 1.00000000   0.702E-07       0.001       32.217   0.100E-07
     Final TRS4 iteration    9 1.00000000   0.702E-07
     Chemical potential (mu):      -0.07279

 SCF     2       -34.450252869        -0.000000000    2.324387

 PAO| Storing density matrix for ASPC guess in slot:           1

 ENERGY| Total FORCE_EVAL ( QS ) energy (a.u.):              -34.450252868795971


 -------------------------------------------------------------------------------
 -                                                                             -
 -                                DBCSR STATISTICS                             -
 -                                                                             -
 -------------------------------------------------------------------------------
 COUNTER                                    TOTAL       BLAS       SMM       ACC
 flops     5 x     5 x     4                20000     100.0%      0.0%      0.0%
 flops    13 x     5 x     4                20800     100.0%      0.0%      0.0%
 flops     5 x    13 x     4                20800     100.0%      0.0%      0.0%
 flops    13 x    13 x     4                40560     100.0%      0.0%      0.0%
 flops     4 x     4 x     5              3313920     100.0%      0.0%      0.0%
 flops     5 x     4 x     5              4048000     100.0%      0.0%      0.0%
 flops     4 x     4 x    13              4308096     100.0%      0.0%      0.0%
 flops    13 x     4 x     5              5262400     100.0%      0.0%      0.0%
 flops     5 x     4 x    13              5262400     100.0%      0.0%      0.0%
 flops     5 x     4 x     4              6740160     100.0%      0.0%      0.0%
 flops    13 x     4 x    13              6841120     100.0%      0.0%      0.0%
 flops    13 x     4 x     4              9089600     100.0%      0.0%      0.0%
 flops     4 x     4 x     4            422308224     100.0%      0.0%      0.0%
 flops inhomo. stacks                           0       0.0%      0.0%      0.0%
 flops total                       467.276080E+06     100.0%      0.0%      0.0%
 flops max/rank                    467.276080E+06     100.0%      0.0%      0.0%
 matmuls inhomo. stacks                         0       0.0%      0.0%      0.0%
 matmuls total                            3440077     100.0%      0.0%      0.0%
 number of processed stacks                 27485     100.0%      0.0%      0.0%
 average stack size                                   125.2       0.0       0.0
 marketing flops                   758.152512E+06
 -------------------------------------------------------------------------------
 # multiplications                          22844
 max memory usage/rank             327.856128E+06
 # max total images/rank                        1
 # max 3D layers                                1
 # MPI messages exchanged                       0
 MPI messages size (bytes):
  total size                         0.000000E+00
  min size                           0.000000E+00
  max size                           0.000000E+00
  average size                       0.000000E+00
 MPI breakdown and total messages size (bytes):
             size <=      128                   0                        0
       128 < size <=     8192                   0                        0
      8192 < size <=    32768                   0                        0
     32768 < size <=   131072                   0                        0
    131072 < size <=  4194304                   0                        0
   4194304 < size <= 16777216                   0                        0
  16777216 < size                               0                        0
 -------------------------------------------------------------------------------

 MEMORY| Estimated peak process memory [MiB]                                 313

 -------------------------------------------------------------------------------
 -                                                                             -
 -                           R E F E R E N C E S                               -
 -                                                                             -
 -------------------------------------------------------------------------------
 
 CP2K version 7.0 (Development Version), the CP2K developers group (2018).
 CP2K is freely available from https://www.cp2k.org/ .

 Schuett, O; VandeVondele, J. 
 Journal of Chemical Theory and Computation, 14, (2018). 
 Machine Learning Adaptive Basis Sets for Efficient Large Scale Density Functional Theory Simulation.
 https://dx.doi.org/10.1021/acs.jctc.8b00378


 Schuett, Ole; Messmer, Peter; Hutter, Juerg; VandeVondele, Joost. 
 Electronic Structure Calculations on Graphics Processing Units, John Wiley & Sons, Ltd, 173-190 (2016). 
 GPU-Accelerated Sparse Matrix-Matrix Multiplication for Linear Scaling Density Functional Theory.
 https://dx.doi.org/10.1002/9781118670712.ch8


 Borstnik, U; VandeVondele, J; Weber, V; Hutter, J. 
 PARALLEL COMPUTING, 40 (5-6), 47-58 (2014). 
 Sparse matrix multiplication: The distributed block-compressed sparse
 row library.
 https://dx.doi.org/10.1016/j.parco.2014.03.012


 Hutter, J; Iannuzzi, M; Schiffmann, F; VandeVondele, J. 
 WILEY INTERDISCIPLINARY REVIEWS-COMPUTATIONAL MOLECULAR SCIENCE, 4 (1), 15-25 (2014). 
 CP2K: atomistic simulations of condensed matter systems.
 https://dx.doi.org/10.1002/wcms.1159


 VandeVondele, J; Borstnik, U; Hutter, J. 
 JOURNAL OF CHEMICAL THEORY AND COMPUTATION, 8 (10), 3565-3573 (2012). 
 Linear Scaling Self-Consistent Field Calculations with Millions of Atoms
 in the Condensed Phase.
 https://dx.doi.org/10.1021/ct200897x


 VandeVondele, J; Hutter, J. 
 JOURNAL OF CHEMICAL PHYSICS, 127 (11), 114105 (2007). 
 Gaussian basis sets for accurate calculations on molecular systems in
 gas and condensed phases.
 https://dx.doi.org/10.1063/1.2770708


 Krack, M. 
 THEORETICAL CHEMISTRY ACCOUNTS, 114 (1-3), 145-152 (2005). 
 Pseudopotentials for H to Kr optimized for gradient-corrected
 exchange-correlation functionals.
 https://dx.doi.org/10.1007/s00214-005-0655-y


 VandeVondele, J; Krack, M; Mohamed, F; Parrinello, M; Chassaing, T;
 Hutter, J. COMPUTER PHYSICS COMMUNICATIONS, 167 (2), 103-128 (2005). 
 QUICKSTEP: Fast and accurate density functional calculations using a
 mixed Gaussian and plane waves approach.
 https://dx.doi.org/10.1016/j.cpc.2004.12.014


 Frigo, M; Johnson, SG. 
 PROCEEDINGS OF THE IEEE, 93 (2), 216-231 (2005). 
 The design and implementation of FFTW3.
 https://dx.doi.org/10.1109/JPROC.2004.840301


 Niklasson, AMN; Tymczak, CJ; Challacombe, M. 
 JOURNAL OF CHEMICAL PHYSICS, 118 (19), 8611-8620 (2003). 
 Trace resetting density matrix purification in O(N)
 self-consistent-field theory.
 https://dx.doi.org/10.1063/1.1559913


 Hartwigsen, C; Goedecker, S; Hutter, J. 
 PHYSICAL REVIEW B, 58 (7), 3641-3662 (1998). 
 Relativistic separable dual-space Gaussian pseudopotentials from H to Rn.
 https://dx.doi.org/10.1103/PhysRevB.58.3641


 Lippert, G; Hutter, J; Parrinello, M. 
 MOLECULAR PHYSICS, 92 (3), 477-487 (1997). 
 A hybrid Gaussian and plane wave density functional scheme.
 https://dx.doi.org/10.1080/002689797170220


 Perdew, JP; Burke, K; Ernzerhof, M. 
 PHYSICAL REVIEW LETTERS, 77 (18), 3865-3868 (1996). 
 Generalized gradient approximation made simple.
 https://dx.doi.org/10.1103/PhysRevLett.77.3865


 Goedecker, S; Teter, M; Hutter, J. 
 PHYSICAL REVIEW B, 54 (3), 1703-1710 (1996). 
 Separable dual-space Gaussian pseudopotentials.
 https://dx.doi.org/10.1103/PhysRevB.54.1703


 -------------------------------------------------------------------------------
 -                                                                             -
 -                                T I M I N G                                  -
 -                                                                             -
 -------------------------------------------------------------------------------
 SUBROUTINE                       CALLS  ASD         SELF TIME        TOTAL TIME
                                MAXIMUM       AVERAGE  MAXIMUM  AVERAGE  MAXIMUM
 CP2K                                 1  1.0    0.020    0.020   31.831   31.831
 qs_energies                          1  2.0    0.000    0.000   31.281   31.281
 ls_scf                               1  3.0    0.000    0.000   31.124   31.124
 ls_scf_main                          4  4.0    0.001    0.001   18.005   18.005
 ls_scf_dm_to_ks                      9  5.0    0.000    0.000   17.900   17.900
 qs_ks_update_qs_env                 10  6.0    0.000    0.000   14.427   14.427
 rebuild_ks_matrix                   10  7.0    0.000    0.000   14.427   14.427
 qs_ks_build_kohn_sham_matrix        10  8.0    0.001    0.001   14.427   14.427
 pao_update                           4  4.0    0.011    0.011   10.568   10.568
 pao_calc_energy                    425  5.0    0.004    0.004    9.512    9.512
 qs_vxc_create                       10  9.0    0.000    0.000    8.592    8.592
 xc_vxc_pw_create                    10 10.0    0.135    0.135    8.592    8.592
 dbcsr_multiply_generic           22844  8.4    0.499    0.499    8.162    8.162
 xc_rho_set_and_dset_create          10 11.0    0.035    0.035    6.164    6.164
 pw_transfer                        191 10.6    0.013    0.013    6.117    6.117
 fft_wrap_pw1pw2                    171 11.7    0.002    0.002    6.018    6.018
 qs_rho_update_rho                   10  6.0    0.000    0.000    5.941    5.941
 calculate_rho_elec                  10  7.0    4.621    4.621    5.941    5.941
 fft_wrap_pw1pw2_200                111 12.8    0.345    0.345    5.751    5.751
 sum_up_and_integrate                10  9.0    0.019    0.019    4.880    4.880
 integrate_v_rspace                  10 10.0    4.173    4.173    4.860    4.860
 pao_dm_trs4                        425  6.0    0.003    0.003    4.834    4.834
 ls_scf_init_matrix_S               429  7.0    0.004    0.004    4.675    4.675
 density_matrix_trs4                434  7.0    0.190    0.190    4.651    4.651
 pao_rebuild_S                      425  6.0    0.002    0.002    4.633    4.633
 matrix_sqrt_Newton_Schulz          429  8.0    0.113    0.113    4.224    4.224
 xc_functional_eval                  10 12.0    0.000    0.000    4.189    4.189
 pbe_lda_eval                        10 13.0    4.189    4.189    4.189    4.189
 multiply_cannon                  22844  9.4    1.311    1.311    3.827    3.827
 fft3d_s                            172 13.6    3.257    3.257    3.284    3.284
 make_m2s                         45688  9.4    0.201    0.201    2.604    2.604
 pao_guess_initial_P                  1  4.0    0.000    0.000    2.474    2.474
 pao_read_preopt_dm                   1  5.0    0.000    0.000    2.474    2.474
 make_images                      45688 10.4    0.617    0.617    2.285    2.285
 multiply_cannon_multrec          22844 10.4    1.334    1.334    1.459    1.459
 density_rs2pw                       10  8.0    0.001    0.001    1.307    1.307
 pw_gather_s                         81 13.1    1.300    1.300    1.300    1.300
 arnoldi_extremal                   863  8.5    0.005    0.005    1.144    1.144
 arnoldi_normal_ev                  863  9.5    0.013    0.013    1.139    1.139
 pw_scatter_s                        90 14.2    1.082    1.082    1.082    1.082
 pao_calc_AB                        560  5.8    0.001    0.001    1.034    1.034
 pao_calc_AB_direct                 560  6.8    0.030    0.030    1.033    1.033
 pao_calc_grad_lnv_wrt_AB           134  7.0    0.008    0.008    0.974    0.974
 build_subspace                     863 10.5    0.061    0.061    0.856    0.856
 dbcsr_matrix_vector_mult         20706 11.5    0.119    0.119    0.769    0.769
 dbcsr_finalize                   54004  9.6    0.124    0.124    0.753    0.753
 dbcsr_create_new                174757 10.7    0.382    0.382    0.711    0.711
 potential_pw2rs                     10 11.0    0.003    0.003    0.686    0.686
 -------------------------------------------------------------------------------

 The number of warnings for this run is : 0
 
 -------------------------------------------------------------------------------
  **** **** ******  **  PROGRAM ENDED AT                 2019-03-28 17:33:58.879
 ***** ** ***  *** **   PROGRAM RAN ON            oleschuett.zrh.corp.google.com
 **    ****   ******    PROGRAM RAN BY                                oleschuett
 ***** **    ** ** **   PROGRAM PROCESS ID                                 34087
  **** **  *******  **  PROGRAM STOPPED IN /usr/local/google/home/oleschuett/git
                                           /pao_ml_equivar/2H2O_rotations/phi_33
