 DBCSR| CPU Multiplication driver                                           XSMM (U)
 DBCSR| Multrec recursion limit                                              512 (U)
 DBCSR| Multiplication stack size                                           1000 (D)
 DBCSR| Maximum elements for images                                    UNLIMITED (U)
 DBCSR| Multiplicative factor virtual images                                   1 (U)
 DBCSR| Use multiplication densification                                       T (D)
 DBCSR| Multiplication size stacks                                             3 (U)
 DBCSR| Use memory pool for CPU allocation                                     F (U)
 DBCSR| OMP: Current number of threads                                         1
 DBCSR| OMP: Max number of threads                                             1
 DBCSR| Split modifier for TAS multiplication algorithm                  1.0E+00 (U)


  **** **** ******  **  PROGRAM STARTED AT               2023-02-01 10:43:54.935
 ***** ** ***  *** **   PROGRAM STARTED ON                                moritz
 **    ****   ******    PROGRAM STARTED BY                                   ole
 ***** **    ** ** **   PROGRAM PROCESS ID                                148522
  **** **  *******  **  PROGRAM STARTED IN /home/ole/git/pao_ml_equivar/2H2O_rot
                                           ations/rand_17

 CP2K| version string:                 CP2K version 2023.1 (Development Version)
 CP2K| source code revision number:                                  git:03b4147
 CP2K| cp2kflags: omp libint fftw3 libxc quip xsmm spglib libvori libbqb libtorc
 CP2K|            h
 CP2K| is freely available from                            https://www.cp2k.org/
 CP2K| Program compiled at                           Mi 01 Feb 2023 10:36:52 CET
 CP2K| Program compiled on                                                moritz
 CP2K| Program compiled for                                                local
 CP2K| Data directory path                               /home/ole/git/cp2k/data
 CP2K| Input file name                                            2H2O_pao44.inp

 GLOBAL| Force Environment number                                              1
 GLOBAL| Basis set file name                                        BASIS_MOLOPT
 GLOBAL| Potential file name                                      GTH_POTENTIALS
 GLOBAL| MM Potential file name                                     MM_POTENTIAL
 GLOBAL| Coordinate file name                                         coords.xyz
 GLOBAL| Method name                                                        CP2K
 GLOBAL| Project name                                                 2H2O_pao44
 GLOBAL| Run type                                                         ENERGY
 GLOBAL| FFT library                                                       FFTW3
 GLOBAL| Diagonalization library                                       ScaLAPACK
 GLOBAL| DGEMM library                                                      BLAS
 GLOBAL| Orthonormality check for eigenvectors                          DISABLED
 GLOBAL| Matrix multiplication library                                 ScaLAPACK
 GLOBAL| All-to-all communication in single precision                          F
 GLOBAL| FFTs using library dependent lengths                                  F
 GLOBAL| Grid backend                                                       AUTO
 GLOBAL| Global print level                                                  LOW
 GLOBAL| MPI I/O enabled                                                       T
 GLOBAL| Total number of message passing processes                             1
 GLOBAL| Number of threads for this process                                    1
 GLOBAL| This output is from process                                           0
 GLOBAL| Stack size for threads created by OpenMP (OMP_STACKSIZE)        default
 GLOBAL| CPU model name           AMD Ryzen Threadripper 3970X 32-Core Processor
 GLOBAL| CPUID                                                              1002
 GLOBAL| Compiled for CPUID                                                    0

 *** HINT in environment.F:884 :: The compiler target flags (generic) used ***
 *** to build this binary cannot exploit all extensions of this CPU model  ***
 *** (x86_avx2). Consider compiler target flags as part of FCFLAGS and     ***
 *** CFLAGS (ARCH file).                                                   ***


 MEMORY| system memory details [Kb]
 MEMORY|                        rank 0           min           max       average
 MEMORY| MemTotal            131773860     131773860     131773860     131773860
 MEMORY| MemFree             115382104     115382104     115382104     115382104
 MEMORY| Buffers                301492        301492        301492        301492
 MEMORY| Cached                7000768       7000768       7000768       7000768
 MEMORY| Slab                   776600        776600        776600        776600
 MEMORY| SReclaimable           330700        330700        330700        330700
 MEMORY| MemLikelyFree       123015064     123015064     123015064     123015064


 GENERATE|  Preliminary Number of Bonds generated:                             0
 GENERATE|  Achieved consistency in connectivity generation.

 *******************************************************************************
 *******************************************************************************
 **                                                                           **
 **     #####                         ##              ##                      **
 **    ##   ##            ##          ##              ##                      **
 **   ##     ##                       ##            ######                    **
 **   ##     ##  ##   ##  ##   #####  ##  ##   ####   ##    #####    #####    **
 **   ##     ##  ##   ##  ##  ##      ## ##   ##      ##   ##   ##  ##   ##   **
 **   ##  ## ##  ##   ##  ##  ##      ####     ###    ##   ######   ######    **
 **    ##  ###   ##   ##  ##  ##      ## ##      ##   ##   ##       ##        **
 **     #######   #####   ##   #####  ##  ##  ####    ##    #####   ##        **
 **           ##                                                    ##        **
 **                                                                           **
 **                                                ... make the atoms dance   **
 **                                                                           **
 **            Copyright (C) by CP2K developers group (2000-2023)             **
 **                      J. Chem. Phys. 152, 194103 (2020)                    **
 **                                                                           **
 *******************************************************************************


 TOTAL NUMBERS AND MAXIMUM NUMBERS

  Total number of            - Atomic kinds:                                   2
                             - Atoms:                                          6
                             - Shell sets:                                     6
                             - Shells:                                        22
                             - Primitive Cartesian functions:                 42
                             - Cartesian basis functions:                     48
                             - Spherical basis functions:                     46

  Maximum angular momentum of- Orbital basis functions:                        2
                             - Local part of the GTH pseudopotential:          2
                             - Non-local part of the GTH pseudopotential:      0

 ------------------------------ Linear scaling SCF -----------------------------
 eps_scf:                                                              0.100E-07
 eps_filter:                                                           0.100E-07
 mixing_fraction:                                                      0.450E+00
 max_scf:                                                                     25
 fixed chemical potential (mu)                                                 F
 has unit metric:                                                              F
 Computing inv(S):                                                             T
 Computing sqrt(S):                                                            T
 Computing S preconditioner                                                    F
 S sqrt method:                                                     NEWTONSCHULZ
 S sqrt order:                                                                 3
 Extrapolation order:                                                          1
 Use single precision matrices                                                 F
 S preconditioner type                                                      NONE
 Polarized Atomic Orbitals (PAO)                                               T
 Purification method                                   Trace resetting 4th order
 Cluster type                                                             ATOMIC
 Computing Chebyshev                                                       FALSE
 Using PAO                                                                     T
 -------------------------------------------------------------------------------

 
 PAO|                                  EPS_PAO                           0.1E-04
 PAO|                                  MIXING                            0.5E+00
 PAO|                                  MAX_PAO                              1000
 PAO|                                  MAX_CYCLES                           1000
 PAO|                                  PARAMETERIZATION              EQUIVARIANT
 PAO|                                  PRECONDITION                            F
 PAO|                                  REGULARIZATION                    0.0E+00
 PAO|                                  EPS_PGF                           0.1E-09
 PAO|                                  PENALTY_DISTANCE                  0.1E+00
 PAO|                                  PENALTY_STRENGTH                  0.5E-02
 PAO|                                  LINPOT_PRECONDITION_DELTA         0.0E+00
 PAO|                                  LINPOT_INITGUESS_DELT             0.0E+00
 PAO|                                  LINPOT_REGULARIZATION_DELTA       0.0E+00
 PAO|                                  LINPOT_REGULARIZATION_STRENGTH    0.0E+00
 PAO|                                  OPTIMIZER                              CG
 PAO|                                  CG_INIT_STEPS                           2
 PAO|                                  CG_RESET_LIMIT                    0.1E+00
 PAO|                                  CHECK_UNITARY_TOL                -0.1E+01
 PAO|                                  CHECK_GRADIENT_TOL               -0.1E+01
 PAO|                                  NUM_GRADIENT_ORDER                      2
 PAO|                                  NUM_GRADIENT_EPS                  0.1E-07
 PAO|                                  PRINT%RESTART%WRITE_CYCLES            100
 PAO|                                  RESTART_FILE 
 PAO|                                  PREOPT_DM_FILE 2H2O_ref_LS_DM_SPIN_1_RESTART.dm
 PAO|                                  MACHINE_LEARNING%METHOD       GAUSSIAN_PR
 PAO|                                  MACHINE_LEARNING%PRIOR               ZERO
 PAO|                                  MACHINE_LEARNING%DESCRIPTOR     POTENTIAL
 PAO|                                  MACHINE_LEARNING%TOLERANCE        0.1E-01
 PAO|                                  MACHINE_LEARNING%GP_NOISE_VAR     0.1E+00
 PAO|                                  MACHINE_LEARNING%GP_SCALE         0.5E-01
 

 Calculating atomic Fock matrix for atomic kind: O

 Electronic structure
    Total number of core electrons                                          2.00
    Total number of valence electrons                                       6.00
    Total number of electrons                                               8.00
    Multiplicity                                                   not specified
    S   [  2.00] 2.00
    P      4.00


 *******************************************************************************
                  Iteration          Convergence                     Energy [au]
 *******************************************************************************
                          1        0.708315                     -15.576645311500
                          2        0.608879                     -15.587933561584
                          3        0.102828E-01                 -15.656849565404
                          4        0.113889E-02                 -15.656866888140
                          5        0.434197E-03                 -15.656867072159
                          6        0.263771E-03                 -15.656867091904
                          7        0.478536E-06                 -15.656867103452

 Energy components [Hartree]           Total Energy ::          -15.656867103452
                                        Band Energy ::           -3.000198112285
                                     Kinetic Energy ::           11.759971203220
                                   Potential Energy ::          -27.416838306672
                                      Virial (-V/T) ::            2.331369510426
                                        Core Energy ::          -26.140716385623
                                          XC Energy ::           -3.154051012914
                                     Coulomb Energy ::           13.637900295084
                       Total Pseudopotential Energy ::          -37.935781716540
                       Local Pseudopotential Energy ::          -39.218907440693
                    Nonlocal Pseudopotential Energy ::            1.283125724153
                                        Confinement ::            0.350941276976

 Orbital energies  State     L     Occupation   Energy[a.u.]          Energy[eV]

                       1     0          2.000      -0.864471          -23.523463

                       1     1          4.000      -0.317814           -8.648154


 Total Electron Density at R=0:                                         0.000068

 Calculating atomic Fock matrix for atomic kind: H

 Electronic structure
    Total number of core electrons                                          0.00
    Total number of valence electrons                                       1.00
    Total number of electrons                                               1.00
    Multiplicity                                                   not specified
    S      1.00


 *******************************************************************************
                  Iteration          Convergence                     Energy [au]
 *******************************************************************************
                          1        0.437545E-02                  -0.424159432110
                          2        0.531356E-03                  -0.424178438213
                          3        0.259176E-06                  -0.424178722480

 Energy components [Hartree]           Total Energy ::           -0.424178722480
                                        Band Energy ::           -0.199015229016
                                     Kinetic Energy ::            0.464007633961
                                   Potential Energy ::           -0.888186356441
                                      Virial (-V/T) ::            1.914163240935
                                        Core Energy ::           -0.479160803564
                                          XC Energy ::           -0.244352904054
                                     Coulomb Energy ::            0.299334985138
                       Total Pseudopotential Energy ::           -0.962295316385
                       Local Pseudopotential Energy ::           -0.962295316385
                    Nonlocal Pseudopotential Energy ::            0.000000000000
                                        Confinement ::            0.191268788606

 Orbital energies  State     L     Occupation   Energy[a.u.]          Energy[eV]

                       1     0          1.000      -0.199015           -5.415480


 Total Electron Density at R=0:                                         0.242907
 PAO| Made initial guess for matrix_X with norm:   4.8989794855663558     

     Lanczos converged:  T threshold:   0.100E-02
     Est. extremal eigenvalues:    0.336E+01   0.115E+00
     Est. condition number :    0.293E+02

 Order=           3
     NS sqrt iter    1 1.00000000   0.822E+00       0.001       62.206
     NS sqrt iter    2 1.00000000   0.441E+00       0.001      110.592
     NS sqrt iter    3 1.00000000   0.170E+00       0.001      110.592
     NS sqrt iter    4 1.00000000   0.206E-01       0.001      107.681
     NS sqrt iter    5 1.00000000   0.533E-04       0.001       89.778
     Symmetrizing Results
     Final NS sqrt iter    5 1.00000000   0.532E-08

 PAO| Read restart DM 2H2O_ref_LS_DM_SPIN_1_RESTART.dm with checksum:    45.331139009881980     
 PAO| Quickstep energy from restart density:  -34.451192803489732     
 PAO| ======================= Iteration:         1 =============================

     Lanczos converged:  T threshold:   0.100E-02
     Est. extremal eigenvalues:    0.336E+01   0.115E+00
     Est. condition number :    0.293E+02

 Order=           3
     NS sqrt iter    1 1.00000000   0.822E+00       0.001       64.512
     NS sqrt iter    2 1.00000000   0.441E+00       0.001      110.592
     NS sqrt iter    3 1.00000000   0.170E+00       0.001      110.592
     NS sqrt iter    4 1.00000000   0.206E-01       0.001      110.592
     NS sqrt iter    5 1.00000000   0.533E-04       0.001       91.008
     Symmetrizing Results
     Final NS sqrt iter    5 1.00000000   0.532E-08

     Est. extremal eigenvalues     -0.91850     1.86183  converged:  T
     TRS4 it   1 1.00000000   0.880E+00       0.000       16.128   0.100E-07
     TRS4 it   2 1.00000000   0.685E+00       0.000       32.256   0.100E-07
     TRS4 it   3 1.00000000   0.496E+00       0.000       32.256   0.100E-07
     TRS4 it   4 1.00000000   0.309E+00       0.000       32.256   0.100E-07
     TRS4 it   5 1.00000000   0.152E+00       0.000       32.256   0.100E-07
     TRS4 it   6 1.00000000   0.471E-01       0.000       32.256   0.100E-07
     TRS4 it   7 1.00000000   0.624E-02       0.000       32.256   0.100E-07
     TRS4 it   8 1.00000000   0.154E-03       0.000       32.256   0.100E-07
     TRS4 it   9 1.00000000   0.105E-06       0.000       32.256   0.100E-07
     TRS4 it  10 1.00000000   0.493E-13       0.000       32.256   0.100E-07
     Final TRS4 iteration   10 1.00000000   0.493E-13
     Chemical potential (mu):      -0.06319
 
 PAO| energy:  -7.6048482445408734      penalty:   5.1152699322924989E-033
 PAO|CG| warming up with steepest descent
 PAO|CG| beta:    0.0000000000000000     
 PAO| norm of gradient:  0.78384308106663692     
 PAO|LS| adapt:  T F F
 PAO|LS| adapt: scan_steps:    0.0000000000000000        0.0000000000000000        0.0000000000000000     
 PAO|LS| adapt: energies:   -7.6048482445408734        0.0000000000000000        0.0000000000000000     
 PAO| ======================= Iteration:         2 =============================

     Lanczos converged:  T threshold:   0.100E-02
     Est. extremal eigenvalues:    0.328E+01   0.128E+00
     Est. condition number :    0.256E+02

 Order=           3
     NS sqrt iter    1 1.00000000   0.806E+00       0.001       64.512
     NS sqrt iter    2 1.00000000   0.425E+00       0.001      110.592
     NS sqrt iter    3 1.00000000   0.152E+00       0.001      110.592
     NS sqrt iter    4 1.00000000   0.142E-01       0.001      110.592
     NS sqrt iter    5 1.00000000   0.165E-04       0.001       82.944
     Symmetrizing Results
     Final NS sqrt iter    5 1.00000000   0.404E-09

     Est. extremal eigenvalues     -0.92217     1.80780  converged:  T
     TRS4 it   1 1.00000000   0.876E+00       0.000       16.128   0.100E-07
     TRS4 it   2 1.00000000   0.667E+00       0.000       32.256   0.100E-07
     TRS4 it   3 1.00000000   0.479E+00       0.000       32.256   0.100E-07
     TRS4 it   4 1.00000000   0.288E+00       0.000       32.256   0.100E-07
     TRS4 it   5 1.00000000   0.133E+00       0.000       32.256   0.100E-07
     TRS4 it   6 1.00000000   0.359E-01       0.000       32.256   0.100E-07
     TRS4 it   7 1.00000000   0.367E-02       0.000       32.256   0.100E-07
     TRS4 it   8 1.00000000   0.538E-04       0.000       32.256   0.100E-07
     TRS4 it   9 1.00000000   0.129E-07       0.000       32.256   0.100E-07
     Final TRS4 iteration    9 1.00000000   0.129E-07
     Chemical potential (mu):      -0.05121
 
 PAO| energy:  -7.6604029625355112      penalty:   2.2530805075323522E-008
 PAO|LS| adapt:  T T F
 PAO|LS| adapt: scan_steps:    0.0000000000000000       0.10000000000000001        0.0000000000000000     
 PAO|LS| adapt: energies:   -7.6048482445408734       -7.6604029625355112        0.0000000000000000     
 PAO| ======================= Iteration:         3 =============================

     Lanczos converged:  T threshold:   0.100E-02
     Est. extremal eigenvalues:    0.318E+01   0.140E+00
     Est. condition number :    0.227E+02

 Order=           3
     NS sqrt iter    1 1.00000000   0.788E+00       0.001       64.512
     NS sqrt iter    2 1.00000000   0.408E+00       0.001      110.592
     NS sqrt iter    3 1.00000000   0.135E+00       0.001      110.592
     NS sqrt iter    4 1.00000000   0.970E-02       0.001      110.592
     NS sqrt iter    5 1.00000000   0.529E-05       0.001       82.944
     Symmetrizing Results
     Final NS sqrt iter    5 1.00000000   0.422E-10

     Est. extremal eigenvalues     -0.92560     1.76507  converged:  T
     TRS4 it   1 1.00000000   0.872E+00       0.000       16.128   0.100E-07
     TRS4 it   2 1.00000000   0.650E+00       0.000       32.256   0.100E-07
     TRS4 it   3 1.00000000   0.463E+00       0.000       32.256   0.100E-07
     TRS4 it   4 1.00000000   0.268E+00       0.000       32.256   0.100E-07
     TRS4 it   5 1.00000000   0.114E+00       0.000       32.256   0.100E-07
     TRS4 it   6 1.00000000   0.265E-01       0.000       32.256   0.100E-07
     TRS4 it   7 1.00000000   0.200E-02       0.000       32.256   0.100E-07
     TRS4 it   8 1.00000000   0.161E-04       0.000       32.256   0.100E-07
     TRS4 it   9 1.00000000   0.115E-08       0.000       32.256   0.100E-07
     Final TRS4 iteration    9 1.00000000   0.115E-08
     Chemical potential (mu):      -0.03827
 
 PAO| energy:  -7.7035210587140206      penalty:   3.6049223392240170E-007
 PAO|LS| adapt:  T T F
 PAO|LS| adapt: scan_steps:    0.0000000000000000       0.20000000000000001        0.0000000000000000     
 PAO|LS| adapt: energies:   -7.6048482445408734       -7.7035210587140206        0.0000000000000000     
 PAO| ======================= Iteration:         4 =============================

     Lanczos converged:  T threshold:   0.100E-02
     Est. extremal eigenvalues:    0.299E+01   0.158E+00
     Est. condition number :    0.189E+02

 Order=           3
     NS sqrt iter    1 1.00000000   0.751E+00       0.001       64.512
     NS sqrt iter    2 1.00000000   0.374E+00       0.001      110.592
     NS sqrt iter    3 1.00000000   0.106E+00       0.001      110.592
     NS sqrt iter    4 1.00000000   0.468E-02       0.001      110.592
     NS sqrt iter    5 1.00000000   0.730E-06       0.001       82.944
     Symmetrizing Results
     Final NS sqrt iter    5 1.00000000   0.896E-12

     Est. extremal eigenvalues     -0.93093     1.70491  converged:  T
     TRS4 it   1 1.00000000   0.869E+00       0.000       16.128   0.100E-07
     TRS4 it   2 1.00000000   0.624E+00       0.000       32.256   0.100E-07
     TRS4 it   3 1.00000000   0.433E+00       0.000       32.256   0.100E-07
     TRS4 it   4 1.00000000   0.231E+00       0.000       32.256   0.100E-07
     TRS4 it   5 1.00000000   0.826E-01       0.000       32.256   0.100E-07
     TRS4 it   6 1.00000000   0.134E-01       0.000       32.256   0.100E-07
     TRS4 it   7 1.00000000   0.494E-03       0.000       32.256   0.100E-07
     TRS4 it   8 1.00000000   0.953E-06       0.000       32.256   0.100E-07
     TRS4 it   9 1.00000000   0.405E-11       0.000       32.256   0.100E-07
     Final TRS4 iteration    9 1.00000000   0.405E-11
     Chemical potential (mu):      -0.00994
 
 PAO| energy:  -7.7508190875734684      penalty:   5.7678705645078765E-006
 PAO|LS| Need extra step
 PAO|LS| adapt:  T T F
 PAO|LS| adapt: scan_steps:    0.0000000000000000       0.40000000000000002        0.0000000000000000     
 PAO|LS| adapt: energies:   -7.6048482445408734       -7.7508190875734684        0.0000000000000000     
 PAO| ======================= Iteration:         5 =============================

     Lanczos converged:  T threshold:   0.100E-02
     Est. extremal eigenvalues:    0.263E+01   0.185E+00
     Est. condition number :    0.142E+02

 Order=           3
     NS sqrt iter    1 1.00000000   0.686E+00       0.001       64.512
     NS sqrt iter    2 1.00000000   0.312E+00       0.001      110.592
     NS sqrt iter    3 1.00000000   0.649E-01       0.001      110.592
     NS sqrt iter    4 1.00000000   0.128E-02       0.001      110.592
     NS sqrt iter    5 1.00000000   0.209E-07       0.001       55.552
     Symmetrizing Results
     Final NS sqrt iter    5 1.00000000   0.715E-09

     Est. extremal eigenvalues     -0.93217     1.64230  converged:  T
     TRS4 it   1 1.00000000   0.866E+00       0.000       16.128   0.100E-07
     TRS4 it   2 1.00000000   0.590E+00       0.000       32.256   0.100E-07
     TRS4 it   3 1.00000000   0.385E+00       0.000       32.256   0.100E-07
     TRS4 it   4 1.00000000   0.175E+00       0.000       32.256   0.100E-07
     TRS4 it   5 1.00000000   0.441E-01       0.000       32.256   0.100E-07
     TRS4 it   6 1.00000000   0.347E-02       0.000       32.256   0.100E-07
     TRS4 it   7 1.00000000   0.278E-04       0.000       32.256   0.100E-07
     TRS4 it   8 1.00000000   0.224E-08       0.000       32.256   0.100E-07
     Final TRS4 iteration    8 1.00000000   0.224E-08
     Chemical potential (mu):       0.03895
 
 PAO| energy:  -7.6960020705017946      penalty:   9.2285887606168823E-005
 PAO|LS| Need extra step
 PAO|LS| adapt:  T T T
 PAO|LS| adapt: scan_steps:    0.0000000000000000       0.40000000000000002       0.80000000000000004     
 PAO|LS| adapt: energies:   -7.6048482445408734       -7.7508190875734684       -7.6960020705017946     
 PAO|LS| adapt: suggested step_size:   0.49079615262953180     
 PAO|LS| adapt: predicted energy  -7.7559918480076648     
 PAO| ======================= Iteration:         6 =============================

     Lanczos converged:  T threshold:   0.100E-02
     Est. extremal eigenvalues:    0.290E+01   0.165E+00
     Est. condition number :    0.176E+02

 Order=           3
     NS sqrt iter    1 1.00000000   0.734E+00       0.001       64.512
     NS sqrt iter    2 1.00000000   0.359E+00       0.001      110.592
     NS sqrt iter    3 1.00000000   0.942E-01       0.001      110.592
     NS sqrt iter    4 1.00000000   0.343E-02       0.001      110.592
     NS sqrt iter    5 1.00000000   0.320E-06       0.001       81.792
     Symmetrizing Results
     Final NS sqrt iter    5 1.00000000   0.265E-09

     Est. extremal eigenvalues     -0.93241     1.68558  converged:  T
     TRS4 it   1 1.00000000   0.867E+00       0.000       16.128   0.100E-07
     TRS4 it   2 1.00000000   0.614E+00       0.000       32.256   0.100E-07
     TRS4 it   3 1.00000000   0.420E+00       0.000       32.256   0.100E-07
     TRS4 it   4 1.00000000   0.216E+00       0.000       32.256   0.100E-07
     TRS4 it   5 1.00000000   0.711E-01       0.000       32.256   0.100E-07
     TRS4 it   6 1.00000000   0.972E-02       0.000       32.256   0.100E-07
     TRS4 it   7 1.00000000   0.247E-03       0.000       32.256   0.100E-07
     TRS4 it   8 1.00000000   0.230E-06       0.000       32.256   0.100E-07
     TRS4 it   9 1.00000000   0.234E-12       0.000       32.256   0.100E-07
     Final TRS4 iteration    9 1.00000000   0.234E-12
     Chemical potential (mu):       0.00363
 
 PAO| energy:  -7.7552654115803028      penalty:   1.3073144662331241E-005
 PAO|CG| warming up with steepest descent
 PAO|CG| beta:    0.0000000000000000     
 PAO| norm of gradient:  0.41806844711046864     
 PAO| energy improvement: -0.15041716703942942     
 PAO| step      6                   -7.755265412  0.261E-01  0.491E+00     0.060
 PAO|LS| adapt:  T F F
 PAO|LS| adapt: scan_steps:    0.0000000000000000        0.0000000000000000        0.0000000000000000     
 PAO|LS| adapt: energies:   -7.7552654115803028        0.0000000000000000        0.0000000000000000     
 PAO| ======================= Iteration:         7 =============================

     Lanczos converged:  T threshold:   0.100E-02
     Est. extremal eigenvalues:    0.281E+01   0.179E+00
     Est. condition number :    0.157E+02

 Order=           3
     NS sqrt iter    1 1.00000000   0.717E+00       0.001       64.512
     NS sqrt iter    2 1.00000000   0.338E+00       0.001      110.592
     NS sqrt iter    3 1.00000000   0.786E-01       0.001      110.592
     NS sqrt iter    4 1.00000000   0.206E-02       0.001      110.592
     NS sqrt iter    5 1.00000000   0.780E-07       0.001       73.600
     Symmetrizing Results
     Final NS sqrt iter    5 1.00000000   0.666E-09

     Est. extremal eigenvalues     -0.93412     1.67376  converged:  T
     TRS4 it   1 1.00000000   0.867E+00       0.000       16.128   0.100E-07
     TRS4 it   2 1.00000000   0.613E+00       0.000       32.256   0.100E-07
     TRS4 it   3 1.00000000   0.420E+00       0.000       32.256   0.100E-07
     TRS4 it   4 1.00000000   0.217E+00       0.000       32.256   0.100E-07
     TRS4 it   5 1.00000000   0.717E-01       0.000       32.256   0.100E-07
     TRS4 it   6 1.00000000   0.965E-02       0.000       32.256   0.100E-07
     TRS4 it   7 1.00000000   0.231E-03       0.000       32.256   0.100E-07
     TRS4 it   8 1.00000000   0.190E-06       0.000       32.256   0.100E-07
     TRS4 it   9 1.00000000   0.158E-12       0.000       32.256   0.100E-07
     Final TRS4 iteration    9 1.00000000   0.158E-12
     Chemical potential (mu):       0.00567
 
 PAO| energy:  -7.7491981251764903      penalty:   1.9824991217684248E-005
 PAO|LS| adapt:  T F T
 PAO|LS| adapt: scan_steps:    0.0000000000000000        0.0000000000000000       0.49079615262953180     
 PAO|LS| adapt: energies:   -7.7552654115803028        0.0000000000000000       -7.7491981251764903     
 PAO| ======================= Iteration:         8 =============================

     Lanczos converged:  T threshold:   0.100E-02
     Est. extremal eigenvalues:    0.286E+01   0.172E+00
     Est. condition number :    0.166E+02

 Order=           3
     NS sqrt iter    1 1.00000000   0.725E+00       0.001       64.512
     NS sqrt iter    2 1.00000000   0.348E+00       0.001      110.592
     NS sqrt iter    3 1.00000000   0.863E-01       0.001      110.592
     NS sqrt iter    4 1.00000000   0.268E-02       0.001      110.592
     NS sqrt iter    5 1.00000000   0.161E-06       0.001       78.976
     Symmetrizing Results
     Final NS sqrt iter    5 1.00000000   0.105E-08

     Est. extremal eigenvalues     -0.93423     1.67900  converged:  T
     TRS4 it   1 1.00000000   0.867E+00       0.000       16.128   0.100E-07
     TRS4 it   2 1.00000000   0.613E+00       0.000       32.256   0.100E-07
     TRS4 it   3 1.00000000   0.420E+00       0.000       32.256   0.100E-07
     TRS4 it   4 1.00000000   0.216E+00       0.000       32.256   0.100E-07
     TRS4 it   5 1.00000000   0.712E-01       0.000       32.256   0.100E-07
     TRS4 it   6 1.00000000   0.973E-02       0.000       32.256   0.100E-07
     TRS4 it   7 1.00000000   0.245E-03       0.000       32.256   0.100E-07
     TRS4 it   8 1.00000000   0.222E-06       0.000       32.256   0.100E-07
     TRS4 it   9 1.00000000   0.217E-12       0.000       32.256   0.100E-07
     Final TRS4 iteration    9 1.00000000   0.217E-12
     Chemical potential (mu):       0.00422
 
 PAO| energy:  -7.7749512776021437      penalty:   1.4183357865257316E-005
 PAO|LS| adapt:  T T T
 PAO|LS| adapt: scan_steps:    0.0000000000000000       0.24539807631476590       0.49079615262953180     
 PAO|LS| adapt: energies:   -7.7552654115803028       -7.7749512776021437       -7.7491981251764903     
 PAO|LS| adapt: suggested step_size:   0.22901457527516075     
 PAO|LS| adapt: predicted energy  -7.7750525450963686     
 PAO| ======================= Iteration:         9 =============================

     Lanczos converged:  T threshold:   0.100E-02
     Est. extremal eigenvalues:    0.286E+01   0.172E+00
     Est. condition number :    0.167E+02

 Order=           3
     NS sqrt iter    1 1.00000000   0.726E+00       0.001       64.512
     NS sqrt iter    2 1.00000000   0.349E+00       0.001      110.592
     NS sqrt iter    3 1.00000000   0.868E-01       0.001      110.592
     NS sqrt iter    4 1.00000000   0.272E-02       0.001      110.592
     NS sqrt iter    5 1.00000000   0.169E-06       0.001       79.232
     Symmetrizing Results
     Final NS sqrt iter    5 1.00000000   0.110E-08

     Est. extremal eigenvalues     -0.93417     1.67940  converged:  T
     TRS4 it   1 1.00000000   0.867E+00       0.000       16.128   0.100E-07
     TRS4 it   2 1.00000000   0.613E+00       0.000       32.256   0.100E-07
     TRS4 it   3 1.00000000   0.420E+00       0.000       32.256   0.100E-07
     TRS4 it   4 1.00000000   0.216E+00       0.000       32.256   0.100E-07
     TRS4 it   5 1.00000000   0.712E-01       0.000       32.256   0.100E-07
     TRS4 it   6 1.00000000   0.974E-02       0.000       32.256   0.100E-07
     TRS4 it   7 1.00000000   0.246E-03       0.000       32.256   0.100E-07
     TRS4 it   8 1.00000000   0.223E-06       0.000       32.256   0.100E-07
     TRS4 it   9 1.00000000   0.219E-12       0.000       32.256   0.100E-07
     Final TRS4 iteration    9 1.00000000   0.219E-12
     Chemical potential (mu):       0.00415
 
 PAO| energy:  -7.7750772158249415      penalty:   1.4007258109349039E-005
 PAO|CG| trace_G_new    3.6889371132396230E-002
 PAO|CG| trace_G_prev   0.17478122646935873     
 PAO|CG| trace_G_mix   -1.4568237135059959E-003
 PAO|CG| trace_D   0.17478122646935873     
 PAO|CG| trace_D_Gnew   1.4568237135059959E-003
 PAO|CG| beta:   0.21939538713916037     
 PAO| norm of gradient:  0.19206605929314069     
 PAO| energy improvement:  -1.9811804244638687E-002
 PAO| step      9                   -7.775077216  0.120E-01  0.229E+00     0.038
 PAO|LS| adapt:  T F F
 PAO|LS| adapt: scan_steps:    0.0000000000000000        0.0000000000000000        0.0000000000000000     
 PAO|LS| adapt: energies:   -7.7750772158249415        0.0000000000000000        0.0000000000000000     
 PAO| ======================= Iteration:        10 =============================

     Lanczos converged:  T threshold:   0.100E-02
     Est. extremal eigenvalues:    0.282E+01   0.177E+00
     Est. condition number :    0.159E+02

 Order=           3
     NS sqrt iter    1 1.00000000   0.718E+00       0.001       64.512
     NS sqrt iter    2 1.00000000   0.340E+00       0.001      110.592
     NS sqrt iter    3 1.00000000   0.812E-01       0.001      110.592
     NS sqrt iter    4 1.00000000   0.224E-02       0.001      110.592
     NS sqrt iter    5 1.00000000   0.950E-07       0.001       74.368
     Symmetrizing Results
     Final NS sqrt iter    5 1.00000000   0.933E-09

     Est. extremal eigenvalues     -0.93505     1.67837  converged:  T
     TRS4 it   1 1.00000000   0.866E+00       0.000       16.128   0.100E-07
     TRS4 it   2 1.00000000   0.613E+00       0.000       32.256   0.100E-07
     TRS4 it   3 1.00000000   0.419E+00       0.000       32.256   0.100E-07
     TRS4 it   4 1.00000000   0.214E+00       0.000       32.256   0.100E-07
     TRS4 it   5 1.00000000   0.695E-01       0.000       32.256   0.100E-07
     TRS4 it   6 1.00000000   0.923E-02       0.000       32.256   0.100E-07
     TRS4 it   7 1.00000000   0.218E-03       0.000       32.256   0.100E-07
     TRS4 it   8 1.00000000   0.171E-06       0.000       32.256   0.100E-07
     TRS4 it   9 1.00000000   0.128E-12       0.000       32.256   0.100E-07
     Final TRS4 iteration    9 1.00000000   0.128E-12
     Chemical potential (mu):       0.00719
 
 PAO| energy:  -7.7801234942078805      penalty:   1.4546767061855751E-005
 PAO|LS| adapt:  T T F
 PAO|LS| adapt: scan_steps:    0.0000000000000000       0.22901457527516075        0.0000000000000000     
 PAO|LS| adapt: energies:   -7.7750772158249415       -7.7801234942078805        0.0000000000000000     
 PAO| ======================= Iteration:        11 =============================

     Lanczos converged:  T threshold:   0.100E-02
     Est. extremal eigenvalues:    0.278E+01   0.183E+00
     Est. condition number :    0.152E+02

 Order=           3
     NS sqrt iter    1 1.00000000   0.710E+00       0.001       64.512
     NS sqrt iter    2 1.00000000   0.332E+00       0.001      110.592
     NS sqrt iter    3 1.00000000   0.758E-01       0.001      110.592
     NS sqrt iter    4 1.00000000   0.183E-02       0.001      110.592
     NS sqrt iter    5 1.00000000   0.527E-07       0.001       70.144
     Symmetrizing Results
     Final NS sqrt iter    5 1.00000000   0.447E-09

     Est. extremal eigenvalues     -0.93497     1.67880  converged:  T
     TRS4 it   1 1.00000000   0.866E+00       0.000       16.128   0.100E-07
     TRS4 it   2 1.00000000   0.612E+00       0.000       32.256   0.100E-07
     TRS4 it   3 1.00000000   0.418E+00       0.000       32.256   0.100E-07
     TRS4 it   4 1.00000000   0.212E+00       0.001       32.256   0.100E-07
     TRS4 it   5 1.00000000   0.680E-01       0.001       32.256   0.100E-07
     TRS4 it   6 1.00000000   0.877E-02       0.000       32.256   0.100E-07
     TRS4 it   7 1.00000000   0.193E-03       0.000       32.256   0.100E-07
     TRS4 it   8 1.00000000   0.131E-06       0.000       32.256   0.100E-07
     TRS4 it   9 1.00000000   0.729E-13       0.000       32.256   0.100E-07
     Final TRS4 iteration    9 1.00000000   0.729E-13
     Chemical potential (mu):       0.01032
 
 PAO| energy:  -7.7787529933541473      penalty:   1.5756006741803601E-005
 PAO|LS| adapt:  T T T
 PAO|LS| adapt: scan_steps:    0.0000000000000000       0.22901457527516075       0.45802915055032151     
 PAO|LS| adapt: energies:   -7.7750772158249415       -7.7801234942078805       -7.7787529933541473     
 PAO|LS| adapt: suggested step_size:   0.29460874632331430     
 PAO|LS| adapt: predicted energy  -7.7803866975211378     
 PAO| ======================= Iteration:        12 =============================

     Lanczos converged:  T threshold:   0.100E-02
     Est. extremal eigenvalues:    0.281E+01   0.179E+00
     Est. condition number :    0.157E+02

 Order=           3
     NS sqrt iter    1 1.00000000   0.716E+00       0.001       64.512
     NS sqrt iter    2 1.00000000   0.338E+00       0.001      110.592
     NS sqrt iter    3 1.00000000   0.796E-01       0.001      110.592
     NS sqrt iter    4 1.00000000   0.212E-02       0.001      110.592
     NS sqrt iter    5 1.00000000   0.804E-07       0.001       73.088
     Symmetrizing Results
     Final NS sqrt iter    5 1.00000000   0.676E-09

     Est. extremal eigenvalues     -0.93513     1.67835  converged:  T
     TRS4 it   1 1.00000000   0.866E+00       0.000       16.128   0.100E-07
     TRS4 it   2 1.00000000   0.612E+00       0.000       32.256   0.100E-07
     TRS4 it   3 1.00000000   0.418E+00       0.000       32.256   0.100E-07
     TRS4 it   4 1.00000000   0.213E+00       0.000       32.256   0.100E-07
     TRS4 it   5 1.00000000   0.691E-01       0.000       32.256   0.100E-07
     TRS4 it   6 1.00000000   0.910E-02       0.000       32.256   0.100E-07
     TRS4 it   7 1.00000000   0.210E-03       0.000       32.256   0.100E-07
     TRS4 it   8 1.00000000   0.158E-06       0.000       32.256   0.100E-07
     TRS4 it   9 1.00000000   0.109E-12       0.000       32.256   0.100E-07
     Final TRS4 iteration    9 1.00000000   0.109E-12
     Chemical potential (mu):       0.00808
 
 PAO| energy:  -7.7803704570436460      penalty:   1.4816962274046297E-005
 PAO|CG| trace_G_new    1.1824613443838630E-002
 PAO|CG| trace_G_prev    3.6889371132396230E-002
 PAO|CG| trace_G_mix   -4.5110105807654919E-004
 PAO|CG| trace_D    4.4663108590690295E-002
 PAO|CG| trace_D_Gnew   2.0449210924095430E-004
 PAO|CG| beta:   0.33277104285290060     
 PAO| norm of gradient:  0.10874103845300830     
 PAO| energy improvement:  -5.2932412187045585E-003
 PAO| step     12                   -7.780370457  0.680E-02  0.295E+00     0.038
 PAO|LS| adapt:  T F F
 PAO|LS| adapt: scan_steps:    0.0000000000000000        0.0000000000000000        0.0000000000000000     
 PAO|LS| adapt: energies:   -7.7803704570436460        0.0000000000000000        0.0000000000000000     
 PAO| ======================= Iteration:        13 =============================

     Lanczos converged:  T threshold:   0.100E-02
     Est. extremal eigenvalues:    0.278E+01   0.183E+00
     Est. condition number :    0.152E+02

 Order=           3
     NS sqrt iter    1 1.00000000   0.709E+00       0.001       64.512
     NS sqrt iter    2 1.00000000   0.331E+00       0.001      110.592
     NS sqrt iter    3 1.00000000   0.752E-01       0.001      110.592
     NS sqrt iter    4 1.00000000   0.180E-02       0.001      110.592
     NS sqrt iter    5 1.00000000   0.504E-07       0.001       69.888
     Symmetrizing Results
     Final NS sqrt iter    5 1.00000000   0.436E-09

     Est. extremal eigenvalues     -0.93561     1.67325  converged:  T
     TRS4 it   1 1.00000000   0.866E+00       0.000       16.128   0.100E-07
     TRS4 it   2 1.00000000   0.610E+00       0.000       32.256   0.100E-07
     TRS4 it   3 1.00000000   0.414E+00       0.000       32.256   0.100E-07
     TRS4 it   4 1.00000000   0.208E+00       0.000       32.256   0.100E-07
     TRS4 it   5 1.00000000   0.657E-01       0.000       32.256   0.100E-07
     TRS4 it   6 1.00000000   0.818E-02       0.000       32.256   0.100E-07
     TRS4 it   7 1.00000000   0.168E-03       0.000       32.256   0.100E-07
     TRS4 it   8 1.00000000   0.983E-07       0.000       32.256   0.100E-07
     TRS4 it   9 1.00000000   0.418E-13       0.000       32.256   0.100E-07
     Final TRS4 iteration    9 1.00000000   0.418E-13
     Chemical potential (mu):       0.01250
 
 PAO| energy:  -7.7824437016833805      penalty:   1.5128465402695830E-005
 PAO|LS| adapt:  T T F
 PAO|LS| adapt: scan_steps:    0.0000000000000000       0.29460874632331430        0.0000000000000000     
 PAO|LS| adapt: energies:   -7.7803704570436460       -7.7824437016833805        0.0000000000000000     
 PAO| ======================= Iteration:        14 =============================

     Lanczos converged:  T threshold:   0.100E-02
     Est. extremal eigenvalues:    0.274E+01   0.187E+00
     Est. condition number :    0.147E+02

 Order=           3
     NS sqrt iter    1 1.00000000   0.702E+00       0.001       64.512
     NS sqrt iter    2 1.00000000   0.324E+00       0.001      110.592
     NS sqrt iter    3 1.00000000   0.711E-01       0.001      110.592
     NS sqrt iter    4 1.00000000   0.153E-02       0.001      110.592
     NS sqrt iter    5 1.00000000   0.313E-07       0.001       60.800
     Symmetrizing Results
     Final NS sqrt iter    5 1.00000000   0.260E-08

     Est. extremal eigenvalues     -0.93559     1.66841  converged:  T
     TRS4 it   1 1.00000000   0.866E+00       0.000       16.128   0.100E-07
     TRS4 it   2 1.00000000   0.607E+00       0.000       32.256   0.100E-07
     TRS4 it   3 1.00000000   0.411E+00       0.000       32.256   0.100E-07
     TRS4 it   4 1.00000000   0.204E+00       0.000       32.256   0.100E-07
     TRS4 it   5 1.00000000   0.625E-01       0.000       32.256   0.100E-07
     TRS4 it   6 1.00000000   0.735E-02       0.000       32.256   0.100E-07
     TRS4 it   7 1.00000000   0.134E-03       0.000       32.256   0.100E-07
     TRS4 it   8 1.00000000   0.612E-07       0.001       32.256   0.100E-07
     Final TRS4 iteration    8 1.00000000   0.612E-07
     Chemical potential (mu):       0.01444
 
 PAO| energy:  -7.7817863664005413      penalty:   1.5924833458752628E-005
 PAO|LS| adapt:  T T T
 PAO|LS| adapt: scan_steps:    0.0000000000000000       0.29460874632331430       0.58921749264662859     
 PAO|LS| adapt: energies:   -7.7803704570436460       -7.7824437016833805       -7.7817863664005413     
 PAO|LS| adapt: suggested step_size:   0.37099165624913072     
 PAO|LS| adapt: predicted energy  -7.7825354770279862     
 PAO| ======================= Iteration:        15 =============================

     Lanczos converged:  T threshold:   0.100E-02
     Est. extremal eigenvalues:    0.277E+01   0.184E+00
     Est. condition number :    0.150E+02

 Order=           3
     NS sqrt iter    1 1.00000000   0.707E+00       0.001       64.512
     NS sqrt iter    2 1.00000000   0.329E+00       0.001      110.592
     NS sqrt iter    3 1.00000000   0.741E-01       0.001      110.592
     NS sqrt iter    4 1.00000000   0.173E-02       0.001      110.592
     NS sqrt iter    5 1.00000000   0.446E-07       0.001       69.376
     Symmetrizing Results
     Final NS sqrt iter    5 1.00000000   0.321E-09

     Est. extremal eigenvalues     -0.93565     1.67197  converged:  T
     TRS4 it   1 1.00000000   0.866E+00       0.000       16.128   0.100E-07
     TRS4 it   2 1.00000000   0.609E+00       0.000       32.256   0.100E-07
     TRS4 it   3 1.00000000   0.413E+00       0.000       32.256   0.100E-07
     TRS4 it   4 1.00000000   0.207E+00       0.000       32.256   0.100E-07
     TRS4 it   5 1.00000000   0.649E-01       0.000       32.256   0.100E-07
     TRS4 it   6 1.00000000   0.795E-02       0.000       32.256   0.100E-07
     TRS4 it   7 1.00000000   0.158E-03       0.000       32.256   0.100E-07
     TRS4 it   8 1.00000000   0.869E-07       0.000       32.256   0.100E-07
     TRS4 it   9 1.00000000   0.320E-13       0.000       32.256   0.100E-07
     Final TRS4 iteration    9 1.00000000   0.320E-13
     Chemical potential (mu):       0.01364
 
 PAO| energy:  -7.7825324231559661      penalty:   1.5285338091635803E-005
 PAO|CG| trace_G_new    2.6060353481890809E-003
 PAO|CG| trace_G_prev    1.1824613443838630E-002
 PAO|CG| trace_G_mix    6.2658994870340469E-005
 PAO|CG| trace_D    1.6634354654101603E-002
 PAO|CG| trace_D_Gnew   3.4205498805682294E-005
 PAO|CG| beta:   0.21509171233364927     
 PAO| norm of gradient:   5.1049342289485773E-002
 PAO| energy improvement:  -2.1619661123200018E-003
 PAO| step     15                   -7.782532423  0.319E-02  0.371E+00     0.037
 PAO|LS| adapt:  T F F
 PAO|LS| adapt: scan_steps:    0.0000000000000000        0.0000000000000000        0.0000000000000000     
 PAO|LS| adapt: energies:   -7.7825324231559661        0.0000000000000000        0.0000000000000000     
 PAO| ======================= Iteration:        16 =============================

     Lanczos converged:  T threshold:   0.100E-02
     Est. extremal eigenvalues:    0.276E+01   0.185E+00
     Est. condition number :    0.149E+02

 Order=           3
     NS sqrt iter    1 1.00000000   0.705E+00       0.001       64.512
     NS sqrt iter    2 1.00000000   0.328E+00       0.001      110.592
     NS sqrt iter    3 1.00000000   0.735E-01       0.001      110.592
     NS sqrt iter    4 1.00000000   0.167E-02       0.001      110.592
     NS sqrt iter    5 1.00000000   0.405E-07       0.001       66.432
     Symmetrizing Results
     Final NS sqrt iter    5 1.00000000   0.318E-08

     Est. extremal eigenvalues     -0.93568     1.67208  converged:  T
     TRS4 it   1 1.00000000   0.866E+00       0.000       16.128   0.100E-07
     TRS4 it   2 1.00000000   0.608E+00       0.000       32.256   0.100E-07
     TRS4 it   3 1.00000000   0.412E+00       0.000       32.256   0.100E-07
     TRS4 it   4 1.00000000   0.206E+00       0.000       32.256   0.100E-07
     TRS4 it   5 1.00000000   0.638E-01       0.000       32.256   0.100E-07
     TRS4 it   6 1.00000000   0.771E-02       0.000       32.256   0.100E-07
     TRS4 it   7 1.00000000   0.149E-03       0.000       32.256   0.100E-07
     TRS4 it   8 1.00000000   0.783E-07       0.000       32.256   0.100E-07
     Final TRS4 iteration    8 1.00000000   0.783E-07
     Chemical potential (mu):       0.01251
 
 PAO| energy:  -7.7826565489550577      penalty:   1.5064981862673258E-005
 PAO|LS| adapt:  T T F
 PAO|LS| adapt: scan_steps:    0.0000000000000000       0.37099165624913072        0.0000000000000000     
 PAO|LS| adapt: energies:   -7.7825324231559661       -7.7826565489550577        0.0000000000000000     
 PAO| ======================= Iteration:        17 =============================

     Lanczos converged:  T threshold:   0.100E-02
     Est. extremal eigenvalues:    0.275E+01   0.185E+00
     Est. condition number :    0.148E+02

 Order=           3
     NS sqrt iter    1 1.00000000   0.703E+00       0.001       64.512
     NS sqrt iter    2 1.00000000   0.327E+00       0.001      110.592
     NS sqrt iter    3 1.00000000   0.728E-01       0.001      110.592
     NS sqrt iter    4 1.00000000   0.163E-02       0.001      110.592
     NS sqrt iter    5 1.00000000   0.370E-07       0.001       65.280
     Symmetrizing Results
     Final NS sqrt iter    5 1.00000000   0.220E-08

     Est. extremal eigenvalues     -0.93558     1.67227  converged:  T
     TRS4 it   1 1.00000000   0.867E+00       0.000       16.128   0.100E-07
     TRS4 it   2 1.00000000   0.608E+00       0.000       32.256   0.100E-07
     TRS4 it   3 1.00000000   0.411E+00       0.000       32.256   0.100E-07
     TRS4 it   4 1.00000000   0.204E+00       0.000       32.256   0.100E-07
     TRS4 it   5 1.00000000   0.628E-01       0.000       32.256   0.100E-07
     TRS4 it   6 1.00000000   0.747E-02       0.000       32.256   0.100E-07
     TRS4 it   7 1.00000000   0.141E-03       0.000       32.256   0.100E-07
     TRS4 it   8 1.00000000   0.706E-07       0.000       32.256   0.100E-07
     Final TRS4 iteration    8 1.00000000   0.706E-07
     Chemical potential (mu):       0.01345
 
 PAO| energy:  -7.7810952885829572      penalty:   1.4969944542006047E-005
 PAO|LS| adapt:  T T T
 PAO|LS| adapt: scan_steps:    0.0000000000000000       0.37099165624913072       0.74198331249826144     
 PAO|LS| adapt: energies:   -7.7825324231559661       -7.7826565489550577       -7.7810952885829572     
 PAO|LS| adapt: suggested step_size:   0.21281872692091011     
 PAO|LS| adapt: predicted energy  -7.7828097301529517     
 PAO| ======================= Iteration:        18 =============================

     Lanczos converged:  T threshold:   0.100E-02
     Est. extremal eigenvalues:    0.276E+01   0.184E+00
     Est. condition number :    0.150E+02

 Order=           3
     NS sqrt iter    1 1.00000000   0.706E+00       0.001       64.512
     NS sqrt iter    2 1.00000000   0.328E+00       0.001      110.592
     NS sqrt iter    3 1.00000000   0.737E-01       0.001      110.592
     NS sqrt iter    4 1.00000000   0.170E-02       0.001      110.592
     NS sqrt iter    5 1.00000000   0.422E-07       0.001       67.072
     Symmetrizing Results
     Final NS sqrt iter    5 1.00000000   0.329E-08

     Est. extremal eigenvalues     -0.93568     1.67202  converged:  T
     TRS4 it   1 1.00000000   0.866E+00       0.000       16.128   0.100E-07
     TRS4 it   2 1.00000000   0.609E+00       0.000       32.256   0.100E-07
     TRS4 it   3 1.00000000   0.413E+00       0.000       32.256   0.100E-07
     TRS4 it   4 1.00000000   0.206E+00       0.000       32.256   0.100E-07
     TRS4 it   5 1.00000000   0.643E-01       0.000       32.256   0.100E-07
     TRS4 it   6 1.00000000   0.781E-02       0.000       32.256   0.100E-07
     TRS4 it   7 1.00000000   0.153E-03       0.000       32.256   0.100E-07
     TRS4 it   8 1.00000000   0.819E-07       0.000       32.256   0.100E-07
     TRS4 it   9 1.00000000   0.295E-13       0.000       32.256   0.100E-07
     Final TRS4 iteration    9 1.00000000   0.295E-13
     Chemical potential (mu):       0.01410
 
 PAO| energy:  -7.7828093317747218      penalty:   1.5143871845311483E-005
 PAO|CG| trace_G_new    7.3064768334096385E-004
 PAO|CG| trace_G_prev    2.6060353481890809E-003
 PAO|CG| trace_G_mix    2.1584921520108501E-006
 PAO|CG| trace_D    3.3608998908284879E-003
 PAO|CG| trace_D_Gnew  -2.0722606679648639E-006
 PAO|CG| beta:   0.27953925939461105     
 PAO| norm of gradient:   2.7030495432769336E-002
 PAO| energy improvement:  -2.7690861875573347E-004
 PAO| step     18                   -7.782809332  0.169E-02  0.213E+00     0.037
 PAO|LS| adapt:  T F F
 PAO|LS| adapt: scan_steps:    0.0000000000000000        0.0000000000000000        0.0000000000000000     
 PAO|LS| adapt: energies:   -7.7828093317747218        0.0000000000000000        0.0000000000000000     
 PAO| ======================= Iteration:        19 =============================

     Lanczos converged:  T threshold:   0.100E-02
     Est. extremal eigenvalues:    0.276E+01   0.184E+00
     Est. condition number :    0.150E+02

 Order=           3
     NS sqrt iter    1 1.00000000   0.706E+00       0.001       64.512
     NS sqrt iter    2 1.00000000   0.329E+00       0.001      110.592
     NS sqrt iter    3 1.00000000   0.740E-01       0.001      110.592
     NS sqrt iter    4 1.00000000   0.171E-02       0.001      110.592
     NS sqrt iter    5 1.00000000   0.426E-07       0.001       67.072
     Symmetrizing Results
     Final NS sqrt iter    5 1.00000000   0.336E-08

     Est. extremal eigenvalues     -0.93568     1.67241  converged:  T
     TRS4 it   1 1.00000000   0.866E+00       0.000       16.128   0.100E-07
     TRS4 it   2 1.00000000   0.609E+00       0.000       32.256   0.100E-07
     TRS4 it   3 1.00000000   0.413E+00       0.000       32.256   0.100E-07
     TRS4 it   4 1.00000000   0.206E+00       0.000       32.256   0.100E-07
     TRS4 it   5 1.00000000   0.642E-01       0.000       32.256   0.100E-07
     TRS4 it   6 1.00000000   0.781E-02       0.000       32.256   0.100E-07
     TRS4 it   7 1.00000000   0.154E-03       0.000       32.256   0.100E-07
     TRS4 it   8 1.00000000   0.832E-07       0.000       32.256   0.100E-07
     TRS4 it   9 1.00000000   0.300E-13       0.000       32.256   0.100E-07
     Final TRS4 iteration    9 1.00000000   0.300E-13
     Chemical potential (mu):       0.01384
 
 PAO| energy:  -7.7829279329012326      penalty:   1.4853234922441843E-005
 PAO|LS| adapt:  T T F
 PAO|LS| adapt: scan_steps:    0.0000000000000000       0.21281872692091011        0.0000000000000000     
 PAO|LS| adapt: energies:   -7.7828093317747218       -7.7829279329012326        0.0000000000000000     
 PAO| ======================= Iteration:        20 =============================

     Lanczos converged:  T threshold:   0.100E-02
     Est. extremal eigenvalues:    0.276E+01   0.184E+00
     Est. condition number :    0.150E+02

 Order=           3
     NS sqrt iter    1 1.00000000   0.706E+00       0.001       64.512
     NS sqrt iter    2 1.00000000   0.329E+00       0.001      110.592
     NS sqrt iter    3 1.00000000   0.742E-01       0.001      110.592
     NS sqrt iter    4 1.00000000   0.172E-02       0.001      110.592
     NS sqrt iter    5 1.00000000   0.430E-07       0.001       67.200
     Symmetrizing Results
     Final NS sqrt iter    5 1.00000000   0.345E-08

     Est. extremal eigenvalues     -0.93568     1.67280  converged:  T
     TRS4 it   1 1.00000000   0.866E+00       0.000       16.128   0.100E-07
     TRS4 it   2 1.00000000   0.609E+00       0.000       32.256   0.100E-07
     TRS4 it   3 1.00000000   0.413E+00       0.000       32.256   0.100E-07
     TRS4 it   4 1.00000000   0.206E+00       0.000       32.256   0.100E-07
     TRS4 it   5 1.00000000   0.641E-01       0.000       32.256   0.100E-07
     TRS4 it   6 1.00000000   0.780E-02       0.000       32.256   0.100E-07
     TRS4 it   7 1.00000000   0.154E-03       0.000       32.256   0.100E-07
     TRS4 it   8 1.00000000   0.845E-07       0.000       32.256   0.100E-07
     TRS4 it   9 1.00000000   0.303E-13       0.000       32.256   0.100E-07
     Final TRS4 iteration    9 1.00000000   0.303E-13
     Chemical potential (mu):       0.01357
 
 PAO| energy:  -7.7829720957591864      penalty:   1.4575102655201100E-005
 PAO|LS| adapt:  T T F
 PAO|LS| adapt: scan_steps:    0.0000000000000000       0.42563745384182022        0.0000000000000000     
 PAO|LS| adapt: energies:   -7.7828093317747218       -7.7829720957591864        0.0000000000000000     
 PAO| ======================= Iteration:        21 =============================

     Lanczos converged:  T threshold:   0.100E-02
     Est. extremal eigenvalues:    0.276E+01   0.184E+00
     Est. condition number :    0.150E+02

 Order=           3
     NS sqrt iter    1 1.00000000   0.706E+00       0.001       64.512
     NS sqrt iter    2 1.00000000   0.329E+00       0.001      110.592
     NS sqrt iter    3 1.00000000   0.746E-01       0.001      110.592
     NS sqrt iter    4 1.00000000   0.174E-02       0.001      110.592
     NS sqrt iter    5 1.00000000   0.440E-07       0.001       69.120
     Symmetrizing Results
     Final NS sqrt iter    5 1.00000000   0.334E-09

     Est. extremal eigenvalues     -0.93567     1.67359  converged:  T
     TRS4 it   1 1.00000000   0.866E+00       0.000       16.128   0.100E-07
     TRS4 it   2 1.00000000   0.609E+00       0.000       32.256   0.100E-07
     TRS4 it   3 1.00000000   0.412E+00       0.000       32.256   0.100E-07
     TRS4 it   4 1.00000000   0.206E+00       0.000       32.256   0.100E-07
     TRS4 it   5 1.00000000   0.639E-01       0.000       32.256   0.100E-07
     TRS4 it   6 1.00000000   0.779E-02       0.000       32.256   0.100E-07
     TRS4 it   7 1.00000000   0.155E-03       0.000       32.256   0.100E-07
     TRS4 it   8 1.00000000   0.873E-07       0.000       32.256   0.100E-07
     TRS4 it   9 1.00000000   0.333E-13       0.000       32.256   0.100E-07
     Final TRS4 iteration    9 1.00000000   0.333E-13
     Chemical potential (mu):       0.01304
 
 PAO| energy:  -7.7828346346675881      penalty:   1.4055778615290211E-005
 PAO|LS| Need extra step
 PAO|LS| adapt:  T T T
 PAO|LS| adapt: scan_steps:    0.0000000000000000       0.42563745384182022       0.85127490768364045     
 PAO|LS| adapt: energies:   -7.7828093317747218       -7.7829720957591864       -7.7828346346675881     
 PAO|LS| adapt: suggested step_size:   0.44357376188722664     
 PAO|LS| adapt: predicted energy  -7.7829723623243572     
 PAO| ======================= Iteration:        22 =============================

     Lanczos converged:  T threshold:   0.100E-02
     Est. extremal eigenvalues:    0.276E+01   0.184E+00
     Est. condition number :    0.150E+02

 Order=           3
     NS sqrt iter    1 1.00000000   0.706E+00       0.001       64.512
     NS sqrt iter    2 1.00000000   0.329E+00       0.001      110.592
     NS sqrt iter    3 1.00000000   0.742E-01       0.001      110.592
     NS sqrt iter    4 1.00000000   0.172E-02       0.001      110.592
     NS sqrt iter    5 1.00000000   0.431E-07       0.001       69.248
     Symmetrizing Results
     Final NS sqrt iter    5 1.00000000   0.322E-09

     Est. extremal eigenvalues     -0.93568     1.67283  converged:  T
     TRS4 it   1 1.00000000   0.866E+00       0.000       16.128   0.100E-07
     TRS4 it   2 1.00000000   0.609E+00       0.000       32.256   0.100E-07
     TRS4 it   3 1.00000000   0.413E+00       0.000       32.256   0.100E-07
     TRS4 it   4 1.00000000   0.206E+00       0.000       32.256   0.100E-07
     TRS4 it   5 1.00000000   0.641E-01       0.000       32.256   0.100E-07
     TRS4 it   6 1.00000000   0.780E-02       0.000       32.256   0.100E-07
     TRS4 it   7 1.00000000   0.154E-03       0.000       32.256   0.100E-07
     TRS4 it   8 1.00000000   0.846E-07       0.000       32.256   0.100E-07
     TRS4 it   9 1.00000000   0.315E-13       0.000       32.256   0.100E-07
     Final TRS4 iteration    9 1.00000000   0.315E-13
     Chemical potential (mu):       0.01355
 
 PAO| energy:  -7.7829723950046201      penalty:   1.4552227483362631E-005
 PAO|CG| trace_G_new    2.2445163868126420E-004
 PAO|CG| trace_G_prev    7.3064768334096385E-004
 PAO|CG| trace_G_mix    3.0250524201581362E-006
 PAO|CG| trace_D    9.9443434295674394E-004
 PAO|CG| trace_D_Gnew  -1.9253047477270986E-006
 PAO|CG| beta:   0.30305520883691789     
 PAO| norm of gradient:   1.4981710138741311E-002
 PAO| energy improvement:  -1.6306322989834143E-004
 PAO| step     22                   -7.782972395  0.936E-03  0.444E+00     0.049
 PAO|LS| adapt:  T F F
 PAO|LS| adapt: scan_steps:    0.0000000000000000        0.0000000000000000        0.0000000000000000     
 PAO|LS| adapt: energies:   -7.7829723950046201        0.0000000000000000        0.0000000000000000     
 PAO| ======================= Iteration:        23 =============================

     Lanczos converged:  T threshold:   0.100E-02
     Est. extremal eigenvalues:    0.276E+01   0.184E+00
     Est. condition number :    0.150E+02

 Order=           3
     NS sqrt iter    1 1.00000000   0.706E+00       0.001       64.512
     NS sqrt iter    2 1.00000000   0.329E+00       0.001      110.592
     NS sqrt iter    3 1.00000000   0.742E-01       0.001      110.592
     NS sqrt iter    4 1.00000000   0.172E-02       0.001      110.592
     NS sqrt iter    5 1.00000000   0.432E-07       0.001       69.248
     Symmetrizing Results
     Final NS sqrt iter    5 1.00000000   0.325E-09

     Est. extremal eigenvalues     -0.93568     1.67283  converged:  T
     TRS4 it   1 1.00000000   0.866E+00       0.000       16.128   0.100E-07
     TRS4 it   2 1.00000000   0.609E+00       0.000       32.256   0.100E-07
     TRS4 it   3 1.00000000   0.413E+00       0.000       32.256   0.100E-07
     TRS4 it   4 1.00000000   0.206E+00       0.000       32.256   0.100E-07
     TRS4 it   5 1.00000000   0.642E-01       0.000       32.256   0.100E-07
     TRS4 it   6 1.00000000   0.784E-02       0.000       32.256   0.100E-07
     TRS4 it   7 1.00000000   0.156E-03       0.000       32.256   0.100E-07
     TRS4 it   8 1.00000000   0.867E-07       0.000       32.256   0.100E-07
     TRS4 it   9 1.00000000   0.332E-13       0.000       32.256   0.100E-07
     Final TRS4 iteration    9 1.00000000   0.332E-13
     Chemical potential (mu):       0.01326
 
 PAO| energy:  -7.7830221806315745      penalty:   1.3868884753031087E-005
 PAO|LS| adapt:  T T F
 PAO|LS| adapt: scan_steps:    0.0000000000000000       0.44357376188722664        0.0000000000000000     
 PAO|LS| adapt: energies:   -7.7829723950046201       -7.7830221806315745        0.0000000000000000     
 PAO| ======================= Iteration:        24 =============================

     Lanczos converged:  T threshold:   0.100E-02
     Est. extremal eigenvalues:    0.276E+01   0.184E+00
     Est. condition number :    0.150E+02

 Order=           3
     NS sqrt iter    1 1.00000000   0.706E+00       0.001       64.512
     NS sqrt iter    2 1.00000000   0.329E+00       0.001      110.592
     NS sqrt iter    3 1.00000000   0.743E-01       0.001      110.592
     NS sqrt iter    4 1.00000000   0.172E-02       0.001      110.592
     NS sqrt iter    5 1.00000000   0.434E-07       0.001       69.120
     Symmetrizing Results
     Final NS sqrt iter    5 1.00000000   0.328E-09

     Est. extremal eigenvalues     -0.93568     1.67282  converged:  T
     TRS4 it   1 1.00000000   0.866E+00       0.000       16.128   0.100E-07
     TRS4 it   2 1.00000000   0.609E+00       0.001       32.256   0.100E-07
     TRS4 it   3 1.00000000   0.413E+00       0.000       32.256   0.100E-07
     TRS4 it   4 1.00000000   0.206E+00       0.000       32.256   0.100E-07
     TRS4 it   5 1.00000000   0.643E-01       0.000       32.256   0.100E-07
     TRS4 it   6 1.00000000   0.787E-02       0.000       32.256   0.100E-07
     TRS4 it   7 1.00000000   0.158E-03       0.000       32.256   0.100E-07
     TRS4 it   8 1.00000000   0.889E-07       0.000       32.256   0.100E-07
     TRS4 it   9 1.00000000   0.335E-13       0.000       32.256   0.100E-07
     Final TRS4 iteration    9 1.00000000   0.335E-13
     Chemical potential (mu):       0.01297
 
 PAO| energy:  -7.7829712422846145      penalty:   1.3213918149952704E-005
 PAO|LS| adapt:  T T T
 PAO|LS| adapt: scan_steps:    0.0000000000000000       0.44357376188722664       0.88714752377445327     
 PAO|LS| adapt: energies:   -7.7829723950046201       -7.7830221806315745       -7.7829712422846145     
 PAO|LS| adapt: suggested step_size:   0.44103555608851269     
 PAO|LS| adapt: predicted energy  -7.7830221822805905     
 PAO| ======================= Iteration:        25 =============================

     Lanczos converged:  T threshold:   0.100E-02
     Est. extremal eigenvalues:    0.276E+01   0.184E+00
     Est. condition number :    0.150E+02

 Order=           3
     NS sqrt iter    1 1.00000000   0.706E+00       0.001       64.512
     NS sqrt iter    2 1.00000000   0.329E+00       0.001      110.592
     NS sqrt iter    3 1.00000000   0.742E-01       0.001      110.592
     NS sqrt iter    4 1.00000000   0.172E-02       0.001      110.592
     NS sqrt iter    5 1.00000000   0.432E-07       0.001       69.248
     Symmetrizing Results
     Final NS sqrt iter    5 1.00000000   0.325E-09

     Est. extremal eigenvalues     -0.93568     1.67283  converged:  T
     TRS4 it   1 1.00000000   0.866E+00       0.000       16.128   0.100E-07
     TRS4 it   2 1.00000000   0.609E+00       0.000       32.256   0.100E-07
     TRS4 it   3 1.00000000   0.413E+00       0.000       32.256   0.100E-07
     TRS4 it   4 1.00000000   0.206E+00       0.000       32.256   0.100E-07
     TRS4 it   5 1.00000000   0.642E-01       0.000       32.256   0.100E-07
     TRS4 it   6 1.00000000   0.784E-02       0.000       32.256   0.100E-07
     TRS4 it   7 1.00000000   0.156E-03       0.000       32.256   0.100E-07
     TRS4 it   8 1.00000000   0.867E-07       0.000       32.256   0.100E-07
     TRS4 it   9 1.00000000   0.329E-13       0.000       32.256   0.100E-07
     Final TRS4 iteration    9 1.00000000   0.329E-13
     Chemical potential (mu):       0.01326
 
 PAO| energy:  -7.7830221813422344      penalty:   1.3872713661583148E-005
 PAO|CG| trace_G_new    8.0663919182140216E-005
 PAO|CG| trace_G_prev    2.2445163868126420E-004
 PAO|CG| trace_G_mix    7.4661098116242164E-007
 PAO|CG| trace_D    3.1694988191708582E-004
 PAO|CG| trace_D_Gnew  -3.6977597556689801E-007
 PAO|CG| beta:   0.35605580191136643     
 PAO| norm of gradient:   8.9813094358306249E-003
 PAO| energy improvement:  -4.9786337614321496E-005
 PAO| step     25                   -7.783022181  0.561E-03  0.441E+00     0.038
 PAO|LS| adapt:  T F F
 PAO|LS| adapt: scan_steps:    0.0000000000000000        0.0000000000000000        0.0000000000000000     
 PAO|LS| adapt: energies:   -7.7830221813422344        0.0000000000000000        0.0000000000000000     
 PAO| ======================= Iteration:        26 =============================

     Lanczos converged:  T threshold:   0.100E-02
     Est. extremal eigenvalues:    0.276E+01   0.184E+00
     Est. condition number :    0.150E+02

 Order=           3
     NS sqrt iter    1 1.00000000   0.705E+00       0.001       64.512
     NS sqrt iter    2 1.00000000   0.329E+00       0.001      110.592
     NS sqrt iter    3 1.00000000   0.741E-01       0.001      110.592
     NS sqrt iter    4 1.00000000   0.171E-02       0.001      110.592
     NS sqrt iter    5 1.00000000   0.430E-07       0.001       67.200
     Symmetrizing Results
     Final NS sqrt iter    5 1.00000000   0.341E-08

     Est. extremal eigenvalues     -0.93568     1.67272  converged:  T
     TRS4 it   1 1.00000000   0.866E+00       0.000       16.128   0.100E-07
     TRS4 it   2 1.00000000   0.609E+00       0.000       32.256   0.100E-07
     TRS4 it   3 1.00000000   0.412E+00       0.000       32.256   0.100E-07
     TRS4 it   4 1.00000000   0.206E+00       0.000       32.256   0.100E-07
     TRS4 it   5 1.00000000   0.641E-01       0.000       32.256   0.100E-07
     TRS4 it   6 1.00000000   0.782E-02       0.000       32.256   0.100E-07
     TRS4 it   7 1.00000000   0.155E-03       0.000       32.256   0.100E-07
     TRS4 it   8 1.00000000   0.856E-07       0.000       32.256   0.100E-07
     TRS4 it   9 1.00000000   0.315E-13       0.000       32.256   0.100E-07
     Final TRS4 iteration    9 1.00000000   0.315E-13
     Chemical potential (mu):       0.01339
 
 PAO| energy:  -7.7830264589718796      penalty:   1.3148842837773131E-005
 PAO|LS| adapt:  T T F
 PAO|LS| adapt: scan_steps:    0.0000000000000000       0.44103555608851269        0.0000000000000000     
 PAO|LS| adapt: energies:   -7.7830221813422344       -7.7830264589718796        0.0000000000000000     
 PAO| ======================= Iteration:        27 =============================

     Lanczos converged:  T threshold:   0.100E-02
     Est. extremal eigenvalues:    0.276E+01   0.184E+00
     Est. condition number :    0.150E+02

 Order=           3
     NS sqrt iter    1 1.00000000   0.705E+00       0.001       64.512
     NS sqrt iter    2 1.00000000   0.329E+00       0.001      110.592
     NS sqrt iter    3 1.00000000   0.740E-01       0.001      110.592
     NS sqrt iter    4 1.00000000   0.171E-02       0.001      110.592
     NS sqrt iter    5 1.00000000   0.429E-07       0.001       67.072
     Symmetrizing Results
     Final NS sqrt iter    5 1.00000000   0.333E-08

     Est. extremal eigenvalues     -0.93569     1.67261  converged:  T
     TRS4 it   1 1.00000000   0.866E+00       0.000       16.128   0.100E-07
     TRS4 it   2 1.00000000   0.609E+00       0.000       32.256   0.100E-07
     TRS4 it   3 1.00000000   0.412E+00       0.000       32.256   0.100E-07
     TRS4 it   4 1.00000000   0.206E+00       0.000       32.256   0.100E-07
     TRS4 it   5 1.00000000   0.640E-01       0.000       32.256   0.100E-07
     TRS4 it   6 1.00000000   0.780E-02       0.000       32.256   0.100E-07
     TRS4 it   7 1.00000000   0.154E-03       0.000       32.256   0.100E-07
     TRS4 it   8 1.00000000   0.846E-07       0.000       32.256   0.100E-07
     TRS4 it   9 1.00000000   0.310E-13       0.000       32.256   0.100E-07
     Final TRS4 iteration    9 1.00000000   0.310E-13
     Chemical potential (mu):       0.01353
 
 PAO| energy:  -7.7829679100276898      penalty:   1.2448688136513676E-005
 PAO|LS| adapt:  T T T
 PAO|LS| adapt: scan_steps:    0.0000000000000000       0.44103555608851269       0.88207111217702538     
 PAO|LS| adapt: energies:   -7.7830221813422344       -7.7830264589718796       -7.7829679100276898     
 PAO|LS| adapt: suggested step_size:   0.25054626207798925     
 PAO|LS| adapt: predicted energy  -7.7830323191027979     
 PAO| ======================= Iteration:        28 =============================

     Lanczos converged:  T threshold:   0.100E-02
     Est. extremal eigenvalues:    0.276E+01   0.184E+00
     Est. condition number :    0.150E+02

 Order=           3
     NS sqrt iter    1 1.00000000   0.705E+00       0.001       64.512
     NS sqrt iter    2 1.00000000   0.329E+00       0.001      110.592
     NS sqrt iter    3 1.00000000   0.742E-01       0.001      110.592
     NS sqrt iter    4 1.00000000   0.172E-02       0.001      110.592
     NS sqrt iter    5 1.00000000   0.431E-07       0.001       67.328
     Symmetrizing Results
     Final NS sqrt iter    5 1.00000000   0.334E-08

     Est. extremal eigenvalues     -0.93568     1.67277  converged:  T
     TRS4 it   1 1.00000000   0.866E+00       0.000       16.128   0.100E-07
     TRS4 it   2 1.00000000   0.609E+00       0.000       32.256   0.100E-07
     TRS4 it   3 1.00000000   0.413E+00       0.000       32.256   0.100E-07
     TRS4 it   4 1.00000000   0.206E+00       0.000       32.256   0.100E-07
     TRS4 it   5 1.00000000   0.641E-01       0.000       32.256   0.100E-07
     TRS4 it   6 1.00000000   0.783E-02       0.000       32.256   0.100E-07
     TRS4 it   7 1.00000000   0.155E-03       0.000       32.256   0.100E-07
     TRS4 it   8 1.00000000   0.861E-07       0.000       32.256   0.100E-07
     TRS4 it   9 1.00000000   0.325E-13       0.000       32.256   0.100E-07
     Final TRS4 iteration    9 1.00000000   0.325E-13
     Chemical potential (mu):       0.01334
 
 PAO| energy:  -7.7830323101607100      penalty:   1.3458563984640152E-005
 PAO|CG| trace_G_new    3.2217111401964537E-005
 PAO|CG| trace_G_prev    8.0663919182140216E-005
 PAO|CG| trace_G_mix    5.1495909643173863E-008
 PAO|CG| trace_D    1.2110879489009897E-004
 PAO|CG| trace_D_Gnew  -2.3097026847105633E-008
 PAO|CG| beta:   0.39876088117775399     
 PAO| norm of gradient:   5.6760119275741962E-003
 PAO| energy improvement:  -1.0128818475507728E-005
 PAO| step     28                   -7.783032310  0.355E-03  0.251E+00     0.038
 PAO|LS| adapt:  T F F
 PAO|LS| adapt: scan_steps:    0.0000000000000000        0.0000000000000000        0.0000000000000000     
 PAO|LS| adapt: energies:   -7.7830323101607100        0.0000000000000000        0.0000000000000000     
 PAO| ======================= Iteration:        29 =============================

     Lanczos converged:  T threshold:   0.100E-02
     Est. extremal eigenvalues:    0.276E+01   0.184E+00
     Est. condition number :    0.150E+02

 Order=           3
     NS sqrt iter    1 1.00000000   0.705E+00       0.001       64.512
     NS sqrt iter    2 1.00000000   0.329E+00       0.001      110.592
     NS sqrt iter    3 1.00000000   0.741E-01       0.001      110.592
     NS sqrt iter    4 1.00000000   0.171E-02       0.001      110.592
     NS sqrt iter    5 1.00000000   0.431E-07       0.001       67.072
     Symmetrizing Results
     Final NS sqrt iter    5 1.00000000   0.339E-08

     Est. extremal eigenvalues     -0.93569     1.67279  converged:  T
     TRS4 it   1 1.00000000   0.866E+00       0.000       16.128   0.100E-07
     TRS4 it   2 1.00000000   0.609E+00       0.000       32.256   0.100E-07
     TRS4 it   3 1.00000000   0.412E+00       0.000       32.256   0.100E-07
     TRS4 it   4 1.00000000   0.206E+00       0.000       32.256   0.100E-07
     TRS4 it   5 1.00000000   0.640E-01       0.000       32.256   0.100E-07
     TRS4 it   6 1.00000000   0.780E-02       0.000       32.256   0.100E-07
     TRS4 it   7 1.00000000   0.154E-03       0.000       32.256   0.100E-07
     TRS4 it   8 1.00000000   0.850E-07       0.000       32.256   0.100E-07
     TRS4 it   9 1.00000000   0.320E-13       0.000       32.256   0.100E-07
     Final TRS4 iteration    9 1.00000000   0.320E-13
     Chemical potential (mu):       0.01347
 
 PAO| energy:  -7.7830394308513489      penalty:   1.3024067189167573E-005
 PAO|LS| adapt:  T T F
 PAO|LS| adapt: scan_steps:    0.0000000000000000       0.25054626207798925        0.0000000000000000     
 PAO|LS| adapt: energies:   -7.7830323101607100       -7.7830394308513489        0.0000000000000000     
 PAO| ======================= Iteration:        30 =============================

     Lanczos converged:  T threshold:   0.100E-02
     Est. extremal eigenvalues:    0.276E+01   0.184E+00
     Est. condition number :    0.150E+02

 Order=           3
     NS sqrt iter    1 1.00000000   0.705E+00       0.001       64.512
     NS sqrt iter    2 1.00000000   0.329E+00       0.001      110.592
     NS sqrt iter    3 1.00000000   0.740E-01       0.001      110.592
     NS sqrt iter    4 1.00000000   0.171E-02       0.001      110.592
     NS sqrt iter    5 1.00000000   0.431E-07       0.001       67.072
     Symmetrizing Results
     Final NS sqrt iter    5 1.00000000   0.334E-08

     Est. extremal eigenvalues     -0.93569     1.67281  converged:  T
     TRS4 it   1 1.00000000   0.866E+00       0.000       16.128   0.100E-07
     TRS4 it   2 1.00000000   0.609E+00       0.000       32.256   0.100E-07
     TRS4 it   3 1.00000000   0.412E+00       0.000       32.256   0.100E-07
     TRS4 it   4 1.00000000   0.206E+00       0.000       32.256   0.100E-07
     TRS4 it   5 1.00000000   0.640E-01       0.000       32.256   0.100E-07
     TRS4 it   6 1.00000000   0.778E-02       0.000       32.256   0.100E-07
     TRS4 it   7 1.00000000   0.154E-03       0.000       32.256   0.100E-07
     TRS4 it   8 1.00000000   0.839E-07       0.000       32.256   0.100E-07
     TRS4 it   9 1.00000000   0.309E-13       0.000       32.256   0.100E-07
     Final TRS4 iteration    9 1.00000000   0.309E-13
     Chemical potential (mu):       0.01362
 
 PAO| energy:  -7.7830446447792330      penalty:   1.2597545304617391E-005
 PAO|LS| adapt:  T T F
 PAO|LS| adapt: scan_steps:    0.0000000000000000       0.50109252415597849        0.0000000000000000     
 PAO|LS| adapt: energies:   -7.7830323101607100       -7.7830446447792330        0.0000000000000000     
 PAO| ======================= Iteration:        31 =============================

     Lanczos converged:  T threshold:   0.100E-02
     Est. extremal eigenvalues:    0.276E+01   0.184E+00
     Est. condition number :    0.150E+02

 Order=           3
     NS sqrt iter    1 1.00000000   0.705E+00       0.001       64.512
     NS sqrt iter    2 1.00000000   0.328E+00       0.001      110.592
     NS sqrt iter    3 1.00000000   0.739E-01       0.001      110.592
     NS sqrt iter    4 1.00000000   0.171E-02       0.001      110.592
     NS sqrt iter    5 1.00000000   0.431E-07       0.001       67.072
     Symmetrizing Results
     Final NS sqrt iter    5 1.00000000   0.325E-08

     Est. extremal eigenvalues     -0.93569     1.67286  converged:  T
     TRS4 it   1 1.00000000   0.867E+00       0.000       16.128   0.100E-07
     TRS4 it   2 1.00000000   0.609E+00       0.000       32.256   0.100E-07
     TRS4 it   3 1.00000000   0.412E+00       0.000       32.256   0.100E-07
     TRS4 it   4 1.00000000   0.206E+00       0.000       32.256   0.100E-07
     TRS4 it   5 1.00000000   0.638E-01       0.000       32.256   0.100E-07
     TRS4 it   6 1.00000000   0.774E-02       0.000       32.256   0.100E-07
     TRS4 it   7 1.00000000   0.152E-03       0.000       32.256   0.100E-07
     TRS4 it   8 1.00000000   0.818E-07       0.000       32.256   0.100E-07
     TRS4 it   9 1.00000000   0.278E-13       0.000       32.256   0.100E-07
     Final TRS4 iteration    9 1.00000000   0.278E-13
     Chemical potential (mu):       0.01390
 
 PAO| energy:  -7.7830493542068346      penalty:   1.1768258968340031E-005
 PAO|LS| Need extra step
 PAO|LS| adapt:  T T F
 PAO|LS| adapt: scan_steps:    0.0000000000000000        1.0021850483119570        0.0000000000000000     
 PAO|LS| adapt: energies:   -7.7830323101607100       -7.7830493542068346        0.0000000000000000     
 PAO| ======================= Iteration:        32 =============================

     Lanczos converged:  T threshold:   0.100E-02
     Est. extremal eigenvalues:    0.276E+01   0.184E+00
     Est. condition number :    0.150E+02

 Order=           3
     NS sqrt iter    1 1.00000000   0.704E+00       0.001       64.512
     NS sqrt iter    2 1.00000000   0.328E+00       0.001      110.592
     NS sqrt iter    3 1.00000000   0.737E-01       0.001      110.592
[...]
     TRS4 it   1 1.00000000   0.880E+00       0.000       16.128   0.100E-07
     TRS4 it   2 1.00000000   0.632E+00       0.000       32.256   0.100E-07
     TRS4 it   3 1.00000000   0.454E+00       0.000       32.256   0.100E-07
     TRS4 it   4 1.00000000   0.276E+00       0.000       32.256   0.100E-07
     TRS4 it   5 1.00000000   0.136E+00       0.000       32.256   0.100E-07
     TRS4 it   6 1.00000000   0.420E-01       0.000       32.256   0.100E-07
     TRS4 it   7 1.00000000   0.555E-02       0.000       32.256   0.100E-07
     TRS4 it   8 1.00000000   0.130E-03       0.000       32.256   0.100E-07
     TRS4 it   9 1.00000000   0.755E-07       0.000       32.256   0.100E-07
     Final TRS4 iteration    9 1.00000000   0.755E-07
     Chemical potential (mu):      -0.07278
 
 PAO| energy:  -7.7823356251133715      penalty:   3.4150655961351311E-008
 PAO|CG| warming up with steepest descent
 PAO|CG| beta:    0.0000000000000000     
 PAO| norm of gradient:   1.3303037007495659E-004
 PAO| energy improvement:  -5.6114703994580850E-009
 PAO| step    416                   -7.782335625  0.831E-05  0.255E+00     0.053
 PAO| converged after          416  steps :-)
 PAO| Recalculating energy after mixing.

     Lanczos converged:  T threshold:   0.100E-02
     Est. extremal eigenvalues:    0.251E+01   0.191E+00
     Est. condition number :    0.132E+02

 Order=           3
     NS sqrt iter    1 1.00000000   0.636E+00       0.001       64.512
     NS sqrt iter    2 1.00000000   0.276E+00       0.001      110.592
     NS sqrt iter    3 1.00000000   0.490E-01       0.001      110.592
     NS sqrt iter    4 1.00000000   0.779E-03       0.001      110.592
     NS sqrt iter    5 1.00000000   0.622E-08       0.001       38.272
     Symmetrizing Results
     Final NS sqrt iter    5 1.00000000   0.368E-09

     Est. extremal eigenvalues     -0.93538     1.63169  converged:  T
     TRS4 it   1 1.00000000   0.880E+00       0.000       16.128   0.100E-07
     TRS4 it   2 1.00000000   0.632E+00       0.000       32.256   0.100E-07
     TRS4 it   3 1.00000000   0.454E+00       0.000       32.256   0.100E-07
     TRS4 it   4 1.00000000   0.276E+00       0.000       32.256   0.100E-07
     TRS4 it   5 1.00000000   0.136E+00       0.000       32.256   0.100E-07
     TRS4 it   6 1.00000000   0.420E-01       0.000       32.256   0.100E-07
     TRS4 it   7 1.00000000   0.555E-02       0.000       32.256   0.100E-07
     TRS4 it   8 1.00000000   0.130E-03       0.000       32.256   0.100E-07
     TRS4 it   9 1.00000000   0.755E-07       0.000       32.256   0.100E-07
     Final TRS4 iteration    9 1.00000000   0.755E-07
     Chemical potential (mu):      -0.07278
 
 PAO| energy:  -7.7823356237104857      penalty:   3.4503085017340662E-008
 PAO| Writing restart file.
     Est. extremal eigenvalues     -0.93538     1.63169  converged:  T
     TRS4 it   1 1.00000000   0.880E+00       0.000       16.128   0.100E-07
     TRS4 it   2 1.00000000   0.632E+00       0.000       32.256   0.100E-07
     TRS4 it   3 1.00000000   0.454E+00       0.000       32.256   0.100E-07
     TRS4 it   4 1.00000000   0.276E+00       0.000       32.256   0.100E-07
     TRS4 it   5 1.00000000   0.136E+00       0.000       32.256   0.100E-07
     TRS4 it   6 1.00000000   0.420E-01       0.000       32.256   0.100E-07
     TRS4 it   7 1.00000000   0.555E-02       0.000       32.256   0.100E-07
     TRS4 it   8 1.00000000   0.130E-03       0.000       32.256   0.100E-07
     TRS4 it   9 1.00000000   0.755E-07       0.000       32.256   0.100E-07
     Final TRS4 iteration    9 1.00000000   0.755E-07
     Chemical potential (mu):      -0.07278

 SCF     1       -34.450652855       -34.450652855    1.873565

*********************************************************
 Using MIXING_FRACTION=0.450 to mix KS matrix:  iscf=  2
 KS_nw=0.450*KS + 0.550*KS_old
*********************************************************
     Est. extremal eigenvalues     -0.93539     1.63169  converged:  T
     TRS4 it   1 1.00000000   0.880E+00       0.000       16.128   0.100E-07
     TRS4 it   2 1.00000000   0.632E+00       0.000       32.256   0.100E-07
     TRS4 it   3 1.00000000   0.454E+00       0.000       32.256   0.100E-07
     TRS4 it   4 1.00000000   0.276E+00       0.000       32.256   0.100E-07
     TRS4 it   5 1.00000000   0.136E+00       0.000       32.256   0.100E-07
     TRS4 it   6 1.00000000   0.420E-01       0.000       32.256   0.100E-07
     TRS4 it   7 1.00000000   0.555E-02       0.000       32.256   0.100E-07
     TRS4 it   8 1.00000000   0.130E-03       0.000       32.256   0.100E-07
     TRS4 it   9 1.00000000   0.756E-07       0.000       32.256   0.100E-07
     Final TRS4 iteration    9 1.00000000   0.756E-07
     Chemical potential (mu):      -0.07279

 SCF     2       -34.450652855        -0.000000000    2.262930


 SCF run converged in     2 steps.

 PAO| Storing density matrix for ASPC guess in slot:           1

 ENERGY| Total FORCE_EVAL ( QS ) energy [a.u.]:              -34.450652855285512

 -------------------------------------------------------------------------------
 -                                                                             -
 -                                DBCSR STATISTICS                             -
 -                                                                             -
 -------------------------------------------------------------------------------
 COUNTER                                    TOTAL       BLAS       SMM       ACC
 flops     5 x     5 x     4                20000       0.0%    100.0%      0.0%
 flops    13 x     5 x     4                20800       0.0%    100.0%      0.0%
 flops     5 x    13 x     4                20800       0.0%    100.0%      0.0%
 flops    13 x    13 x     4                40560       0.0%    100.0%      0.0%
 flops     4 x     4 x     5              3267840       0.0%    100.0%      0.0%
 flops     5 x     4 x     5              3990400       0.0%    100.0%      0.0%
 flops     4 x     4 x    13              4248192       0.0%    100.0%      0.0%
 flops    13 x     4 x     5              5187520       0.0%    100.0%      0.0%
 flops     5 x     4 x    13              5187520       0.0%    100.0%      0.0%
 flops     5 x     4 x     4              6694080       0.0%    100.0%      0.0%
 flops    13 x     4 x    13              6743776       0.0%    100.0%      0.0%
 flops    13 x     4 x     4              9062976       0.0%    100.0%      0.0%
 flops     4 x     4 x     4            415706368       0.0%    100.0%      0.0%
 flops inhomo. stacks                           0       0.0%      0.0%      0.0%
 flops total                       460.190832E+06       0.0%    100.0%      0.0%
 flops max/rank                    460.190832E+06       0.0%    100.0%      0.0%
 matmuls inhomo. stacks                         0       0.0%      0.0%      0.0%
 matmuls total                            3387068       0.0%    100.0%      0.0%
 number of processed stacks                 27063       0.0%    100.0%      0.0%
 average stack size                                     0.0     125.2       0.0
 marketing flops                   746.578368E+06
 -------------------------------------------------------------------------------
 # multiplications                          22490
 max memory usage/rank             506.195968E+06
 # max total images/rank                        1
 # max 3D layers                                1
 # MPI messages exchanged                       0
 -------------------------------------------------------------------------------

 -------------------------------------------------------------------------------
 -                                                                             -
 -                                DBM STATISTICS                               -
 -                                                                             -
 -------------------------------------------------------------------------------
    M  x    N  x    K                                          COUNT     PERCENT
 -------------------------------------------------------------------------------

 -------------------------------------------------------------------------------
 -                                                                             -
 -                                GRID STATISTICS                              -
 -                                                                             -
 -------------------------------------------------------------------------------
 LP    KERNEL             BACKEND                              COUNT     PERCENT
 2     collocate ortho    REF                                  38070      30.72%
 2     integrate ortho    REF                                  38070      30.72%
 3     collocate ortho    REF                                  19600      15.82%
 3     integrate ortho    REF                                  19600      15.82%
 4     collocate ortho    REF                                   4280       3.45%
 4     integrate ortho    REF                                   4280       3.45%
 0     collocate general  REF                                      6       0.00%
 -------------------------------------------------------------------------------

 MEMORY| Estimated peak process memory [MiB]                                 483

 -------------------------------------------------------------------------------
 -                                                                             -
 -                           R E F E R E N C E S                               -
 -                                                                             -
 -------------------------------------------------------------------------------
 
 CP2K version 2023.1 (Development Version), the CP2K developers group (2023).
 CP2K is freely available from https://www.cp2k.org/ .

 Kuehne,Thomas D.; Iannuzzi,Marcella; Del Ben,Mauro;
 Rybkin,Vladimir V.; Seewald,Patrick; Stein,Frederick; Laino,Teodoro;
 Khaliullin,Rustam Z.; Schuett,Ole; Schiffmann,Florian; Golze,Dorothea;
 Wilhelm,Jan; Chulkov,Sergey; Bani-Hashemian,Mohammad Hossein;
 Weber,Valery; Borstnik,Urban; Taillefumier,Mathieu;
 Jakobovits,Alice Shoshana; Lazzaro,Alfio; Pabst,Hans; Mueller,Tiziano;
 Schade,Robert; Guidon,Manuel; Andermatt,Samuel; Holmberg,Nico;
 Schenter,Gregory K.; Hehn,Anna; Bussy,Augustin; Belleflamme,Fabian;
 Tabacchi,Gloria; Gloess,Andreas; Lass,Michael; Bethune,Iain;
 Mundy,Christopher J.; Plessl,Christian; Watkins,Matt;
 VandeVondele,Joost; Krack,Matthias; Hutter,Juerg. 
 The Journal of Chemical Physics, 152 (19), (2020). 
 CP2K: An electronic structure and molecular dynamics software package -
 Quickstep: Efficient and accurate electronic structure calculations.
 https://doi.org/10.1063/5.0007045

 Schuett, O; VandeVondele, J. 
 Journal of Chemical Theory and Computation, 14, (2018). 
 Machine Learning Adaptive Basis Sets for Efficient Large Scale
 Density Functional Theory Simulation.
 https://doi.org/10.1021/acs.jctc.8b00378

 Schuett, Ole; Messmer, Peter; Hutter, Juerg; VandeVondele, Joost. 
 Electronic Structure Calculations on Graphics Processing Units, John
 Wiley & Sons, Ltd, 173-190 (2016). 
 GPU-Accelerated Sparse Matrix-Matrix Multiplication for
 Linear Scaling Density Functional Theory.
 https://doi.org/10.1002/9781118670712.ch8

 Heinecke, A; Henry, G; Hutchinson, M; Pabst, H. 
 Proceedings of Intl. Supercomputing Conference, 981-991 (2016). 
 LIBXSMM: Accelerating Small Matrix Multiplications
 by Runtime Code Generation.
 https://doi.org/10.1109/SC.2016.83

 Borstnik, U; VandeVondele, J; Weber, V; Hutter, J. 
 PARALLEL COMPUTING, 40 (5-6), 47-58 (2014). 
 Sparse matrix multiplication: The distributed block-compressed sparse
 row library.
 https://doi.org/10.1016/j.parco.2014.03.012

 Hutter, J; Iannuzzi, M; Schiffmann, F; VandeVondele, J. 
 WIREs Comput Mol Sci., 4 (1), 15-25 (2014). 
 CP2K: atomistic simulations of condensed matter systems.
 https://doi.org/10.1002/wcms.1159

 VandeVondele, J; Borstnik, U; Hutter, J. 
 JOURNAL OF CHEMICAL THEORY AND COMPUTATION, 8 (10), 3565-3573 (2012). 
 Linear Scaling Self-Consistent Field Calculations with Millions of Atoms
 in the Condensed Phase.
 https://doi.org/10.1021/ct200897x

 VandeVondele, J; Hutter, J. 
 JOURNAL OF CHEMICAL PHYSICS, 127 (11), 114105 (2007). 
 Gaussian basis sets for accurate calculations on molecular systems in
 gas and condensed phases.
 https://doi.org/10.1063/1.2770708

 Krack, M. 
 THEORETICAL CHEMISTRY ACCOUNTS, 114 (1-3), 145-152 (2005). 
 Pseudopotentials for H to Kr optimized for gradient-corrected
 exchange-correlation functionals.
 https://doi.org/10.1007/s00214-005-0655-y

 VandeVondele, J; Krack, M; Mohamed, F; Parrinello, M; Chassaing, T;
 Hutter, J. COMPUTER PHYSICS COMMUNICATIONS, 167 (2), 103-128 (2005). 
 QUICKSTEP: Fast and accurate density functional calculations using a
 mixed Gaussian and plane waves approach.
 https://doi.org/10.1016/j.cpc.2004.12.014

 Frigo, M; Johnson, SG. 
 PROCEEDINGS OF THE IEEE, 93 (2), 216-231 (2005). 
 The design and implementation of FFTW3.
 https://doi.org/10.1109/JPROC.2004.840301

 Niklasson, AMN; Tymczak, CJ; Challacombe, M. 
 JOURNAL OF CHEMICAL PHYSICS, 118 (19), 8611-8620 (2003). 
 Trace resetting density matrix purification in O(N)
 self-consistent-field theory.
 https://doi.org/10.1063/1.1559913

 Hartwigsen, C; Goedecker, S; Hutter, J. 
 PHYSICAL REVIEW B, 58 (7), 3641-3662 (1998). 
 Relativistic separable dual-space Gaussian pseudopotentials from H to Rn.
 https://doi.org/10.1103/PhysRevB.58.3641

 Lippert, G; Hutter, J; Parrinello, M. 
 MOLECULAR PHYSICS, 92 (3), 477-487 (1997). 
 A hybrid Gaussian and plane wave density functional scheme.
 https://doi.org/10.1080/002689797170220

 Perdew, JP; Burke, K; Ernzerhof, M. 
 PHYSICAL REVIEW LETTERS, 77 (18), 3865-3868 (1996). 
 Generalized gradient approximation made simple.
 https://doi.org/10.1103/PhysRevLett.77.3865

 Goedecker, S; Teter, M; Hutter, J. 
 PHYSICAL REVIEW B, 54 (3), 1703-1710 (1996). 
 Separable dual-space Gaussian pseudopotentials.
 https://doi.org/10.1103/PhysRevB.54.1703


 -------------------------------------------------------------------------------
 -                                                                             -
 -                                T I M I N G                                  -
 -                                                                             -
 -------------------------------------------------------------------------------
 SUBROUTINE                       CALLS  ASD         SELF TIME        TOTAL TIME
                                MAXIMUM       AVERAGE  MAXIMUM  AVERAGE  MAXIMUM
 CP2K                                 1  1.0    0.014    0.014   26.377   26.377
 qs_energies                          1  2.0    0.000    0.000   25.728   25.728
 ls_scf                               1  3.0    0.000    0.000   25.466   25.466
 ls_scf_main                          4  4.0    0.001    0.001   16.512   16.512
 ls_scf_dm_to_ks                      9  5.0    0.000    0.000   16.453   16.453
 qs_ks_update_qs_env                 10  6.0    0.000    0.000   15.611   15.611
 rebuild_ks_matrix                   10  7.0    0.000    0.000   15.610   15.610
 qs_ks_build_kohn_sham_matrix        10  8.0    0.003    0.003   15.610   15.610
 qs_vxc_create                       10  9.0    0.000    0.000   10.280   10.280
 xc_vxc_pw_create                    10 10.0    0.254    0.254   10.279   10.279
 pw_transfer                        191 11.1    0.023    0.023    8.310    8.310
 fft_wrap_pw1pw2                    171 12.3    0.003    0.003    8.055    8.055
 fft_wrap_pw1pw2_200                111 13.7    1.124    1.124    7.807    7.807
 xc_pw_derive                        60 12.0    0.001    0.001    6.031    6.031
 xc_rho_set_and_dset_create          10 11.0    0.287    0.287    5.474    5.474
 pao_update                           4  4.0    0.006    0.006    5.336    5.336
 pao_calc_energy                    419  5.0    0.002    0.002    4.824    4.824
 qs_rho_update_rho_low               10  6.0    0.000    0.000    4.415    4.415
 calculate_rho_elec                  10  7.0    0.048    0.048    4.414    4.414
 xc_pw_divergence                    10 11.0    0.001    0.001    4.365    4.365
 sum_up_and_integrate                10  9.0    0.169    0.169    3.835    3.835
 dbcsr_multiply_generic           22490  8.4    0.244    0.244    3.821    3.821
 integrate_v_rspace                  10 10.0    0.001    0.001    3.666    3.666
 pao_guess_initial_P                  1  4.0    0.000    0.000    3.576    3.576
 pao_read_preopt_dm                   1  5.0    0.000    0.000    3.576    3.576
 fft3d_s                            172 14.2    3.231    3.231    3.262    3.262
 grid_integrate_task_list            10 11.0    2.695    2.695    2.695    2.695
 grid_collocate_task_list            10  8.0    2.576    2.576    2.576    2.576
 pao_dm_trs4                        419  6.0    0.002    0.002    2.483    2.483
 density_matrix_trs4                428  7.0    0.079    0.079    2.390    2.390
 ls_scf_init_matrix_S               423  7.0    0.002    0.002    2.332    2.332
 pao_rebuild_S                      419  6.0    0.001    0.001    2.305    2.305
 xc_functional_eval                  10 12.0    0.000    0.000    2.103    2.103
 pbe_lda_eval                        10 13.0    2.103    2.103    2.103    2.103
 matrix_sqrt_Newton_Schulz          423  8.0    0.054    0.054    2.100    2.100
 pw_gather_s                         81 13.8    1.828    1.828    1.828    1.828
 pw_scatter_s                        90 14.7    1.807    1.807    1.807    1.807
 density_rs2pw                       10  8.0    0.001    0.001    1.790    1.790
 make_m2s                         44980  9.4    0.089    0.089    1.444    1.444
 multiply_cannon                  22490  9.4    0.573    0.573    1.418    1.418
 pw_derive                           60 13.0    1.357    1.357    1.357    1.357
 make_images                      44980 10.4    0.368    0.368    1.285    1.285
 potential_pw2rs                     10 11.0    0.002    0.002    0.971    0.971
 pw_copy                            120 11.8    0.916    0.916    0.916    0.916
 arnoldi_extremal                   851  8.5    0.002    0.002    0.769    0.769
 arnoldi_normal_ev                  851  9.5    0.007    0.007    0.767    0.767
 pw_axpy                             90 10.3    0.765    0.765    0.765    0.765
 pw_poisson_solve                    10  9.0    0.108    0.108    0.600    0.600
 build_subspace                     851 10.5    0.033    0.033    0.599    0.599
 qs_init_subsys                       1  2.0    0.001    0.001    0.598    0.598
 qs_env_setup                         1  3.0    0.000    0.000    0.597    0.597
 qs_env_rebuild_pw_env                2  3.5    0.000    0.000    0.597    0.597
 pw_env_rebuild                       1  5.0    0.000    0.000    0.597    0.597
 pw_grid_setup                        4  6.0    0.000    0.000    0.591    0.591
 pw_grid_setup_internal               4  7.0    0.005    0.005    0.591    0.591
 dbcsr_matrix_vector_mult         20411 11.5    0.066    0.066    0.554    0.554
 -------------------------------------------------------------------------------

 The number of warnings for this run is : 0
 
 -------------------------------------------------------------------------------
  **** **** ******  **  PROGRAM ENDED AT                 2023-02-01 10:44:21.587
 ***** ** ***  *** **   PROGRAM RAN ON                                    moritz
 **    ****   ******    PROGRAM RAN BY                                       ole
 ***** **    ** ** **   PROGRAM PROCESS ID                                148522
  **** **  *******  **  PROGRAM STOPPED IN /home/ole/git/pao_ml_equivar/2H2O_rot
                                           ations/rand_17
