6
Properties=species:S:1:pos:R:3 i=0 time=0.0 E=-34.4504806384 pbc="F F F"
O        2.58746755       5.94070603       0.92088804
H        3.21344666       5.44331846       0.38419003
H        1.74924683       5.47576607       0.83518006
O        3.46585679       5.86303394       3.78820340
H        3.59223302       6.75236932       4.13060174
H        3.18643966       5.97891591       2.86683136
