     192
 i =     3300, time =     4950.000, E =     -1100.0568238137
  O         6.1526647901       -3.4936053575        4.4128893075
  H         7.1346071347       -3.5552214462        4.2241256412
  H         6.0452806467       -2.6013218539        4.8120906570
  O        -3.4029033837        1.4866124610        5.4685158679
  H        -3.6199368506        0.6168795023        5.0003669199
  H        -3.4247576148        1.3189841226        6.3995886029
  O         7.2896961351        3.6425462441        4.9074090359
  H         6.6925623989        3.4544768590        4.1726569619
  H         8.0135109773        2.9867279271        5.0509805323
  O        -2.1022338073       -0.9491264602       -2.6262720666
  H        -1.7957762221       -0.7924592479       -1.7388239492
  H        -1.2203267909       -1.1363202571       -3.1286112040
  O        -4.0747176247        7.2004960005        5.9504539411
  H        -4.9349784000        6.7600826775        6.1628730066
  H        -4.0952651945        7.3883764645        5.0238135869
  O         7.9208152784       -0.4553266584        2.5947326523
  H         7.0544741573       -0.7741965975        2.8966704086
  H         7.8071792872        0.4647951783        2.3202409361
  O         4.3968912658       -6.1544363173        1.3175025480
  H         3.9604418254       -5.3707007909        1.6723239234
  H         3.9161306180       -6.3597853177        0.4793764542
  O        -0.5959259775       -3.5324299668       -0.9186955803
  H        -1.4411057648       -3.7205725279       -1.2902218927
  H        -0.6143686592       -2.5409435952       -0.7491574267
  O         2.9352502551       -1.8345203468        4.1677107247
  H         2.9739331422       -2.4400872736        4.9228361622
  H         2.8556975415       -2.5188845071        3.4427564299
  O         3.6747879590        2.7134983330        5.5497024201
  H         3.0455621634        1.9761421285        5.4156010703
  H         3.2651599912        3.2366136700        6.2766915333
  O         5.6650615556       -4.6518379141       -3.9727865510
  H         5.3791775393       -3.7830654429       -3.8925803797
  H         5.9050358249       -4.7862606449       -4.9218019931
  O         2.5992736811       -3.6348508307        2.0538449708
  H         1.6700476796       -3.9787481785        2.0482879756
  H         2.8774689748       -3.3068158768        1.1654218141
  O         1.6589636378       -5.5461369308       -4.8406996079
  H         2.0721255437       -6.4613156504       -4.7750664967
  H         1.2945786688       -5.6044242979       -5.7057321476
  O         4.4444615911        5.3979206927       -3.1859590939
  H         5.2464136235        4.9430071719       -2.8915761072
  H         4.8187750202        6.2270303254       -3.4365172613
  O         1.9537184984        0.6263798294        4.6790400904
  H         2.2165474065       -0.3118266768        4.5231157037
  H         1.7194890293        0.8939808305        3.8031682215
  O        -1.0665337971        2.8011239249        7.8441542661
  H        -0.4674440463        2.3507682590        7.1960005410
  H        -1.7193072499        2.1587382855        8.1280715568
  O        -1.5078800757       -3.4966590800        3.5842541275
  H        -0.9784717763       -3.9252308121        2.8182245087
  H        -1.0347049184       -3.6995344600        4.3944127190
  O        -2.3707299257        4.1728521855        3.3228824051
  H        -1.9090684891        3.3403822524        3.1613578831
  H        -2.1401950695        4.5138503326        4.1829819271
  O         0.5259700268        0.5248392155       -5.5142017084
  H         0.9350677550        0.4248492073       -6.4527733350
  H         1.3077570987        0.7862293517       -5.0107220743
  O        -1.1270376979       -0.9235119426       -0.0488252962
  H        -1.4305575712       -0.9020844004        0.8741226749
  H        -0.2274876357       -0.4745055310       -0.1024889623
  O        -3.6213358263        3.2901977294       -2.3599045792
  H        -3.5047693607        4.2332635195       -2.7541873486
  H        -2.9072153911        3.0824969743       -1.7110555678
  O         6.7232146707        3.8387238927        0.8902377616
  H         6.2129911479        3.7941130560        0.0321652437
  H         6.0131803231        4.0514856921        1.5484243329
  O         4.9071910236        0.8650405419       -3.5788927854
  H         5.3221830824        0.9490166843       -4.4570555933
  H         4.9637962640       -0.0461074850       -3.3395740451
  O        -3.6103222000        5.6929163178       -3.2348806876
  H        -3.8364789887        6.5239862548       -2.7018825270
  H        -4.2402031010        5.6207857502       -3.9652646452
  O         5.6826816248        0.5654498958       -0.2735457217
  H         5.2810560842        0.3934747212        0.5988777601
  H         6.6244513843        0.9499387285       -0.0954027366
  O         1.3257655530       -0.2931521946       -0.4359217791
  H         1.9584577212        0.3939499377       -0.8108567001
  H         1.8310598033       -1.1785978008       -0.4629334220
  O        -5.4622208154       -4.8909562080        0.2579376025
  H        -5.1726702159       -4.5743303063        1.1412502994
  H        -6.2635346049       -5.3936890461        0.5409745560
  O        -4.1632670208        5.8703606641        2.2982467938
  H        -4.5282331240        5.1639901430        1.7032006950
  H        -3.5486661888        5.3746318211        2.8708128107
  O         5.8656296291        1.3512999501       -5.9228972704
  H         6.6863333831        1.8471954943       -5.8567629123
  H         5.1749908089        1.8122245506       -6.3927707615
  O         3.1148667175       -2.5508349221       -0.6231109125
  H         3.9489595985       -2.1948519986       -1.0501297462
  H         2.7264721800       -3.0658953927       -1.3811927244
  O         3.2265460051        1.6203907856       -0.7258087110
  H         4.1116243120        1.2383716573       -0.5188868862
  H         3.3610369684        2.5915723673       -0.7215522734
  O        -1.8427486852       -0.7974211333        2.6213047787
  H        -1.6267506613       -1.5167184722        3.1861614852
  H        -2.8066055051       -0.8467841588        2.5772619832
  O         2.5335414479       -8.6186142756        1.5634697541
  H         2.7084403685       -8.4411031324        0.6484365783
  H         3.3842257150       -8.5970637290        2.0478946273
  O         1.7282388015       -3.9103320336       -2.4620412113
  H         0.8610719906       -4.0276381527       -2.0056219764
  H         1.7917615095       -4.5904145201       -3.1722824707
  O        -4.1642024469        1.6014285172        0.7629202388
  H        -3.2134090857        1.5443552607        0.5512221279
  H        -4.4030756045        2.5283620629        0.8249754937
  O         4.4464985920       -5.6112485939       -7.7591503134
  H         3.6242841229       -5.4360292245       -8.2424085818
  H         4.9501924611       -4.8063435425       -8.0737031986
  O         0.2762192246        3.2486588316       -2.4591338345
  H        -0.3052766726        3.3415127614       -3.2184080508
  H         0.2290894258        4.0005081295       -1.8356961337
  O        -3.9939766068       -4.1132305353        3.4114061661
  H        -3.0124422297       -3.8562633484        3.4195229740
  H        -4.0520769150       -5.0074139317        3.0054484192
  O         4.6260742986        4.1412275763        3.1037805344
  H         4.5281881973        5.0784406803        3.3654146894
  H         4.4039256377        3.6784538313        3.9284173644
  O        -3.5182530225        1.4080356965       -4.3555939612
  H        -3.4356467747        0.5535757887       -3.9677173737
  H        -3.9015160310        1.9673446555       -3.6424474214
  O         1.3191957036        1.4680469088        1.9377744930
  H         1.7414488930        2.2969064382        1.5987156693
  H         1.2831978087        0.7629008494        1.2287654839
  O        -7.9098607097       -0.2997958337        2.0026257631
  H        -8.2882192956       -0.2605666310        2.8919966607
  H        -7.6373804780       -1.2257058942        1.9528631461
  O        -1.3677912114        1.9319707567        1.9392191294
  H        -0.3598223251        1.8172015150        1.8955652490
  H        -1.6624723177        1.2214074660        2.5235604533
  O        -2.2618727358        6.1712135695        0.3564398087
  H        -2.7332208387        6.1648853079        1.2197385578
  H        -2.8751325196        6.7289271576       -0.2069692932
  O         0.3804444499       -1.5839195601       -3.8333259314
  H         1.1951311850       -1.8153495682       -3.4105053820
  H         0.6107716147       -1.0257243036       -4.6086849815
  O        -6.1037081281        3.6912552263       -2.2458783014
  H        -5.1418135362        3.5698116342       -2.0899423035
  H        -6.5331511403        2.8345178263       -2.2679115960
  O         5.5227298566       -1.6557436278       -2.0444407439
  H         6.4369628006       -1.9086011182       -2.2528525629
  H         5.7229129868       -0.7763444981       -1.5840555399
  O        -1.6637523035        2.2207085936       -0.7472994160
  H        -0.8675216899        2.3655922347       -1.3519111346
  H        -1.3444096313        2.4889631136        0.1236755502
  O         0.3376124240        5.2880748559       -0.7436898770
  H        -0.3267803045        5.7904432546       -1.2592773594
  H        -0.0157701183        5.0241849183        0.1499190414
  O         7.0058513151       -1.0298841515        5.2352280247
  H         7.6799750403       -1.3043481046        5.8619857205
  H         6.5116291615       -0.3686439936        5.7590963207
  O        -1.0058991419       -5.8315867153       -2.9880574677
  H        -0.1994420535       -6.0773580442       -3.4679449178
  H        -1.7392761014       -6.3663502193       -3.2828822086
  O        -4.4760169063       -2.3210351435       -3.1081172934
  H        -4.5248045040       -2.3291449886       -4.0846208455
  H        -3.6705060424       -1.8340841633       -2.9187746280
  O         2.9907536095        5.0447635554       -0.8444488243
  H         2.1044557216        5.4362735508       -1.0104834169
  H         3.5003765463        5.1667228662       -1.6775748621
  O        -3.7830577682       -2.6522823886       -5.7525773038
  H        -2.8495647348       -2.7196536451       -5.4584564541
  H        -3.9933649312       -3.5921050688       -5.8940305880
  O        -0.0320970526        4.9482832101        1.8023863170
  H        -0.7925160770        4.6182408539        2.2896487329
  H         0.7978052562        4.4361260026        1.9466767907
  O        -1.3974454675       -3.4351731097       -4.6961334813
  H        -1.6507789304       -4.2082841592       -4.2053414323
  H        -0.5691832899       -3.0700250653       -4.2892264351
  O        -6.8733622180       -2.7938574811        1.6438261121
  H        -6.2735042826       -3.1593835585        0.9742277800
  H        -6.6278184963       -3.1214660633        2.5892763031
  O         2.5748929294        4.2960318946       -4.9489449315
  H         3.4359127631        4.4824091034       -4.4801003287
  H         2.4517530285        3.3870817577       -4.5630502207
  O         2.2966021917        1.7974165179       -3.7121814109
  H         1.9308685995        2.1789424651       -2.8975420776
  H         3.2289658977        1.5325291927       -3.5299048079
  O        -1.9006662838        5.2767195559        5.8598933123
  H        -1.5802284084        4.6666622173        6.5521622314
  H        -2.5858557468        5.8245653343        6.2324502079
  O         0.0416504144       -4.7029293292        1.6454375140
  H         0.0925783389       -5.6500387847        1.8350049009
  H        -0.4198579069       -4.5695152511        0.7683483259
  O         6.5105030650        5.4273630148        6.6789283092
  H         5.5550819545        5.5778965083        6.5918472972
  H         6.6257864314        4.6945045508        6.1135936982
  O        -0.3577472993       -4.6358828835        5.4610905658
  H        -0.9491590257       -5.4454852007        5.3190881982
  H        -0.7729592543       -4.2942099638        6.2949288167
  O        -3.8306836547       -4.6346832102       -1.8686311384
  H        -4.5180468213       -4.7192639206       -1.1871573236
  H        -4.0801258785       -3.7882145086       -2.3324293285
