 DBCSR| CPU Multiplication driver                                           XSMM (U)
 DBCSR| Multrec recursion limit                                              512 (U)
 DBCSR| Multiplication stack size                                           1000 (D)
 DBCSR| Maximum elements for images                                    UNLIMITED (U)
 DBCSR| Multiplicative factor virtual images                                   1 (U)
 DBCSR| Use multiplication densification                                       T (D)
 DBCSR| Multiplication size stacks                                             3 (U)
 DBCSR| Use memory pool for CPU allocation                                     F (U)
 DBCSR| Number of 3D layers                                               SINGLE (U)
 DBCSR| Use MPI memory allocation                                              F (U)
 DBCSR| Use RMA algorithm                                                      F (U)
 DBCSR| Use Communication thread                                               T (U)
 DBCSR| Communication thread load                                             87 (D)
 DBCSR| MPI: My process id                                                     0
 DBCSR| MPI: Number of processes                                              32
 DBCSR| OMP: Current number of threads                                         1
 DBCSR| OMP: Max number of threads                                             1
 DBCSR| Split modifier for TAS multiplication algorithm                  1.0E+00 (U)


  **** **** ******  **  PROGRAM STARTED AT               2024-09-23 17:48:22.035
 ***** ** ***  *** **   PROGRAM STARTED ON                                moritz
 **    ****   ******    PROGRAM STARTED BY                                   ole
 ***** **    ** ** **   PROGRAM PROCESS ID                                159906
  **** **  *******  **  PROGRAM STARTED IN /home/ole/git/pao_ml_equivar/64H2O_MD
                                           /Frame5300

 CP2K| version string:                 CP2K version 2024.3 (Development Version)
 CP2K| source code revision number:                                  git:3f890bb
 CP2K| cp2kflags: omp libint fftw3 libxc libgrpp pexsi elpa parallel scalapack c
 CP2K|            osma quip deepmd xsmm plumed2 spglib libdftd4 sirius libvori l
 CP2K|            libbqb libvdwxc hdf5
 CP2K| is freely available from                            https://www.cp2k.org/
 CP2K| Program compiled at                          Mo 23 Sep 2024 17:17:04 CEST
 CP2K| Program compiled on                                                moritz
 CP2K| Program compiled for                                                local
 CP2K| Data directory path                               /home/ole/git/cp2k/data
 CP2K| Input file name                                             64H2O_ref.inp

 GLOBAL| Force Environment number                                              1
 GLOBAL| Basis set file name                                        BASIS_MOLOPT
 GLOBAL| Potential file name                                      GTH_POTENTIALS
 GLOBAL| MM Potential file name                                     MM_POTENTIAL
 GLOBAL| Coordinate file name                                         coords.xyz
 GLOBAL| Method name                                                        CP2K
 GLOBAL| Project name                                                  64H2O_ref
 GLOBAL| Run type                                                         ENERGY
 GLOBAL| FFT library                                                       FFTW3
 GLOBAL| Diagonalization library                                            ELPA
 GLOBAL| DGEMM library                                                      BLAS
 GLOBAL| Minimum number of eigenvectors for ELPA usage                        16
 GLOBAL| Orthonormality check for eigenvectors                          DISABLED
 GLOBAL| Matrix multiplication library                                     COSMA
 GLOBAL| All-to-all communication in single precision                          F
 GLOBAL| FFTs using library dependent lengths                                  F
 GLOBAL| Grid backend                                                       AUTO
 GLOBAL| Global print level                                                  LOW
 GLOBAL| MPI I/O enabled                                                       T
 GLOBAL| Total number of message passing processes                            32
 GLOBAL| Number of threads for this process                                    1
 GLOBAL| This output is from process                                           0
 GLOBAL| Stack size for threads created by OpenMP (OMP_STACKSIZE)        default
 GLOBAL| CPU model name           AMD Ryzen Threadripper 3970X 32-Core Processor
 GLOBAL| CPUID                                                              1002

 MEMORY| system memory details [Kb]
 MEMORY|                        rank 0           min           max       average
 MEMORY| MemTotal            131752136     131752136     131752136     131752136
 MEMORY| MemFree             117828372     117828372     117828372     117828372
 MEMORY| Buffers                260708        260708        260708        260708
 MEMORY| Cached                7614848       7614848       7614848       7614848
 MEMORY| Slab                   726108        726108        726108        726108
 MEMORY| SReclaimable           285592        285592        285592        285592
 MEMORY| MemLikelyFree       125989520     125989520     125989520     125989520


 GENERATE|  Preliminary Number of Bonds generated:                             0
 GENERATE|  Achieved consistency in connectivity generation.

 *******************************************************************************
 *******************************************************************************
 **                                                                           **
 **     #####                         ##              ##                      **
 **    ##   ##            ##          ##              ##                      **
 **   ##     ##                       ##            ######                    **
 **   ##     ##  ##   ##  ##   #####  ##  ##   ####   ##    #####    #####    **
 **   ##     ##  ##   ##  ##  ##      ## ##   ##      ##   ##   ##  ##   ##   **
 **   ##  ## ##  ##   ##  ##  ##      ####     ###    ##   ######   ######    **
 **    ##  ###   ##   ##  ##  ##      ## ##      ##   ##   ##       ##        **
 **     #######   #####   ##   #####  ##  ##  ####    ##    #####   ##        **
 **           ##                                                    ##        **
 **                                                                           **
 **                                                ... make the atoms dance   **
 **                                                                           **
 **            Copyright (C) by CP2K developers group (2000-2024)             **
 **                      J. Chem. Phys. 152, 194103 (2020)                    **
 **                                                                           **
 *******************************************************************************


 TOTAL NUMBERS AND MAXIMUM NUMBERS

  Total number of            - Atomic kinds:                                   2
                             - Atoms:                                        192
                             - Shell sets:                                   192
                             - Shells:                                       704
                             - Primitive Cartesian functions:               1344
                             - Cartesian basis functions:                   1536
                             - Spherical basis functions:                   1472

  Maximum angular momentum of- Orbital basis functions:                        2
                             - Local part of the GTH pseudopotential:          2
                             - Non-local part of the GTH pseudopotential:      0

 ------------------------------ Linear scaling SCF -----------------------------
 eps_scf:                                                              0.100E-07
 eps_filter:                                                           0.100E-11
 mixing_fraction:                                                      0.450E+00
 max_scf:                                                                     25
 fixed chemical potential (mu)                                                 F
 has unit metric:                                                              F
 Computing inv(S):                                                             T
 Computing sqrt(S):                                                            T
 Computing S preconditioner                                                    F
 S sqrt method:                                                     NEWTONSCHULZ
 S sqrt order:                                                                 3
 Extrapolation order:                                                          1
 S preconditioner type                                                      NONE
 Polarized Atomic Orbitals (PAO)                                               F
 Purification method                                   Trace resetting 4th order
 Cluster type                                                             ATOMIC
 Computing Chebyshev                                                       FALSE
 Using PAO                                                                     F
 -------------------------------------------------------------------------------


     Lanczos converged:  F threshold:   0.100E-02
     Est. extremal eigenvalues:    0.860E+01   0.580E-02
     Est. condition number :    0.148E+04

 Order=           3
     NS sqrt iter    1 1.00000000   0.222E+01       0.065     6198.349
     NS sqrt iter    2 1.00000000   0.116E+01       0.100     7959.345
     NS sqrt iter    3 1.00000000   0.578E+00       0.099     8042.303
     NS sqrt iter    4 1.00000000   0.333E+00       0.100     7994.662
     NS sqrt iter    5 1.00000000   0.226E+00       0.099     8040.337
     NS sqrt iter    6 1.00000000   0.107E+00       0.099     8091.554
     NS sqrt iter    7 1.00000000   0.139E-01       0.099     8052.749
     NS sqrt iter    8 1.00000000   0.790E-04       0.100     7951.799
     NS sqrt iter    9 1.00000000   0.705E-10       0.067     5895.546
     Symmetrizing Results
     Final NS sqrt iter    9 1.00000000   0.704E-11



 Guess for atomic kind: O

 Electronic structure
    Total number of core electrons                                          2.00
    Total number of valence electrons                                       6.00
    Total number of electrons                                               8.00
    Multiplicity                                                   not specified
    S   [  2.00] 2.00
    P      4.00


 *******************************************************************************
                  Iteration          Convergence                     Energy [au]
 *******************************************************************************
                          1        0.708315                     -15.576645311500
                          2        0.608879                     -15.587933561584
                          3        0.102828E-01                 -15.656849565404
                          4        0.113889E-02                 -15.656866888140
                          5        0.434197E-03                 -15.656867072159
                          6        0.263771E-03                 -15.656867091904
                          7        0.478536E-06                 -15.656867103452

 Energy components [Hartree]           Total Energy ::          -15.656867103452
                                        Band Energy ::           -3.000198112285
                                     Kinetic Energy ::           11.759971203220
                                   Potential Energy ::          -27.416838306672
                                      Virial (-V/T) ::            2.331369510426
                                        Core Energy ::          -26.140716385623
                                          XC Energy ::           -3.154051012914
                                     Coulomb Energy ::           13.637900295084
                       Total Pseudopotential Energy ::          -37.935781716540
                       Local Pseudopotential Energy ::          -39.218907440693
                    Nonlocal Pseudopotential Energy ::            1.283125724153
                                        Confinement ::            0.350941276976

 Orbital energies  State     L     Occupation   Energy[a.u.]          Energy[eV]

                       1     0          2.000      -0.864471          -23.523463

                       1     1          4.000      -0.317814           -8.648154


 Total Electron Density at R=0:                                         0.000068

 Guess for atomic kind: H

 Electronic structure
    Total number of core electrons                                          0.00
    Total number of valence electrons                                       1.00
    Total number of electrons                                               1.00
    Multiplicity                                                   not specified
    S      1.00


 *******************************************************************************
                  Iteration          Convergence                     Energy [au]
 *******************************************************************************
                          1        0.437545E-02                  -0.424159432110
                          2        0.531356E-03                  -0.424178438213
                          3        0.259176E-06                  -0.424178722480

 Energy components [Hartree]           Total Energy ::           -0.424178722480
                                        Band Energy ::           -0.199015229016
                                     Kinetic Energy ::            0.464007633961
                                   Potential Energy ::           -0.888186356441
                                      Virial (-V/T) ::            1.914163240935
                                        Core Energy ::           -0.479160803564
                                          XC Energy ::           -0.244352904054
                                     Coulomb Energy ::            0.299334985138
                       Total Pseudopotential Energy ::           -0.962295316385
                       Local Pseudopotential Energy ::           -0.962295316385
                    Nonlocal Pseudopotential Energy ::            0.000000000000
                                        Confinement ::            0.191268788606

 Orbital energies  State     L     Occupation   Energy[a.u.]          Energy[eV]

                       1     0          1.000      -0.199015           -5.415480


 Total Electron Density at R=0:                                         0.242907
 Re-scaling the density matrix to get the right number of electrons
                  # Electrons              Trace(P)               Scaling factor
                          512               512.001                        1.000
 Energy with the initial guess:     -1095.603504743

     Est. extremal eigenvalues     -0.94409     5.23987  converged:  F
     TRS4 it   1 1.00000000   0.566E+02       0.019     5258.398   0.100E-11
     TRS4 it   2 1.00000000   0.540E+02       0.019     5366.646   0.100E-11
     TRS4 it   3 1.00000000   0.338E+02       0.037     5473.234   0.100E-11
     TRS4 it   4 1.00000000   0.176E+02       0.036     5549.132   0.100E-11
     TRS4 it   5 1.00000000   0.106E+02       0.037     5492.608   0.100E-11
     TRS4 it   6 1.00000000   0.482E+01       0.036     5584.957   0.100E-11
     TRS4 it   7 1.00000000   0.143E+01       0.036     5529.156   0.100E-11
     TRS4 it   8 1.00000000   0.213E+00       0.036     5528.949   0.100E-11
     TRS4 it   9 1.00000000   0.882E-02       0.036     5645.921   0.100E-11
     TRS4 it  10 1.00000000   0.228E-04       0.036     5557.297   0.100E-11
     TRS4 it  11 1.00000000   0.517E-10       0.036     5565.181   0.100E-11
     Final TRS4 iteration   11 1.00000000   0.517E-10
     Chemical potential (mu):      -0.10723

 SCF     1     -1097.854242226     -1097.854242226    2.066265

*********************************************************
 Using MIXING_FRACTION=0.450 to mix KS matrix:  iscf=  2
 KS_nw=0.450*KS + 0.550*KS_old
*********************************************************
     Est. extremal eigenvalues     -0.83203     5.33046  converged:  T
     TRS4 it   1 1.00000000   0.558E+02       0.019     5295.152   0.100E-11
     TRS4 it   2 1.00000000   0.542E+02       0.019     5347.633   0.100E-11
     TRS4 it   3 1.00000000   0.351E+02       0.037     5429.764   0.100E-11
     TRS4 it   4 1.00000000   0.183E+02       0.037     5487.599   0.100E-11
     TRS4 it   5 1.00000000   0.118E+02       0.036     5565.120   0.100E-11
     TRS4 it   6 1.00000000   0.619E+01       0.036     5538.865   0.100E-11
     TRS4 it   7 1.00000000   0.247E+01       0.037     5490.033   0.100E-11
     TRS4 it   8 1.00000000   0.683E+00       0.037     5454.185   0.100E-11
     TRS4 it   9 1.00000000   0.103E+00       0.036     5559.143   0.100E-11
     TRS4 it  10 1.00000000   0.582E-02       0.036     5544.457   0.100E-11
     TRS4 it  11 1.00000000   0.135E-04       0.036     5580.113   0.100E-11
     TRS4 it  12 1.00000000   0.756E-10       0.036     5630.844   0.100E-11
     Final TRS4 iteration   12 1.00000000   0.756E-10
     Chemical potential (mu):      -0.01690

 SCF     2     -1102.960277890        -5.106035664    2.091327

*********************************************************
 Using MIXING_FRACTION=0.450 to mix KS matrix:  iscf=  3
 KS_nw=0.450*KS + 0.550*KS_old
*********************************************************
     Est. extremal eigenvalues     -0.84134     5.32202  converged:  T
     TRS4 it   1 1.00000000   0.559E+02       0.018     5436.058   0.100E-11
     TRS4 it   2 1.00000000   0.541E+02       0.019     5343.594   0.100E-11
     TRS4 it   3 1.00000000   0.349E+02       0.036     5510.146   0.100E-11
     TRS4 it   4 1.00000000   0.182E+02       0.036     5585.589   0.100E-11
     TRS4 it   5 1.00000000   0.116E+02       0.037     5490.343   0.100E-11
     TRS4 it   6 1.00000000   0.598E+01       0.036     5614.790   0.100E-11
     TRS4 it   7 1.00000000   0.230E+01       0.036     5539.904   0.100E-11
     TRS4 it   8 1.00000000   0.595E+00       0.036     5505.086   0.100E-11
     TRS4 it   9 1.00000000   0.788E-01       0.037     5408.704   0.100E-11
     TRS4 it  10 1.00000000   0.319E-02       0.037     5439.881   0.100E-11
     TRS4 it  11 1.00000000   0.387E-05       0.036     5546.416   0.100E-11
     TRS4 it  12 1.00000000   0.684E-11       0.036     5584.702   0.100E-11
     Final TRS4 iteration   12 1.00000000   0.684E-11
     Chemical potential (mu):      -0.02595

 SCF     3     -1103.122367387        -0.162089497    2.089007

*********************************************************
 Using MIXING_FRACTION=0.450 to mix KS matrix:  iscf=  4
 KS_nw=0.450*KS + 0.550*KS_old
*********************************************************
     Est. extremal eigenvalues     -0.83647     5.32703  converged:  T
     TRS4 it   1 1.00000000   0.559E+02       0.019     5232.480   0.100E-11
     TRS4 it   2 1.00000000   0.541E+02       0.019     5272.795   0.100E-11
     TRS4 it   3 1.00000000   0.350E+02       0.037     5401.341   0.100E-11
     TRS4 it   4 1.00000000   0.183E+02       0.037     5493.761   0.100E-11
     TRS4 it   5 1.00000000   0.117E+02       0.036     5529.871   0.100E-11
     TRS4 it   6 1.00000000   0.606E+01       0.036     5500.960   0.100E-11
     TRS4 it   7 1.00000000   0.236E+01       0.036     5590.396   0.100E-11
     TRS4 it   8 1.00000000   0.631E+00       0.037     5389.943   0.100E-11
     TRS4 it   9 1.00000000   0.899E-01       0.036     5626.513   0.100E-11
     TRS4 it  10 1.00000000   0.440E-02       0.037     5487.347   0.100E-11
     TRS4 it  11 1.00000000   0.903E-05       0.036     5515.248   0.100E-11
     TRS4 it  12 1.00000000   0.447E-10       0.036     5586.680   0.100E-11
     Final TRS4 iteration   12 1.00000000   0.447E-10
     Chemical potential (mu):      -0.01935

 SCF     4     -1103.130596055        -0.008228668    2.092085

*********************************************************
 Using MIXING_FRACTION=0.450 to mix KS matrix:  iscf=  5
 KS_nw=0.450*KS + 0.550*KS_old
*********************************************************
     Est. extremal eigenvalues     -0.83549     5.32782  converged:  T
     TRS4 it   1 1.00000000   0.559E+02       0.019     5175.775   0.100E-11
     TRS4 it   2 1.00000000   0.541E+02       0.018     5426.912   0.100E-11
     TRS4 it   3 1.00000000   0.350E+02       0.037     5441.762   0.100E-11
     TRS4 it   4 1.00000000   0.183E+02       0.037     5451.676   0.100E-11
     TRS4 it   5 1.00000000   0.117E+02       0.036     5526.672   0.100E-11
     TRS4 it   6 1.00000000   0.605E+01       0.036     5505.695   0.100E-11
     TRS4 it   7 1.00000000   0.236E+01       0.037     5470.154   0.100E-11
     TRS4 it   8 1.00000000   0.631E+00       0.036     5612.320   0.100E-11
     TRS4 it   9 1.00000000   0.902E-01       0.037     5459.152   0.100E-11
     TRS4 it  10 1.00000000   0.444E-02       0.037     5492.691   0.100E-11
     TRS4 it  11 1.00000000   0.956E-05       0.037     5479.512   0.100E-11
     TRS4 it  12 1.00000000   0.524E-10       0.036     5581.316   0.100E-11
     Final TRS4 iteration   12 1.00000000   0.524E-10
     Chemical potential (mu):      -0.01844

 SCF     5     -1103.131248417        -0.000652362    2.092645

*********************************************************
 Using MIXING_FRACTION=0.450 to mix KS matrix:  iscf=  6
 KS_nw=0.450*KS + 0.550*KS_old
*********************************************************
     Est. extremal eigenvalues     -0.83475     5.32855  converged:  T
     TRS4 it   1 1.00000000   0.559E+02       0.019     5267.084   0.100E-11
     TRS4 it   2 1.00000000   0.541E+02       0.019     5268.270   0.100E-11
     TRS4 it   3 1.00000000   0.350E+02       0.036     5513.087   0.100E-11
     TRS4 it   4 1.00000000   0.183E+02       0.037     5479.291   0.100E-11
     TRS4 it   5 1.00000000   0.117E+02       0.037     5475.545   0.100E-11
     TRS4 it   6 1.00000000   0.606E+01       0.036     5539.737   0.100E-11
     TRS4 it   7 1.00000000   0.237E+01       0.036     5519.470   0.100E-11
     TRS4 it   8 1.00000000   0.635E+00       0.036     5530.686   0.100E-11
     TRS4 it   9 1.00000000   0.916E-01       0.037     5472.398   0.100E-11
     TRS4 it  10 1.00000000   0.463E-02       0.036     5530.593   0.100E-11
     TRS4 it  11 1.00000000   0.107E-04       0.037     5477.092   0.100E-11
     TRS4 it  12 1.00000000   0.676E-10       0.036     5588.454   0.100E-11
     Final TRS4 iteration   12 1.00000000   0.676E-10
     Chemical potential (mu):      -0.01740

 SCF     6     -1103.131344672        -0.000096255    2.078644

*********************************************************
 Using MIXING_FRACTION=0.450 to mix KS matrix:  iscf=  7
 KS_nw=0.450*KS + 0.550*KS_old
*********************************************************
     Est. extremal eigenvalues     -0.83437     5.32886  converged:  T
     TRS4 it   1 1.00000000   0.559E+02       0.019     5314.429   0.100E-11
     TRS4 it   2 1.00000000   0.541E+02       0.019     5375.249   0.100E-11
     TRS4 it   3 1.00000000   0.350E+02       0.036     5507.687   0.100E-11
     TRS4 it   4 1.00000000   0.183E+02       0.036     5516.321   0.100E-11
     TRS4 it   5 1.00000000   0.117E+02       0.036     5497.231   0.100E-11
     TRS4 it   6 1.00000000   0.606E+01       0.036     5557.769   0.100E-11
     TRS4 it   7 1.00000000   0.237E+01       0.037     5460.494   0.100E-11
     TRS4 it   8 1.00000000   0.636E+00       0.036     5531.101   0.100E-11
     TRS4 it   9 1.00000000   0.920E-01       0.036     5545.303   0.100E-11
     TRS4 it  10 1.00000000   0.468E-02       0.036     5564.825   0.100E-11
     TRS4 it  11 1.00000000   0.111E-04       0.037     5451.694   0.100E-11
     TRS4 it  12 1.00000000   0.735E-10       0.037     5443.723   0.100E-11
     Final TRS4 iteration   12 1.00000000   0.735E-10
     Chemical potential (mu):      -0.01700

 SCF     7     -1103.131364972        -0.000020300    2.091317

*********************************************************
 Using MIXING_FRACTION=0.450 to mix KS matrix:  iscf=  8
 KS_nw=0.450*KS + 0.550*KS_old
*********************************************************
     Est. extremal eigenvalues     -0.83418     5.32904  converged:  T
     TRS4 it   1 1.00000000   0.559E+02       0.019     5262.804   0.100E-11
     TRS4 it   2 1.00000000   0.541E+02       0.019     5372.273   0.100E-11
     TRS4 it   3 1.00000000   0.350E+02       0.037     5432.492   0.100E-11
     TRS4 it   4 1.00000000   0.183E+02       0.036     5528.970   0.100E-11
     TRS4 it   5 1.00000000   0.117E+02       0.036     5568.800   0.100E-11
     TRS4 it   6 1.00000000   0.606E+01       0.036     5521.714   0.100E-11
     TRS4 it   7 1.00000000   0.237E+01       0.036     5547.787   0.100E-11
     TRS4 it   8 1.00000000   0.637E+00       0.036     5559.904   0.100E-11
     TRS4 it   9 1.00000000   0.923E-01       0.036     5525.556   0.100E-11
     TRS4 it  10 1.00000000   0.472E-02       0.036     5513.341   0.100E-11
     TRS4 it  11 1.00000000   0.114E-04       0.037     5429.525   0.100E-11
     TRS4 it  12 1.00000000   0.774E-10       0.037     5471.795   0.100E-11
     Final TRS4 iteration   12 1.00000000   0.774E-10
     Chemical potential (mu):      -0.01676

 SCF     8     -1103.131369876        -0.000004904    2.091014


 SCF run converged in     8 steps.

 Writing restart DM 64H2O_ref_LS_DM_SPIN_1_RESTART.dm with checksum:       0.61397332E+04

 ENERGY| Total FORCE_EVAL ( QS ) energy [a.u.]:            -1103.131369876049575

 -------------------------------------------------------------------------------
 -                                                                             -
 -                                DBCSR STATISTICS                             -
 -                                                                             -
 -------------------------------------------------------------------------------
 COUNTER                                    TOTAL       BLAS       SMM       ACC
 flops     5 x     5 x     5          79411590250       0.0%    100.0%      0.0%     
 flops    13 x     5 x     5         102828739650       0.0%    100.0%      0.0%     
 flops     5 x    13 x     5         102846329950       0.0%    100.0%      0.0%     
 flops     5 x     5 x    13         103358538400       0.0%    100.0%      0.0%     
 flops    13 x     5 x    13         133823319240       0.0%    100.0%      0.0%     
 flops     5 x    13 x    13         133890718130       0.0%    100.0%      0.0%     
 flops    13 x    13 x     5         135021978780       0.0%    100.0%      0.0%     
 flops    13 x    13 x    13         175753813248       0.0%    100.0%      0.0%     
 flops inhomo. stacks                           0       0.0%      0.0%      0.0%
 flops total                       966.935028E+09       0.0%    100.0%      0.0%
 flops max/rank                     31.022477E+09       0.0%    100.0%      0.0%
 matmuls inhomo. stacks                         0       0.0%      0.0%      0.0%
 matmuls total                         1071386608       0.0%    100.0%      0.0%
 number of processed stacks               1516342       0.0%    100.0%      0.0%
 average stack size                                     0.0     706.6       0.0
 marketing flops                     1.569237E+12
 -------------------------------------------------------------------------------
 # multiplications                            246
 max memory usage/rank             620.650496E+06
 # max total images/rank                        2
 # max 3D layers                                1
 # MPI messages exchanged                  102336
 MPI messages size (bytes):
  total size                        42.369327E+09
  min size                           0.000000E+00
  max size                         541.696000E+03
  average size                     414.021719E+03
 MPI breakdown and total messages size (bytes):
             size <=      128                 312                        0
       128 < size <=     8192                  42                   279312
      8192 < size <=    32768                  62                   841968
     32768 < size <=   131072                   0                        0
    131072 < size <=  4194304              101920              42368208320
   4194304 < size <= 16777216                   0                        0
  16777216 < size                               0                        0
 -------------------------------------------------------------------------------

 *** WARNING in dbcsr_mm.F:301 :: Using a non-square number of MPI ranks ***
 *** might lead to poor performance. Used ranks: 32 Suggested: 36 64     ***

 -------------------------------------------------------------------------------
 -                                                                             -
 -                      DBCSR MESSAGE PASSING PERFORMANCE                      -
 -                                                                             -
 -------------------------------------------------------------------------------
 ROUTINE             CALLS      AVE VOLUME [Bytes]
 MP_Bcast                9                     12.
 MP_Allreduce         1762                     34.
 MP_Alltoall           546                  34827.
 MP_ISend             8604                 170779.
 MP_IRecv             8238                 178990.
 -------------------------------------------------------------------------------

 -------------------------------------------------------------------------------
 -                                                                             -
 -                                DBM STATISTICS                               -
 -                                                                             -
 -------------------------------------------------------------------------------
    M  x    N  x    K                                          COUNT     PERCENT
 -------------------------------------------------------------------------------

 -------------------------------------------------------------------------------
 -                                                                             -
 -                                GRID STATISTICS                              -
 -                                                                             -
 -------------------------------------------------------------------------------
 LP    KERNEL             BACKEND                              COUNT     PERCENT
 2     collocate ortho    CPU                                7379280      28.84%
 2     integrate ortho    CPU                                7379280      28.84%
 3     collocate ortho    CPU                                4739346      18.52%
 3     integrate ortho    CPU                                4739346      18.52%
 4     collocate ortho    CPU                                 673974       2.63%
 4     integrate ortho    CPU                                 673974       2.63%
 0     collocate general  CPU                                   6144       0.02%
 -------------------------------------------------------------------------------

 MEMORY| Estimated peak process memory [MiB]                                 593

 -------------------------------------------------------------------------------
 -                                                                             -
 -                         MESSAGE PASSING PERFORMANCE                         -
 -                                                                             -
 -------------------------------------------------------------------------------

 ROUTINE             CALLS      AVE VOLUME [Bytes]
 MP_Group                5
 MP_Bcast             2357                 165394.
 MP_Allreduce         6331                    940.
 MP_Sync                 5
 MP_Alltoall           244               11092856.
 MP_SendRecv           837                  18832.
 MP_ISendRecv          837                  18832.
 MP_Wait              2391
 MP_ISend             1406                 108579.
 MP_IRecv             1406                 108603.
 -------------------------------------------------------------------------------


 -------------------------------------------------------------------------------
 -                                                                             -
 -                           R E F E R E N C E S                               -
 -                                                                             -
 -------------------------------------------------------------------------------
 
 CP2K version 2024.3 (Development Version), the CP2K developers group (2024).
 CP2K is freely available from https://www.cp2k.org/ .
 
 T. D. Kuehne, M. Iannuzzi, M. Del Ben, V. V. Rybkin, P. Seewald, F. Stein, T. 
 Laino, R. Z. Khaliullin, O. Schuett, F. Schiffmann, D. Golze, J. Wilhelm, S. 
 Chulkov, M. H. Bani-Hashemian, V. Weber, U. Borstnik, M. Taillefumier, A. S. 
 Jakobovits, A. Lazzaro, H. Pabst, T. Mueller, R. Schade, M. Guidon, S. 
 Andermatt, N. Holmberg, G. K. Schenter, A. Hehn, A. Bussy, F. Belleflamme, G. 
 Tabacchi, A. Gloess, M. Lass, I. Bethune, C. J. Mundy, C. Plessl, M. Watkins, 
 J. VandeVondele, M. Krack, J. Hutter.
 J. Chem. Phys. 152, 194103 (2020).
 CP2K: An electronic structure and molecular dynamics software package - 
 Quickstep: Efficient and accurate electronic structure calculations.
 https://doi.org/10.1063/5.0007045

 O. Schuett, P. Messmer, J. Hutter, J. VandeVondele.
 Electronic Structure Calculations on Graphics Processing Units, 173-190 (2016).
 GPU-Accelerated Sparse Matrix-Matrix Multiplication for Linear Scaling Density 
 Functional Theory.
 https://doi.org/10.1002/9781118670712.ch8

 A. Heinecke, G. Henry, M. Hutchinson, H. Pabst.
 Proceedings of Intl. Supercomputing Conference, 981-991 (2016).
 LIBXSMM: Accelerating Small Matrix Multiplications by Runtime Code Generation.
 https://doi.org/10.1109/SC.2016.83

 J. Hutter, M. Iannuzzi, F. Schiffmann, J. VandeVondele.
 WIREs Comput Mol Sci. 4, 15-25 (2014).
 CP2K: atomistic simulations of condensed matter systems.
 https://doi.org/10.1002/wcms.1159

 U. Borstnik, J. VandeVondele, V. Weber, J. Hutter.
 Parallel Comput. 40, 47-58 (2014).
 Sparse matrix multiplication: The distributed block-compressed sparse row 
 library.
 https://doi.org/10.1016/j.parco.2014.03.012

 A. Marek, V. Blum, R. Johanni, V. Havu, B. Lang, T. Auckenthaler, A. Heinecke, 
 H. Bungartz, H. Lederer.
 J. Phys. Condens. Matter 26, 213201 (2014).
 The ELPA library: scalable parallel eigenvalue solutions for electronic 
 structure theory and computational science.
 https://doi.org/10.1088/0953-8984/26/21/213201

 J. VandeVondele, U. Borstnik, J. Hutter.
 J. Chem. Theory Comput. 8, 3565-3573 (2012).
 Linear Scaling Self-Consistent Field Calculations with Millions of Atoms in the 
 Condensed Phase.
 https://doi.org/10.1021/ct200897x

 J. VandeVondele, J. Hutter.
 J. Chem. Phys. 127, 114105 (2007).
 Gaussian basis sets for accurate calculations on molecular systems in gas and 
 condensed phases.
 https://doi.org/10.1063/1.2770708

 J. VandeVondele, M. Krack, F. Mohamed, M. Parrinello, T. Chassaing, J. Hutter.
 Comput. Phys. Commun. 167, 103-128 (2005).
 QUICKSTEP: Fast and accurate density functional calculations using a mixed 
 Gaussian and plane waves approach.
 https://doi.org/10.1016/j.cpc.2004.12.014

 M. Krack.
 Theor. Chem. Acc. 114, 145-152 (2005).
 Pseudopotentials for H to Kr optimized for gradient-corrected 
 exchange-correlation functionals.
 https://doi.org/10.1007/s00214-005-0655-y

 M. Frigo, S. G. Johnson.
 Proc. IEEE 93, 216-231 (2005).
 The design and implementation of FFTW3.
 https://doi.org/10.1109/JPROC.2004.840301

 A. M. N. Niklasson, C. J. Tymczak, M. Challacombe.
 J. Chem. Phys. 118, 8611-8620 (2003).
 Trace resetting density matrix purification in O(N) self-consistent-field 
 theory.
 https://doi.org/10.1063/1.1559913

 C. Hartwigsen, S. Goedecker, J. Hutter.
 Phys. Rev. B 58, 3641-3662 (1998).
 Relativistic separable dual-space Gaussian pseudopotentials from H to Rn.
 https://doi.org/10.1103/PhysRevB.58.3641

 G. Lippert, J. Hutter, M. Parrinello.
 Mol. Phys. 92, 477-487 (1997).
 A hybrid Gaussian and plane wave density functional scheme.
 https://doi.org/10.1080/002689797170220

 S. Goedecker, M. Teter, J. Hutter.
 Phys. Rev. B 54, 1703-1710 (1996).
 Separable dual-space Gaussian pseudopotentials.
 https://doi.org/10.1103/PhysRevB.54.1703

 J. P. Perdew, K. Burke, M. Ernzerhof.
 Phys. Rev. Lett. 77, 3865-3868 (1996).
 Generalized gradient approximation made simple.
 https://doi.org/10.1103/PhysRevLett.77.3865


 -------------------------------------------------------------------------------
 -                                                                             -
 -                                T I M I N G                                  -
 -                                                                             -
 -------------------------------------------------------------------------------
 SUBROUTINE                       CALLS  ASD         SELF TIME        TOTAL TIME
                                MAXIMUM       AVERAGE  MAXIMUM  AVERAGE  MAXIMUM
 CP2K                                 1  1.0    0.013    0.015   20.415   20.415
 qs_energies                          1  2.0    0.000    0.000   20.260   20.260
 ls_scf                               1  3.0    0.000    0.000   19.250   19.251
 ls_scf_main                          1  4.0    0.000    0.000   16.693   16.693
 ls_scf_dm_to_ks                      8  5.0    0.000    0.000   12.409   12.413
 qs_ks_update_qs_env                  9  6.1    0.000    0.000    7.837    7.838
 rebuild_ks_matrix                    9  7.1    0.000    0.000    7.830    7.832
 qs_ks_build_kohn_sham_matrix         9  8.1    0.001    0.002    7.830    7.832
 qs_rho_update_rho_low                9  6.1    0.000    0.000    6.131    6.135
 calculate_rho_elec                   9  7.1    0.003    0.003    6.131    6.135
 sum_up_and_integrate                 9  9.1    0.000    0.000    5.925    5.927
 integrate_v_rspace                   9 10.1    0.000    0.000    5.916    5.920
 grid_collocate_task_list             9  8.1    5.450    5.553    5.450    5.553
 grid_integrate_task_list             9 11.1    5.211    5.312    5.211    5.312
 dbcsr_multiply_generic             246  6.2    0.012    0.013    4.681    4.687
 density_matrix_trs4                  8  5.0    0.004    0.006    4.278    4.281
 multiply_cannon                    246  7.2    0.018    0.022    3.810    3.869
 multiply_cannon_loop               246  8.2    0.019    0.021    3.736    3.794
 ls_scf_init_scf                      1  4.0    0.000    0.000    2.494    2.495
 multiply_cannon_multrec           1968  9.2    2.109    2.142    2.115    2.148
 mp_waitall_1                     16729 10.5    1.758    1.867    1.758    1.867
 fft_wrap_pw1pw2                    172 11.3    0.003    0.003    1.765    1.795
 fft_wrap_pw1pw2_200                100 12.8    0.102    0.109    1.693    1.746
 qs_vxc_create                        9  9.1    0.000    0.000    1.557    1.585
 xc_vxc_pw_create                     9 10.1    0.013    0.018    1.557    1.584
 ls_scf_initial_guess                 1  5.0    0.000    0.000    1.563    1.564
 ls_scf_qs_atomic_guess               1  6.0    0.000    0.000    1.563    1.564
 multiply_cannon_metrocomm3        1968  9.2    0.005    0.006    1.377    1.462
 fft3d_ps                           172 13.3    0.721    0.810    1.328    1.374
 xc_pw_derive                        54 12.1    0.001    0.001    1.106    1.192
 qs_energies_init_hamiltonians        1  3.0    0.000    0.000    1.009    1.009
 ls_scf_init_matrix_S                 1  5.0    0.000    0.000    0.931    0.932
 matrix_sqrt_Newton_Schulz            1  6.0    0.001    0.001    0.908    0.909
 build_core_hamiltonian_matrix        1  4.0    0.000    0.000    0.708    0.819
 xc_rho_set_and_dset_create           9 11.1    0.019    0.025    0.784    0.804
 xc_pw_divergence                     9 11.1    0.000    0.000    0.740    0.779
 density_rs2pw                        9  8.1    0.000    0.000    0.647    0.703
 make_m2s                           492  7.2    0.005    0.007    0.685    0.698
 make_images                        492  8.2    0.039    0.041    0.675    0.688
 mp_alltoall_z22v                   172 15.3    0.429    0.615    0.429    0.615
 potential_pw2rs                      9 11.1    0.001    0.001    0.600    0.601
 mp_waitany                        1406 12.5    0.466    0.573    0.466    0.573
 build_core_ppl                       1  5.0    0.482    0.569    0.482    0.569
 transfer_rs2pw                      46  9.0    0.001    0.001    0.396    0.493
 arnoldi_extremal                     9  6.1    0.000    0.000    0.418    0.419
 arnoldi_normal_ev                    9  7.1    0.000    0.001    0.417    0.418
 -------------------------------------------------------------------------------

 The number of warnings for this run is : 1
 
 -------------------------------------------------------------------------------
  **** **** ******  **  PROGRAM ENDED AT                 2024-09-23 17:48:43.126
 ***** ** ***  *** **   PROGRAM RAN ON                                    moritz
 **    ****   ******    PROGRAM RAN BY                                       ole
 ***** **    ** ** **   PROGRAM PROCESS ID                                159906
  **** **  *******  **  PROGRAM STOPPED IN /home/ole/git/pao_ml_equivar/64H2O_MD
                                           /Frame5300
