 DBCSR| CPU Multiplication driver                                           XSMM
 DBCSR| Multrec recursion limit                                              512
 DBCSR| Multiplication stack size                                           1000
 DBCSR| Maximum elements for images                                    UNLIMITED
 DBCSR| Multiplicative factor virtual images                                   1
 DBCSR| Use multiplication densification                                       T
 DBCSR| Multiplication size stacks                                             3


  **** **** ******  **  PROGRAM STARTED AT               2019-02-14 01:09:04.529
 ***** ** ***  *** **   PROGRAM STARTED ON                                  otto
 **    ****   ******    PROGRAM STARTED BY                                   ole
 ***** **    ** ** **   PROGRAM PROCESS ID                                  5981
  **** **  *******  **  PROGRAM STARTED IN /home/ole/git/pao_ml_equivar/2H2O_MD/
                                           frame_0150

 CP2K| version string:                    CP2K version 7.0 (Development Version)
 CP2K| source code revision number:                                git:8bf305913
 CP2K| cp2kflags: libint fftw3 libxc xsmm libderiv_max_am1=5 libint_max_am=6    
 CP2K| is freely available from                            https://www.cp2k.org/
 CP2K| Program compiled at                           So Jan 13 00:02:37 CET 2019
 CP2K| Program compiled on                                                  otto
 CP2K| Program compiled for                                                local
 CP2K| Data directory path                               /home/ole/git/cp2k/data
 CP2K| Input file name                                            2H2O_pao44.inp

 GLOBAL| Force Environment number                                              1
 GLOBAL| Basis set file name                                        BASIS_MOLOPT
 GLOBAL| Potential file name                                      GTH_POTENTIALS
 GLOBAL| MM Potential file name                                     MM_POTENTIAL
 GLOBAL| Coordinate file name                                         coords.xyz
 GLOBAL| Method name                                                        CP2K
 GLOBAL| Project name                                                 2H2O_pao44
 GLOBAL| Preferred FFT library                                             FFTW3
 GLOBAL| Preferred diagonalization lib.                                       SL
 GLOBAL| Run type                                                         ENERGY
 GLOBAL| All-to-all communication in single precision                          F
 GLOBAL| FFTs using library dependent lengths                                  F
 GLOBAL| Global print level                                                  LOW
 GLOBAL| MPI I/O enabled                                                       T
 GLOBAL| Total number of message passing processes                             1
 GLOBAL| Number of threads for this process                                    1
 GLOBAL| This output is from process                                           0
 GLOBAL| CPU model name :  Intel(R) Core(TM) i5-3320M CPU @ 2.60GHz

 MEMORY| system memory details [Kb]
 MEMORY|                        rank 0           min           max       average
 MEMORY| MemTotal              7860772       7860772       7860772       7860772
 MEMORY| MemFree               2171480       2171480       2171480       2171480
 MEMORY| Buffers                280588        280588        280588        280588
 MEMORY| Cached                1892304       1892304       1892304       1892304
 MEMORY| Slab                   255088        255088        255088        255088
 MEMORY| SReclaimable           132808        132808        132808        132808
 MEMORY| MemLikelyFree         4477180       4477180       4477180       4477180


 GENERATE|  Preliminary Number of Bonds generated:                             0
 GENERATE|  Achieved consistency in connectivity generation.

 *******************************************************************************
 *******************************************************************************
 **                                                                           **
 **     #####                         ##              ##                      **
 **    ##   ##            ##          ##              ##                      **
 **   ##     ##                       ##            ######                    **
 **   ##     ##  ##   ##  ##   #####  ##  ##   ####   ##    #####    #####    **
 **   ##     ##  ##   ##  ##  ##      ## ##   ##      ##   ##   ##  ##   ##   **
 **   ##  ## ##  ##   ##  ##  ##      ####     ###    ##   ######   ######    **
 **    ##  ###   ##   ##  ##  ##      ## ##      ##   ##   ##       ##        **
 **     #######   #####   ##   #####  ##  ##  ####    ##    #####   ##        **
 **           ##                                                    ##        **
 **                                                                           **
 **                                                ... make the atoms dance   **
 **                                                                           **
 **            Copyright (C) by CP2K developers group (2000 - 2018)           **
 **                                                                           **
 *******************************************************************************


 TOTAL NUMBERS AND MAXIMUM NUMBERS

  Total number of            - Atomic kinds:                                   2
                             - Atoms:                                          6
                             - Shell sets:                                     6
                             - Shells:                                        22
                             - Primitive Cartesian functions:                 42
                             - Cartesian basis functions:                     48
                             - Spherical basis functions:                     46

  Maximum angular momentum of- Orbital basis functions:                        2
                             - Local part of the GTH pseudopotential:          2
                             - Non-local part of the GTH pseudopotential:      0

 ------------------------------ Linear scaling SCF -----------------------------
 eps_scf:                                       0.100E-07
 eps_filter:                                    0.100E-07
 mixing_fraction:                               0.450E+00
 max_scf:                                              25
 fixed chemical potential (mu)                          F
 has unit metric:                                       F
 Computing inv(S):                                      T
 Computing sqrt(S):                                     T
 Computing s preconditioner                             F
 sign sqrt order:                                       3
 Extrapolation order:                                   1
 Use single precision matrices                          F
 S preconditioner type                               NONE
 Polarized Atomic Orbitals (PAO)                        T
 Purification method                      Trace resetting 4th order
 Cluster type                                      ATOMIC
 Computing Chebyshev                                FALSE
 Using PAO                                              T
 -------------------------------------------------------------------------------

 
 PAO|                                  EPS_PAO                           0.5E-06
 PAO|                                  MIXING                            0.5E+00
 PAO|                                  MAX_PAO                              1000
 PAO|                                  MAX_CYCLES                           1000
 PAO|                                  PARAMETERIZATION                   DIRECT
 PAO|                                  PRECONDITION                            F
 PAO|                                  REGULARIZATION                    0.0E+00
 PAO|                                  EPS_PGF                           0.1E-09
 PAO|                                  PENALTY_DISTANCE                  0.1E+00
 PAO|                                  PENALTY_STRENGTH                  0.5E-02
 PAO|                                  LINPOT_PRECONDITION_DELTA         0.0E+00
 PAO|                                  LINPOT_INITGUESS_DELT             0.0E+00
 PAO|                                  LINPOT_REGULARIZATION_DELTA       0.0E+00
 PAO|                                  LINPOT_REGULARIZATION_STRENGTH    0.0E+00
 PAO|                                  OPTIMIZER                              CG
 PAO|                                  CG_INIT_STEPS                           2
 PAO|                                  CG_RESET_LIMIT                    0.1E+00
 PAO|                                  CHECK_UNITARY_TOL                -0.1E+01
 PAO|                                  CHECK_GRADIENT_TOL               -0.1E+01
 PAO|                                  NUM_GRADIENT_ORDER                      2
 PAO|                                  NUM_GRADIENT_EPS                  0.1E-07
 PAO|                                  PRINT%RESTART%WRITE_CYCLES            100
 PAO|                                  RESTART_FILE 
 PAO|                                  PREOPT_DM_FILE 2H2O_ref_LS_DM_SPIN_1_RESTART.dm
 PAO|                                  MACHINE_LEARNING%METHOD        GAUSSIAN_P
 PAO|                                  MACHINE_LEARNING%PRIOR               ZERO
 PAO|                                  MACHINE_LEARNING%DESCRIPTOR     POTENTIAL
 PAO|                                  MACHINE_LEARNING%TOLERANCE        0.1E-01
 PAO|                                  MACHINE_LEARNING%GP_NOISE_VAR     0.1E+00
 PAO|                                  MACHINE_LEARNING%GP_SCALE         0.5E-01
 

 Calculating atomic Fock matrix for atomic kind: O

 Electronic structure
    Total number of core electrons                                          2.00
    Total number of valence electrons                                       6.00
    Total number of electrons                                               8.00
    Multiplicity                                                   not specified
    S   [  2.00] 2.00
    P      4.00


 *******************************************************************************
                  Iteration          Convergence                     Energy [au]
 *******************************************************************************
                          1        0.708315                     -15.576645311500
                          2        0.608879                     -15.587933561584
                          3        0.102828E-01                 -15.656849565404
                          4        0.113889E-02                 -15.656866888140
                          5        0.434197E-03                 -15.656867072159
                          6        0.263771E-03                 -15.656867091904
                          7        0.478536E-06                 -15.656867103452

 Energy components [Hartree]           Total Energy ::          -15.656867103452
                                        Band Energy ::           -3.000198112285
                                     Kinetic Energy ::           11.759971203220
                                   Potential Energy ::          -27.416838306672
                                      Virial (-V/T) ::            2.331369510426
                                        Core Energy ::          -26.140716385623
                                          XC Energy ::           -3.154051012914
                                     Coulomb Energy ::           13.637900295084
                       Total Pseudopotential Energy ::          -37.935781716540
                       Local Pseudopotential Energy ::          -39.218907440693
                    Nonlocal Pseudopotential Energy ::            1.283125724153
                                        Confinement ::            0.350941276976

 Orbital energies  State     L     Occupation   Energy[a.u.]          Energy[eV]

                       1     0          2.000      -0.864471          -23.523463

                       1     1          4.000      -0.317814           -8.648154


 Total Electron Density at R=0:                                         0.000068

 Calculating atomic Fock matrix for atomic kind: H

 Electronic structure
    Total number of core electrons                                          0.00
    Total number of valence electrons                                       1.00
    Total number of electrons                                               1.00
    Multiplicity                                                   not specified
    S      1.00


 *******************************************************************************
                  Iteration          Convergence                     Energy [au]
 *******************************************************************************
                          1        0.437545E-02                  -0.424159432110
                          2        0.531356E-03                  -0.424178438213
                          3        0.259176E-06                  -0.424178722480

 Energy components [Hartree]           Total Energy ::           -0.424178722480
                                        Band Energy ::           -0.199015229016
                                     Kinetic Energy ::            0.464007633961
                                   Potential Energy ::           -0.888186356441
                                      Virial (-V/T) ::            1.914163240935
                                        Core Energy ::           -0.479160803564
                                          XC Energy ::           -0.244352904054
                                     Coulomb Energy ::            0.299334985138
                       Total Pseudopotential Energy ::           -0.962295316385
                       Local Pseudopotential Energy ::           -0.962295316385
                    Nonlocal Pseudopotential Energy ::            0.000000000000
                                        Confinement ::            0.191268788606

 Orbital energies  State     L     Occupation   Energy[a.u.]          Energy[eV]

                       1     0          1.000      -0.199015           -5.415480


 Total Electron Density at R=0:                                         0.242907
 PAO| Made initial guess for matrix_X with norm:   4.8989794855663558     

     Lanczos converged:  T threshold:   0.100E-02
     Est. extremal eigenvalues:    0.329E+01   0.123E+00
     Est. condition number :    0.267E+02
     NS sqrt iter    1 1.00000000   0.805E+00       0.001       46.664
     NS sqrt iter    2 1.00000000   0.425E+00       0.001       80.389
     NS sqrt iter    3 1.00000000   0.157E+00       0.001       77.901
     NS sqrt iter    4 1.00000000   0.161E-01       0.001       76.206
     NS sqrt iter    5 1.00000000   0.261E-04       0.001       65.535
     Final NS sqrt iter    5 1.00000000   0.105E-08

 PAO| Read restart DM 2H2O_ref_LS_DM_SPIN_1_RESTART.dm with checksum:    60.080658186934578     
 PAO| Quickstep energy from restart density:  -34.447238525904709     
 PAO| ======================= Iteration:         1 =============================

     Lanczos converged:  T threshold:   0.100E-02
     Est. extremal eigenvalues:    0.329E+01   0.123E+00
     Est. condition number :    0.267E+02
     NS sqrt iter    1 1.00000000   0.805E+00       0.001       64.512
     NS sqrt iter    2 1.00000000   0.425E+00       0.001       99.043
     NS sqrt iter    3 1.00000000   0.157E+00       0.001       81.627
     NS sqrt iter    4 1.00000000   0.161E-01       0.002       53.692
     NS sqrt iter    5 1.00000000   0.261E-04       0.002       55.160
     Final NS sqrt iter    5 1.00000000   0.105E-08

     Est. extremal eigenvalues     -0.90288     1.71144  converged:  T
     TRS4 it   1 1.00000000   0.841E+00       0.000       16.128   0.100E-07
     TRS4 it   2 1.00000000   0.659E+00       0.001       32.256   0.100E-07
     TRS4 it   3 1.00000000   0.486E+00       0.001       32.256   0.100E-07
     TRS4 it   4 1.00000000   0.308E+00       0.001       32.256   0.100E-07
     TRS4 it   5 1.00000000   0.153E+00       0.001       32.256   0.100E-07
     TRS4 it   6 1.00000000   0.463E-01       0.001       32.256   0.100E-07
     TRS4 it   7 1.00000000   0.580E-02       0.001       32.256   0.100E-07
     TRS4 it   8 1.00000000   0.124E-03       0.001       32.256   0.100E-07
     TRS4 it   9 1.00000000   0.648E-07       0.001       32.256   0.100E-07
     Final TRS4 iteration    9 1.00000000   0.648E-07
     Chemical potential (mu):      -0.07457
 
 PAO| energy:  -7.5284407685153232      penalty:   6.2862353384799379E-033
 PAO|CG| warming up with steepest descent
 PAO|CG| beta:    0.0000000000000000     
 PAO| norm of gradient:  0.77000949826919751     
 PAO|LS| adapt:  T F F
 PAO|LS| adapt: scan_steps:    0.0000000000000000        0.0000000000000000        0.0000000000000000     
 PAO|LS| adapt: energies:   -7.5284407685153232        0.0000000000000000        0.0000000000000000     
 PAO| ======================= Iteration:         2 =============================

     Lanczos converged:  T threshold:   0.100E-02
     Est. extremal eigenvalues:    0.321E+01   0.138E+00
     Est. condition number :    0.232E+02
     NS sqrt iter    1 1.00000000   0.790E+00       0.001       64.512
     NS sqrt iter    2 1.00000000   0.410E+00       0.001      110.592
     NS sqrt iter    3 1.00000000   0.140E+00       0.001      110.592
     NS sqrt iter    4 1.00000000   0.108E-01       0.001      110.592
     NS sqrt iter    5 1.00000000   0.724E-05       0.001       82.944
     Final NS sqrt iter    5 1.00000000   0.797E-10

     Est. extremal eigenvalues     -0.90624     1.65337  converged:  T
     TRS4 it   1 1.00000000   0.832E+00       0.000       16.128   0.100E-07
     TRS4 it   2 1.00000000   0.638E+00       0.001       32.256   0.100E-07
     TRS4 it   3 1.00000000   0.466E+00       0.001       32.256   0.100E-07
     TRS4 it   4 1.00000000   0.283E+00       0.001       32.256   0.100E-07
     TRS4 it   5 1.00000000   0.130E+00       0.001       32.256   0.100E-07
     TRS4 it   6 1.00000000   0.340E-01       0.001       32.256   0.100E-07
     TRS4 it   7 1.00000000   0.316E-02       0.001       32.256   0.100E-07
     TRS4 it   8 1.00000000   0.371E-04       0.001       32.256   0.100E-07
     TRS4 it   9 1.00000000   0.584E-08       0.001       32.256   0.100E-07
     Final TRS4 iteration    9 1.00000000   0.584E-08
     Chemical potential (mu):      -0.06314
 
 PAO| energy:  -7.5819598927712955      penalty:   2.1257431578153301E-008
 PAO|LS| adapt:  T T F
 PAO|LS| adapt: scan_steps:    0.0000000000000000       0.10000000000000001        0.0000000000000000     
 PAO|LS| adapt: energies:   -7.5284407685153232       -7.5819598927712955        0.0000000000000000     
 PAO| ======================= Iteration:         3 =============================

     Lanczos converged:  T threshold:   0.100E-02
     Est. extremal eigenvalues:    0.312E+01   0.153E+00
     Est. condition number :    0.204E+02
     NS sqrt iter    1 1.00000000   0.774E+00       0.001       61.677
     NS sqrt iter    2 1.00000000   0.394E+00       0.001      106.879
     NS sqrt iter    3 1.00000000   0.123E+00       0.001      110.592
     NS sqrt iter    4 1.00000000   0.724E-02       0.001      110.592
     NS sqrt iter    5 1.00000000   0.198E-05       0.001       82.944
     Final NS sqrt iter    5 1.00000000   0.576E-11

     Est. extremal eigenvalues     -0.90939     1.60832  converged:  T
     TRS4 it   1 1.00000000   0.825E+00       0.000       16.128   0.100E-07
     TRS4 it   2 1.00000000   0.621E+00       0.001       32.256   0.100E-07
     TRS4 it   3 1.00000000   0.446E+00       0.001       32.256   0.100E-07
     TRS4 it   4 1.00000000   0.260E+00       0.001       32.256   0.100E-07
     TRS4 it   5 1.00000000   0.109E+00       0.001       32.256   0.100E-07
     TRS4 it   6 1.00000000   0.239E-01       0.001       32.256   0.100E-07
     TRS4 it   7 1.00000000   0.156E-02       0.001       32.256   0.100E-07
     TRS4 it   8 1.00000000   0.906E-05       0.001       32.256   0.100E-07
     TRS4 it   9 1.00000000   0.351E-09       0.001       32.256   0.100E-07
     Final TRS4 iteration    9 1.00000000   0.351E-09
     Chemical potential (mu):      -0.05044
 
 PAO| energy:  -7.6233449713452979      penalty:   3.4011745091141472E-007
 PAO|LS| adapt:  T T F
 PAO|LS| adapt: scan_steps:    0.0000000000000000       0.20000000000000001        0.0000000000000000     
 PAO|LS| adapt: energies:   -7.5284407685153232       -7.6233449713452979        0.0000000000000000     
 PAO| ======================= Iteration:         4 =============================

     Lanczos converged:  T threshold:   0.100E-02
     Est. extremal eigenvalues:    0.294E+01   0.175E+00
     Est. condition number :    0.168E+02
     NS sqrt iter    1 1.00000000   0.740E+00       0.001       55.084
     NS sqrt iter    2 1.00000000   0.361E+00       0.001      106.511
     NS sqrt iter    3 1.00000000   0.955E-01       0.001      110.592
     NS sqrt iter    4 1.00000000   0.334E-02       0.001      107.145
     NS sqrt iter    5 1.00000000   0.205E-06       0.001       79.872
     Final NS sqrt iter    5 1.00000000   0.908E-09

     Est. extremal eigenvalues     -0.91436     1.55174  converged:  T
     TRS4 it   1 1.00000000   0.819E+00       0.000       16.128   0.100E-07
     TRS4 it   2 1.00000000   0.594E+00       0.001       32.256   0.100E-07
     TRS4 it   3 1.00000000   0.410E+00       0.001       32.256   0.100E-07
     TRS4 it   4 1.00000000   0.217E+00       0.001       32.256   0.100E-07
     TRS4 it   5 1.00000000   0.754E-01       0.001       32.256   0.100E-07
     TRS4 it   6 1.00000000   0.109E-01       0.001       32.256   0.100E-07
     TRS4 it   7 1.00000000   0.304E-03       0.001       32.256   0.100E-07
     TRS4 it   8 1.00000000   0.335E-06       0.001       32.256   0.100E-07
     TRS4 it   9 1.00000000   0.489E-12       0.001       32.256   0.100E-07
     Final TRS4 iteration    9 1.00000000   0.489E-12
     Chemical potential (mu):      -0.02200
 
 PAO| energy:  -7.6683389159012227      penalty:   5.4418675886723181E-006
 PAO|LS| Need extra step
 PAO|LS| adapt:  T T F
 PAO|LS| adapt: scan_steps:    0.0000000000000000       0.40000000000000002        0.0000000000000000     
 PAO|LS| adapt: energies:   -7.5284407685153232       -7.6683389159012227        0.0000000000000000     
 PAO| ======================= Iteration:         5 =============================

     Lanczos converged:  T threshold:   0.100E-02
     Est. extremal eigenvalues:    0.260E+01   0.199E+00
     Est. condition number :    0.131E+02
     NS sqrt iter    1 1.00000000   0.678E+00       0.001       64.512
     NS sqrt iter    2 1.00000000   0.300E+00       0.001      110.592
     NS sqrt iter    3 1.00000000   0.574E-01       0.001      110.592
     NS sqrt iter    4 1.00000000   0.859E-03       0.001      110.444
     NS sqrt iter    5 1.00000000   0.303E-08       0.001       36.864
     Final NS sqrt iter    5 1.00000000   0.354E-09

     Est. extremal eigenvalues     -0.91599     1.51632  converged:  T
     TRS4 it   1 1.00000000   0.823E+00       0.000       16.128   0.100E-07
     TRS4 it   2 1.00000000   0.565E+00       0.001       32.256   0.100E-07
     TRS4 it   3 1.00000000   0.361E+00       0.001       32.256   0.100E-07
     TRS4 it   4 1.00000000   0.160E+00       0.001       32.256   0.100E-07
     TRS4 it   5 1.00000000   0.381E-01       0.001       32.256   0.100E-07
     TRS4 it   6 1.00000000   0.247E-02       0.001       32.256   0.100E-07
     TRS4 it   7 1.00000000   0.125E-04       0.001       32.256   0.100E-07
     TRS4 it   8 1.00000000   0.415E-09       0.001       32.256   0.100E-07
     Final TRS4 iteration    8 1.00000000   0.415E-09
     Chemical potential (mu):       0.02802
 
 PAO| energy:  -7.6137597303306492      penalty:   8.7069788446683988E-005
 PAO|LS| Need extra step
 PAO|LS| adapt:  T T T
 PAO|LS| adapt: scan_steps:    0.0000000000000000       0.40000000000000002       0.80000000000000004     
 PAO|LS| adapt: energies:   -7.5284407685153232       -7.6683389159012227       -7.6137597303306492     
 PAO|LS| adapt: suggested step_size:   0.48774180570896847     
 PAO|LS| adapt: predicted energy  -7.6730176907580292     
 PAO| ======================= Iteration:         6 =============================

     Lanczos converged:  T threshold:   0.100E-02
     Est. extremal eigenvalues:    0.286E+01   0.181E+00
     Est. condition number :    0.158E+02
     NS sqrt iter    1 1.00000000   0.724E+00       0.002       42.875
     NS sqrt iter    2 1.00000000   0.347E+00       0.001      107.106
     NS sqrt iter    3 1.00000000   0.852E-01       0.001      110.592
     NS sqrt iter    4 1.00000000   0.242E-02       0.001      110.592
     NS sqrt iter    5 1.00000000   0.900E-07       0.001       74.368
     Final NS sqrt iter    5 1.00000000   0.644E-09

     Est. extremal eigenvalues     -0.91576     1.53784  converged:  T
     TRS4 it   1 1.00000000   0.818E+00       0.000       16.128   0.100E-07
     TRS4 it   2 1.00000000   0.585E+00       0.001       32.256   0.100E-07
     TRS4 it   3 1.00000000   0.397E+00       0.001       32.256   0.100E-07
     TRS4 it   4 1.00000000   0.202E+00       0.001       32.256   0.100E-07
     TRS4 it   5 1.00000000   0.641E-01       0.001       32.256   0.100E-07
     TRS4 it   6 1.00000000   0.767E-02       0.001       32.256   0.100E-07
     TRS4 it   7 1.00000000   0.141E-03       0.001       32.256   0.100E-07
     TRS4 it   8 1.00000000   0.686E-07       0.001       32.256   0.100E-07
     Final TRS4 iteration    8 1.00000000   0.686E-07
     Chemical potential (mu):      -0.00869
 
 PAO| energy:  -7.6723196815434562      penalty:   1.2030059221047301E-005
 PAO|CG| warming up with steepest descent
 PAO|CG| beta:    0.0000000000000000     
 PAO| norm of gradient:  0.40091152661251683     
 PAO| energy improvement: -0.14387891302813305     
 PAO| step      6                   -7.672319682  0.251E-01  0.488E+00     0.088
 PAO|LS| adapt:  T F F
 PAO|LS| adapt: scan_steps:    0.0000000000000000        0.0000000000000000        0.0000000000000000     
 PAO|LS| adapt: energies:   -7.6723196815434562        0.0000000000000000        0.0000000000000000     
 PAO| ======================= Iteration:         7 =============================

     Lanczos converged:  T threshold:   0.100E-02
     Est. extremal eigenvalues:    0.278E+01   0.196E+00
     Est. condition number :    0.142E+02
     NS sqrt iter    1 1.00000000   0.708E+00       0.001       54.129
     NS sqrt iter    2 1.00000000   0.326E+00       0.001      101.350
     NS sqrt iter    3 1.00000000   0.707E-01       0.001      110.592
     NS sqrt iter    4 1.00000000   0.142E-02       0.001      110.592
     NS sqrt iter    5 1.00000000   0.194E-07       0.001       53.760
     Final NS sqrt iter    5 1.00000000   0.440E-08

     Est. extremal eigenvalues     -0.91724     1.53565  converged:  T
     TRS4 it   1 1.00000000   0.821E+00       0.000       16.128   0.100E-07
     TRS4 it   2 1.00000000   0.586E+00       0.001       32.256   0.100E-07
     TRS4 it   3 1.00000000   0.399E+00       0.001       32.256   0.100E-07
     TRS4 it   4 1.00000000   0.204E+00       0.001       32.256   0.100E-07
     TRS4 it   5 1.00000000   0.654E-01       0.001       32.256   0.100E-07
     TRS4 it   6 1.00000000   0.781E-02       0.001       32.256   0.100E-07
     TRS4 it   7 1.00000000   0.138E-03       0.001       32.256   0.100E-07
     TRS4 it   8 1.00000000   0.608E-07       0.001       32.256   0.100E-07
     Final TRS4 iteration    8 1.00000000   0.608E-07
     Chemical potential (mu):      -0.00786
 
 PAO| energy:  -7.6672429524552417      penalty:   1.7814837235462886E-005
 PAO|LS| adapt:  T F T
 PAO|LS| adapt: scan_steps:    0.0000000000000000        0.0000000000000000       0.48774180570896847     
 PAO|LS| adapt: energies:   -7.6723196815434562        0.0000000000000000       -7.6672429524552417     
 PAO| ======================= Iteration:         8 =============================

     Lanczos converged:  T threshold:   0.100E-02
     Est. extremal eigenvalues:    0.282E+01   0.188E+00
     Est. condition number :    0.150E+02
     NS sqrt iter    1 1.00000000   0.716E+00       0.001       64.512
     NS sqrt iter    2 1.00000000   0.336E+00       0.001      105.320
     NS sqrt iter    3 1.00000000   0.777E-01       0.001      110.592
     NS sqrt iter    4 1.00000000   0.187E-02       0.001      108.739
     NS sqrt iter    5 1.00000000   0.430E-07       0.001       65.920
     Final NS sqrt iter    5 1.00000000   0.410E-09

     Est. extremal eigenvalues     -0.91727     1.53625  converged:  T
     TRS4 it   1 1.00000000   0.819E+00       0.000       16.128   0.100E-07
     TRS4 it   2 1.00000000   0.586E+00       0.001       32.256   0.100E-07
     TRS4 it   3 1.00000000   0.398E+00       0.001       32.256   0.100E-07
     TRS4 it   4 1.00000000   0.202E+00       0.001       32.256   0.100E-07
     TRS4 it   5 1.00000000   0.647E-01       0.001       32.256   0.100E-07
     TRS4 it   6 1.00000000   0.784E-02       0.001       30.367   0.100E-07
     TRS4 it   7 1.00000000   0.145E-03       0.001       32.256   0.100E-07
     TRS4 it   8 1.00000000   0.698E-07       0.001       32.256   0.100E-07
     Final TRS4 iteration    8 1.00000000   0.698E-07
     Chemical potential (mu):      -0.00865
 
 PAO| energy:  -7.6904441308106435      penalty:   1.2979191924424167E-005
 PAO|LS| adapt:  T T T
 PAO|LS| adapt: scan_steps:    0.0000000000000000       0.24387090285448423       0.48774180570896847     
 PAO|LS| adapt: energies:   -7.6723196815434562       -7.6904441308106435       -7.6672429524552417     
 PAO|LS| adapt: suggested step_size:   0.22889149930377123     
 PAO|LS| adapt: predicted energy  -7.6905220884235037     
 PAO| ======================= Iteration:         9 =============================

     Lanczos converged:  T threshold:   0.100E-02
     Est. extremal eigenvalues:    0.282E+01   0.188E+00
     Est. condition number :    0.150E+02
     NS sqrt iter    1 1.00000000   0.717E+00       0.001       64.512
     NS sqrt iter    2 1.00000000   0.337E+00       0.002       72.910
     NS sqrt iter    3 1.00000000   0.782E-01       0.001      110.571
     NS sqrt iter    4 1.00000000   0.190E-02       0.001      110.592
     NS sqrt iter    5 1.00000000   0.450E-07       0.001       63.964
     Final NS sqrt iter    5 1.00000000   0.215E-08

     Est. extremal eigenvalues     -0.91722     1.53632  converged:  T
     TRS4 it   1 1.00000000   0.819E+00       0.000       16.128   0.100E-07
     TRS4 it   2 1.00000000   0.586E+00       0.001       32.256   0.100E-07
     TRS4 it   3 1.00000000   0.398E+00       0.001       32.256   0.100E-07
     TRS4 it   4 1.00000000   0.202E+00       0.001       32.256   0.100E-07
     TRS4 it   5 1.00000000   0.647E-01       0.001       32.256   0.100E-07
     TRS4 it   6 1.00000000   0.784E-02       0.001       32.256   0.100E-07
     TRS4 it   7 1.00000000   0.145E-03       0.001       32.256   0.100E-07
     TRS4 it   8 1.00000000   0.700E-07       0.001       32.256   0.100E-07
     Final TRS4 iteration    8 1.00000000   0.700E-07
     Chemical potential (mu):      -0.00867
 
 PAO| energy:  -7.6905415205630092      penalty:   1.2839384238929767E-005
 PAO|CG| trace_G_new    3.7046443475247583E-002
 PAO|CG| trace_G_prev   0.16073005217077885     
 PAO|CG| trace_G_mix   -1.2586943867052788E-003
 PAO|CG| trace_D   0.16073005217077885     
 PAO|CG| trace_D_Gnew   1.2586943867052788E-003
 PAO|CG| beta:   0.23831970029632601     
 PAO| norm of gradient:  0.19247452682172667     
 PAO| energy improvement:  -1.8221839019552988E-002
 PAO| step      9                   -7.690541521  0.120E-01  0.229E+00     0.053
 PAO|LS| adapt:  T F F
 PAO|LS| adapt: scan_steps:    0.0000000000000000        0.0000000000000000        0.0000000000000000     
 PAO|LS| adapt: energies:   -7.6905415205630092        0.0000000000000000        0.0000000000000000     
 PAO| ======================= Iteration:        10 =============================

     Lanczos converged:  T threshold:   0.100E-02
     Est. extremal eigenvalues:    0.278E+01   0.193E+00
     Est. condition number :    0.144E+02
     NS sqrt iter    1 1.00000000   0.709E+00       0.001       64.512
     NS sqrt iter    2 1.00000000   0.329E+00       0.001      110.592
     NS sqrt iter    3 1.00000000   0.727E-01       0.001      107.379
     NS sqrt iter    4 1.00000000   0.154E-02       0.001      109.203
     NS sqrt iter    5 1.00000000   0.242E-07       0.001       50.106
     Final NS sqrt iter    5 1.00000000   0.444E-08

     Est. extremal eigenvalues     -0.91815     1.53956  converged:  T
     TRS4 it   1 1.00000000   0.820E+00       0.000       16.128   0.100E-07
     TRS4 it   2 1.00000000   0.586E+00       0.001       32.256   0.100E-07
     TRS4 it   3 1.00000000   0.397E+00       0.001       32.256   0.100E-07
     TRS4 it   4 1.00000000   0.201E+00       0.001       32.256   0.100E-07
     TRS4 it   5 1.00000000   0.636E-01       0.001       32.256   0.100E-07
     TRS4 it   6 1.00000000   0.752E-02       0.001       32.256   0.100E-07
     TRS4 it   7 1.00000000   0.131E-03       0.001       32.256   0.100E-07
     TRS4 it   8 1.00000000   0.550E-07       0.001       32.256   0.100E-07
     Final TRS4 iteration    8 1.00000000   0.550E-07
     Chemical potential (mu):      -0.00607
 
 PAO| energy:  -7.6953861960659129      penalty:   1.3359210886435564E-005
 PAO|LS| adapt:  T T F
 PAO|LS| adapt: scan_steps:    0.0000000000000000       0.22889149930377123        0.0000000000000000     
 PAO|LS| adapt: energies:   -7.6905415205630092       -7.6953861960659129        0.0000000000000000     
 PAO| ======================= Iteration:        11 =============================

     Lanczos converged:  T threshold:   0.100E-02
     Est. extremal eigenvalues:    0.274E+01   0.199E+00
     Est. condition number :    0.138E+02
     NS sqrt iter    1 1.00000000   0.701E+00       0.001       64.512
     NS sqrt iter    2 1.00000000   0.320E+00       0.001      110.592
     NS sqrt iter    3 1.00000000   0.675E-01       0.001      110.592
     NS sqrt iter    4 1.00000000   0.124E-02       0.001      110.592
     NS sqrt iter    5 1.00000000   0.122E-07       0.001       43.120
     Final NS sqrt iter    5 1.00000000   0.343E-08

     Est. extremal eigenvalues     -0.91783     1.54502  converged:  T
     TRS4 it   1 1.00000000   0.823E+00       0.000       16.128   0.100E-07
     TRS4 it   2 1.00000000   0.587E+00       0.001       32.256   0.100E-07
     TRS4 it   3 1.00000000   0.398E+00       0.001       32.256   0.100E-07
     TRS4 it   4 1.00000000   0.200E+00       0.001       32.256   0.100E-07
     TRS4 it   5 1.00000000   0.627E-01       0.001       32.256   0.100E-07
     TRS4 it   6 1.00000000   0.725E-02       0.001       32.256   0.100E-07
     TRS4 it   7 1.00000000   0.119E-03       0.001       32.256   0.100E-07
     TRS4 it   8 1.00000000   0.438E-07       0.001       32.256   0.100E-07
     Final TRS4 iteration    8 1.00000000   0.438E-07
     Chemical potential (mu):      -0.00342
 
 PAO| energy:  -7.6933762111059876      penalty:   1.4525331456941530E-005
 PAO|LS| adapt:  T T T
 PAO|LS| adapt: scan_steps:    0.0000000000000000       0.22889149930377123       0.45778299860754246     
 PAO|LS| adapt: energies:   -7.6905415205630092       -7.6953861960659129       -7.6933762111059876     
 PAO|LS| adapt: suggested step_size:   0.27621963262000221     
 PAO|LS| adapt: predicted energy  -7.6955327290436966     
 PAO| ======================= Iteration:        12 =============================

     Lanczos converged:  T threshold:   0.100E-02
     Est. extremal eigenvalues:    0.277E+01   0.195E+00
     Est. condition number :    0.143E+02
     NS sqrt iter    1 1.00000000   0.707E+00       0.002       40.152
     NS sqrt iter    2 1.00000000   0.327E+00       0.001      110.592
     NS sqrt iter    3 1.00000000   0.716E-01       0.001      110.592
     NS sqrt iter    4 1.00000000   0.147E-02       0.001      110.592
     NS sqrt iter    5 1.00000000   0.212E-07       0.001       54.272
     Final NS sqrt iter    5 1.00000000   0.454E-08

     Est. extremal eigenvalues     -0.91818     1.54052  converged:  T
     TRS4 it   1 1.00000000   0.821E+00       0.001       16.128   0.100E-07
     TRS4 it   2 1.00000000   0.586E+00       0.001       23.405   0.100E-07
     TRS4 it   3 1.00000000   0.397E+00       0.001       32.256   0.100E-07
     TRS4 it   4 1.00000000   0.201E+00       0.001       32.256   0.100E-07
     TRS4 it   5 1.00000000   0.634E-01       0.001       32.256   0.100E-07
     TRS4 it   6 1.00000000   0.746E-02       0.001       32.256   0.100E-07
     TRS4 it   7 1.00000000   0.128E-03       0.001       32.256   0.100E-07
     TRS4 it   8 1.00000000   0.524E-07       0.001       32.256   0.100E-07
     Final TRS4 iteration    8 1.00000000   0.524E-07
     Chemical potential (mu):      -0.00552
 
 PAO| energy:  -7.6955186671723057      penalty:   1.3541237705205920E-005
 PAO|CG| trace_G_new    1.1800891198790485E-002
 PAO|CG| trace_G_prev    3.7046443475247583E-002
 PAO|CG| trace_G_mix   -4.4464684259350293E-004
 PAO|CG| trace_D    4.5575369112309097E-002
 PAO|CG| trace_D_Gnew   2.7139451894904443E-004
 PAO|CG| beta:   0.33054557719058214     
 PAO| norm of gradient:  0.10863190690948257     
 PAO| energy improvement:  -4.9771466092964900E-003
 PAO| step     12                   -7.695518667  0.679E-02  0.276E+00     0.054
 PAO|LS| adapt:  T F F
 PAO|LS| adapt: scan_steps:    0.0000000000000000        0.0000000000000000        0.0000000000000000     
 PAO|LS| adapt: energies:   -7.6955186671723057        0.0000000000000000        0.0000000000000000     
 PAO| ======================= Iteration:        13 =============================

     Lanczos converged:  T threshold:   0.100E-02
     Est. extremal eigenvalues:    0.274E+01   0.199E+00
     Est. condition number :    0.138E+02
     NS sqrt iter    1 1.00000000   0.700E+00       0.001       46.110
     NS sqrt iter    2 1.00000000   0.320E+00       0.001      110.195
     NS sqrt iter    3 1.00000000   0.677E-01       0.001      110.592
     NS sqrt iter    4 1.00000000   0.125E-02       0.001      110.592
     NS sqrt iter    5 1.00000000   0.124E-07       0.001       47.744
     Final NS sqrt iter    5 1.00000000   0.341E-08

     Est. extremal eigenvalues     -0.91873     1.53849  converged:  T
     TRS4 it   1 1.00000000   0.821E+00       0.000       16.128   0.100E-07
     TRS4 it   2 1.00000000   0.584E+00       0.001       32.256   0.100E-07
     TRS4 it   3 1.00000000   0.394E+00       0.001       32.256   0.100E-07
     TRS4 it   4 1.00000000   0.197E+00       0.001       32.256   0.100E-07
     TRS4 it   5 1.00000000   0.604E-01       0.001       32.256   0.100E-07
     TRS4 it   6 1.00000000   0.672E-02       0.001       32.256   0.100E-07
     TRS4 it   7 1.00000000   0.102E-03       0.001       32.256   0.100E-07
     TRS4 it   8 1.00000000   0.322E-07       0.001       32.256   0.100E-07
     Final TRS4 iteration    8 1.00000000   0.322E-07
     Chemical potential (mu):      -0.00164
 
 PAO| energy:  -7.6975760232554746      penalty:   1.3797910207552503E-005
 PAO|LS| adapt:  T T F
 PAO|LS| adapt: scan_steps:    0.0000000000000000       0.27621963262000221        0.0000000000000000     
 PAO|LS| adapt: energies:   -7.6955186671723057       -7.6975760232554746        0.0000000000000000     
 PAO| ======================= Iteration:        14 =============================

     Lanczos converged:  T threshold:   0.100E-02
     Est. extremal eigenvalues:    0.271E+01   0.203E+00
     Est. condition number :    0.133E+02
     NS sqrt iter    1 1.00000000   0.693E+00       0.001       60.916
     NS sqrt iter    2 1.00000000   0.313E+00       0.001      101.203
     NS sqrt iter    3 1.00000000   0.639E-01       0.001       88.963
     NS sqrt iter    4 1.00000000   0.105E-02       0.001      110.592
     NS sqrt iter    5 1.00000000   0.433E-08       0.001       36.864
     Final NS sqrt iter    5 1.00000000   0.217E-08

     Est. extremal eigenvalues     -0.91877     1.53681  converged:  T
     TRS4 it   1 1.00000000   0.822E+00       0.000       16.128   0.100E-07
     TRS4 it   2 1.00000000   0.582E+00       0.001       32.256   0.100E-07
     TRS4 it   3 1.00000000   0.390E+00       0.001       32.256   0.100E-07
     TRS4 it   4 1.00000000   0.192E+00       0.001       32.256   0.100E-07
     TRS4 it   5 1.00000000   0.575E-01       0.001       32.256   0.100E-07
     TRS4 it   6 1.00000000   0.606E-02       0.001       32.256   0.100E-07
     TRS4 it   7 1.00000000   0.814E-04       0.001       32.256   0.100E-07
     TRS4 it   8 1.00000000   0.200E-07       0.001       32.256   0.100E-07
     Final TRS4 iteration    8 1.00000000   0.200E-07
     Chemical potential (mu):       0.00210
 
 PAO| energy:  -7.6973199248719704      penalty:   1.4454235321089338E-005
 PAO|LS| adapt:  T T T
 PAO|LS| adapt: scan_steps:    0.0000000000000000       0.27621963262000221       0.55243926524000442     
 PAO|LS| adapt: energies:   -7.6955186671723057       -7.6975760232554746       -7.6973199248719704     
 PAO|LS| adapt: suggested step_size:   0.38375205809514068     
 PAO|LS| adapt: predicted energy  -7.6977513308607968     
 PAO| ======================= Iteration:        15 =============================

     Lanczos converged:  T threshold:   0.100E-02
     Est. extremal eigenvalues:    0.273E+01   0.200E+00
     Est. condition number :    0.136E+02
     NS sqrt iter    1 1.00000000   0.697E+00       0.001       64.512
     NS sqrt iter    2 1.00000000   0.317E+00       0.001      110.592
     NS sqrt iter    3 1.00000000   0.662E-01       0.001      105.377
     NS sqrt iter    4 1.00000000   0.117E-02       0.001       84.584
     NS sqrt iter    5 1.00000000   0.959E-08       0.002       23.560
     Final NS sqrt iter    5 1.00000000   0.556E-08

     Est. extremal eigenvalues     -0.91880     1.53780  converged:  T
     TRS4 it   1 1.00000000   0.822E+00       0.000       16.128   0.100E-07
     TRS4 it   2 1.00000000   0.583E+00       0.001       32.256   0.100E-07
     TRS4 it   3 1.00000000   0.393E+00       0.001       32.256   0.100E-07
     TRS4 it   4 1.00000000   0.195E+00       0.001       32.256   0.100E-07
     TRS4 it   5 1.00000000   0.592E-01       0.001       32.256   0.100E-07
     TRS4 it   6 1.00000000   0.645E-02       0.001       32.256   0.100E-07
     TRS4 it   7 1.00000000   0.933E-04       0.001       32.256   0.100E-07
     TRS4 it   8 1.00000000   0.267E-07       0.001       32.256   0.100E-07
     Final TRS4 iteration    8 1.00000000   0.267E-07
     Chemical potential (mu):      -0.00017
 
 PAO| energy:  -7.6977478577052603      penalty:   1.4002607441481244E-005
 PAO|CG| trace_G_new    2.2823159076177063E-003
 PAO|CG| trace_G_prev    1.1800891198790485E-002
 PAO|CG| trace_G_mix    1.0399189302766801E-004
 PAO|CG| trace_D    1.6601056767023004E-002
 PAO|CG| trace_D_Gnew   2.0811415031335021E-005
 PAO|CG| beta:   0.18458978884690525     
 PAO| norm of gradient:   4.7773590064152667E-002
 PAO| energy improvement:  -2.2291905329545614E-003
 PAO| step     15                   -7.697747858  0.299E-02  0.384E+00     0.053
 PAO|LS| adapt:  T F F
 PAO|LS| adapt: scan_steps:    0.0000000000000000        0.0000000000000000        0.0000000000000000     
 PAO|LS| adapt: energies:   -7.6977478577052603        0.0000000000000000        0.0000000000000000     
 PAO| ======================= Iteration:        16 =============================

     Lanczos converged:  T threshold:   0.100E-02
     Est. extremal eigenvalues:    0.272E+01   0.201E+00
     Est. condition number :    0.135E+02
     NS sqrt iter    1 1.00000000   0.695E+00       0.001       64.512
     NS sqrt iter    2 1.00000000   0.316E+00       0.001      107.984
     NS sqrt iter    3 1.00000000   0.656E-01       0.001      107.941
     NS sqrt iter    4 1.00000000   0.113E-02       0.001      110.592
     NS sqrt iter    5 1.00000000   0.814E-08       0.001       42.624
     Final NS sqrt iter    5 1.00000000   0.500E-08

     Est. extremal eigenvalues     -0.91883     1.53726  converged:  T
     TRS4 it   1 1.00000000   0.822E+00       0.001       16.128   0.100E-07
     TRS4 it   2 1.00000000   0.582E+00       0.001       32.256   0.100E-07
     TRS4 it   3 1.00000000   0.391E+00       0.001       32.256   0.100E-07
     TRS4 it   4 1.00000000   0.193E+00       0.001       32.256   0.100E-07
     TRS4 it   5 1.00000000   0.581E-01       0.001       32.256   0.100E-07
     TRS4 it   6 1.00000000   0.622E-02       0.001       32.256   0.100E-07
     TRS4 it   7 1.00000000   0.873E-04       0.001       32.256   0.100E-07
     TRS4 it   8 1.00000000   0.237E-07       0.001       32.256   0.100E-07
     Final TRS4 iteration    8 1.00000000   0.237E-07
     Chemical potential (mu):       0.00071
 
 PAO| energy:  -7.6978331961166520      penalty:   1.3770391873322124E-005
 PAO|LS| adapt:  T T F
 PAO|LS| adapt: scan_steps:    0.0000000000000000       0.38375205809514068        0.0000000000000000     
 PAO|LS| adapt: energies:   -7.6977478577052603       -7.6978331961166520        0.0000000000000000     
 PAO| ======================= Iteration:        17 =============================

     Lanczos converged:  T threshold:   0.100E-02
     Est. extremal eigenvalues:    0.271E+01   0.202E+00
     Est. condition number :    0.134E+02
     NS sqrt iter    1 1.00000000   0.694E+00       0.002       27.221
     NS sqrt iter    2 1.00000000   0.315E+00       0.001      101.157
     NS sqrt iter    3 1.00000000   0.650E-01       0.001      103.227
     NS sqrt iter    4 1.00000000   0.110E-02       0.001      102.689
     NS sqrt iter    5 1.00000000   0.560E-08       0.001       37.888
     Final NS sqrt iter    5 1.00000000   0.534E-08

     Est. extremal eigenvalues     -0.91871     1.53681  converged:  T
     TRS4 it   1 1.00000000   0.822E+00       0.000       16.128   0.100E-07
     TRS4 it   2 1.00000000   0.582E+00       0.001       32.256   0.100E-07
     TRS4 it   3 1.00000000   0.390E+00       0.001       32.256   0.100E-07
     TRS4 it   4 1.00000000   0.191E+00       0.001       32.256   0.100E-07
     TRS4 it   5 1.00000000   0.571E-01       0.001       32.256   0.100E-07
     TRS4 it   6 1.00000000   0.600E-02       0.001       32.256   0.100E-07
     TRS4 it   7 1.00000000   0.818E-04       0.001       32.256   0.100E-07
     TRS4 it   8 1.00000000   0.210E-07       0.001       32.256   0.100E-07
     Final TRS4 iteration    8 1.00000000   0.210E-07
     Chemical potential (mu):       0.00156
 
 PAO| energy:  -7.6963332794557617      penalty:   1.3641497592338963E-005
 PAO|LS| adapt:  T T T
 PAO|LS| adapt: scan_steps:    0.0000000000000000       0.38375205809514068       0.76750411619028136     
 PAO|LS| adapt: energies:   -7.6977478577052603       -7.6978331961166520       -7.6963332794557617     
 PAO|LS| adapt: suggested step_size:   0.21253440231427109     
 PAO|LS| adapt: predicted energy  -7.6979909807895215     
 PAO| ======================= Iteration:        18 =============================

     Lanczos converged:  T threshold:   0.100E-02
     Est. extremal eigenvalues:    0.272E+01   0.201E+00
     Est. condition number :    0.135E+02
     NS sqrt iter    1 1.00000000   0.696E+00       0.001       64.512
     NS sqrt iter    2 1.00000000   0.317E+00       0.001      110.592
     NS sqrt iter    3 1.00000000   0.658E-01       0.001      110.592
     NS sqrt iter    4 1.00000000   0.115E-02       0.001      110.592
     NS sqrt iter    5 1.00000000   0.857E-08       0.001       42.624
     Final NS sqrt iter    5 1.00000000   0.570E-08

     Est. extremal eigenvalues     -0.91883     1.53749  converged:  T
     TRS4 it   1 1.00000000   0.822E+00       0.001       16.128   0.100E-07
     TRS4 it   2 1.00000000   0.583E+00       0.001       32.256   0.100E-07
     TRS4 it   3 1.00000000   0.392E+00       0.001       32.256   0.100E-07
     TRS4 it   4 1.00000000   0.194E+00       0.001       32.256   0.100E-07
     TRS4 it   5 1.00000000   0.586E-01       0.001       32.256   0.100E-07
     TRS4 it   6 1.00000000   0.632E-02       0.001       32.256   0.100E-07
     TRS4 it   7 1.00000000   0.900E-04       0.001       32.256   0.100E-07
     TRS4 it   8 1.00000000   0.250E-07       0.001       32.256   0.100E-07
     Final TRS4 iteration    8 1.00000000   0.250E-07
     Chemical potential (mu):       0.00032
 
 PAO| energy:  -7.6979903748926040      penalty:   1.3861443116496392E-005
 PAO|CG| trace_G_new    6.9016862716309209E-004
 PAO|CG| trace_G_prev    2.2823159076177063E-003
 PAO|CG| trace_G_mix    8.2747737179668329E-007
 PAO|CG| trace_D    2.8402870422729446E-003
 PAO|CG| trace_D_Gnew  -1.8642995045562372E-006
 PAO|CG| beta:   0.30203581699206283     
 PAO| norm of gradient:   2.6271060640238569E-002
 PAO| energy improvement:  -2.4251718734369376E-004
 PAO| step     18                   -7.697990375  0.164E-02  0.213E+00     0.055
 PAO|LS| adapt:  T F F
 PAO|LS| adapt: scan_steps:    0.0000000000000000        0.0000000000000000        0.0000000000000000     
 PAO|LS| adapt: energies:   -7.6979903748926040        0.0000000000000000        0.0000000000000000     
 PAO| ======================= Iteration:        19 =============================

     Lanczos converged:  T threshold:   0.100E-02
     Est. extremal eigenvalues:    0.272E+01   0.201E+00
     Est. condition number :    0.135E+02
     NS sqrt iter    1 1.00000000   0.696E+00       0.001       64.512
     NS sqrt iter    2 1.00000000   0.317E+00       0.001      110.592
     NS sqrt iter    3 1.00000000   0.660E-01       0.001      110.592
     NS sqrt iter    4 1.00000000   0.115E-02       0.001      110.592
     NS sqrt iter    5 1.00000000   0.857E-08       0.001       42.624
     Final NS sqrt iter    5 1.00000000   0.568E-08

     Est. extremal eigenvalues     -0.91884     1.53775  converged:  T
     TRS4 it   1 1.00000000   0.822E+00       0.000       16.128   0.100E-07
     TRS4 it   2 1.00000000   0.583E+00       0.001       32.256   0.100E-07
     TRS4 it   3 1.00000000   0.392E+00       0.001       32.256   0.100E-07
     TRS4 it   4 1.00000000   0.194E+00       0.001       32.256   0.100E-07
     TRS4 it   5 1.00000000   0.585E-01       0.001       32.256   0.100E-07
     TRS4 it   6 1.00000000   0.631E-02       0.001       32.256   0.100E-07
     TRS4 it   7 1.00000000   0.900E-04       0.001       32.256   0.100E-07
     TRS4 it   8 1.00000000   0.252E-07       0.001       32.256   0.100E-07
     Final TRS4 iteration    8 1.00000000   0.252E-07
     Chemical potential (mu):       0.00024
 
 PAO| energy:  -7.6981025628102815      penalty:   1.3588892084748392E-005
 PAO|LS| adapt:  T T F
 PAO|LS| adapt: scan_steps:    0.0000000000000000       0.21253440231427109        0.0000000000000000     
 PAO|LS| adapt: energies:   -7.6979903748926040       -7.6981025628102815        0.0000000000000000     
 PAO| ======================= Iteration:        20 =============================

     Lanczos converged:  T threshold:   0.100E-02
     Est. extremal eigenvalues:    0.272E+01   0.201E+00
     Est. condition number :    0.135E+02
     NS sqrt iter    1 1.00000000   0.696E+00       0.001       63.953
     NS sqrt iter    2 1.00000000   0.317E+00       0.001      110.592
     NS sqrt iter    3 1.00000000   0.661E-01       0.001      110.592
     NS sqrt iter    4 1.00000000   0.116E-02       0.001      110.592
     NS sqrt iter    5 1.00000000   0.858E-08       0.001       42.624
     Final NS sqrt iter    5 1.00000000   0.567E-08

     Est. extremal eigenvalues     -0.91884     1.53801  converged:  T
     TRS4 it   1 1.00000000   0.822E+00       0.000       16.128   0.100E-07
     TRS4 it   2 1.00000000   0.583E+00       0.001       32.256   0.100E-07
     TRS4 it   3 1.00000000   0.391E+00       0.001       32.256   0.100E-07
     TRS4 it   4 1.00000000   0.194E+00       0.001       32.256   0.100E-07
     TRS4 it   5 1.00000000   0.584E-01       0.001       26.445   0.100E-07
     TRS4 it   6 1.00000000   0.630E-02       0.001       32.256   0.100E-07
     TRS4 it   7 1.00000000   0.901E-04       0.001       32.256   0.100E-07
     TRS4 it   8 1.00000000   0.255E-07       0.001       32.256   0.100E-07
     Final TRS4 iteration    8 1.00000000   0.255E-07
     Chemical potential (mu):       0.00016
 
 PAO| energy:  -7.6981450573917742      penalty:   1.3327445526154765E-005
 PAO|LS| adapt:  T T F
 PAO|LS| adapt: scan_steps:    0.0000000000000000       0.42506880462854219        0.0000000000000000     
 PAO|LS| adapt: energies:   -7.6979903748926040       -7.6981450573917742        0.0000000000000000     
 PAO| ======================= Iteration:        21 =============================

     Lanczos converged:  T threshold:   0.100E-02
     Est. extremal eigenvalues:    0.272E+01   0.201E+00
     Est. condition number :    0.135E+02
     NS sqrt iter    1 1.00000000   0.695E+00       0.001       64.512
     NS sqrt iter    2 1.00000000   0.317E+00       0.001      110.592
     NS sqrt iter    3 1.00000000   0.665E-01       0.001      110.592
     NS sqrt iter    4 1.00000000   0.117E-02       0.001      107.409
     NS sqrt iter    5 1.00000000   0.862E-08       0.001       37.293
     Final NS sqrt iter    5 1.00000000   0.565E-08

     Est. extremal eigenvalues     -0.91884     1.53853  converged:  T
     TRS4 it   1 1.00000000   0.822E+00       0.000       16.128   0.100E-07
     TRS4 it   2 1.00000000   0.583E+00       0.001       32.256   0.100E-07
     TRS4 it   3 1.00000000   0.391E+00       0.001       32.256   0.100E-07
     TRS4 it   4 1.00000000   0.193E+00       0.001       32.256   0.100E-07
     TRS4 it   5 1.00000000   0.582E-01       0.001       32.256   0.100E-07
     TRS4 it   6 1.00000000   0.628E-02       0.001       32.256   0.100E-07
     TRS4 it   7 1.00000000   0.904E-04       0.001       32.256   0.100E-07
     TRS4 it   8 1.00000000   0.260E-07       0.001       32.256   0.100E-07
     Final TRS4 iteration    8 1.00000000   0.260E-07
     Chemical potential (mu):      -0.00002
 
 PAO| energy:  -7.6980181891640935      penalty:   1.2837417386954881E-005
 PAO|LS| Need extra step
 PAO|LS| adapt:  T T T
 PAO|LS| adapt: scan_steps:    0.0000000000000000       0.42506880462854219       0.85013760925708437     
 PAO|LS| adapt: energies:   -7.6979903748926040       -7.6981450573917742       -7.6980181891640935     
 PAO|LS| adapt: suggested step_size:   0.44606498401319322     
 PAO|LS| adapt: predicted energy  -7.6981454008617183     
 PAO| ======================= Iteration:        22 =============================

     Lanczos converged:  T threshold:   0.100E-02
     Est. extremal eigenvalues:    0.272E+01   0.201E+00
     Est. condition number :    0.135E+02
     NS sqrt iter    1 1.00000000   0.696E+00       0.001       64.330
     NS sqrt iter    2 1.00000000   0.317E+00       0.001      108.374
     NS sqrt iter    3 1.00000000   0.661E-01       0.001      110.592
     NS sqrt iter    4 1.00000000   0.116E-02       0.001      110.592
     NS sqrt iter    5 1.00000000   0.858E-08       0.001       42.624
     Final NS sqrt iter    5 1.00000000   0.567E-08

     Est. extremal eigenvalues     -0.91884     1.53803  converged:  T
     TRS4 it   1 1.00000000   0.822E+00       0.000       16.128   0.100E-07
     TRS4 it   2 1.00000000   0.583E+00       0.001       32.256   0.100E-07
     TRS4 it   3 1.00000000   0.391E+00       0.001       32.256   0.100E-07
     TRS4 it   4 1.00000000   0.194E+00       0.001       32.256   0.100E-07
     TRS4 it   5 1.00000000   0.584E-01       0.001       32.256   0.100E-07
     TRS4 it   6 1.00000000   0.630E-02       0.001       32.256   0.100E-07
     TRS4 it   7 1.00000000   0.902E-04       0.001       32.256   0.100E-07
     TRS4 it   8 1.00000000   0.255E-07       0.001       32.256   0.100E-07
     Final TRS4 iteration    8 1.00000000   0.255E-07
     Chemical potential (mu):       0.00015
 
 PAO| energy:  -7.6981454464931005      penalty:   1.3302214486727325E-005
 PAO|CG| trace_G_new    1.9511980956513349E-004
 PAO|CG| trace_G_prev    6.9016862716309209E-004
 PAO|CG| trace_G_mix    4.4805367097435321E-006
 PAO|CG| trace_D    9.5040178590341214E-004
 PAO|CG| trace_D_Gnew  -2.1724952245081524E-006
 PAO|CG| beta:   0.27622129629247905     
 PAO| norm of gradient:   1.3968529255620775E-002
 PAO| energy improvement:  -1.5507160049654800E-004
 PAO| step     22                   -7.698145446  0.873E-03  0.446E+00     0.068
 PAO|LS| adapt:  T F F
 PAO|LS| adapt: scan_steps:    0.0000000000000000        0.0000000000000000        0.0000000000000000     
 PAO|LS| adapt: energies:   -7.6981454464931005        0.0000000000000000        0.0000000000000000     
 PAO| ======================= Iteration:        23 =============================

     Lanczos converged:  T threshold:   0.100E-02
     Est. extremal eigenvalues:    0.272E+01   0.201E+00
     Est. condition number :    0.135E+02
     NS sqrt iter    1 1.00000000   0.696E+00       0.001       59.912
     NS sqrt iter    2 1.00000000   0.317E+00       0.001       87.738
     NS sqrt iter    3 1.00000000   0.661E-01       0.001      106.789
     NS sqrt iter    4 1.00000000   0.116E-02       0.001      110.592
     NS sqrt iter    5 1.00000000   0.854E-08       0.001       42.624
     Final NS sqrt iter    5 1.00000000   0.564E-08

     Est. extremal eigenvalues     -0.91884     1.53819  converged:  T
     TRS4 it   1 1.00000000   0.822E+00       0.000       16.128   0.100E-07
     TRS4 it   2 1.00000000   0.583E+00       0.001       32.256   0.100E-07
     TRS4 it   3 1.00000000   0.392E+00       0.001       29.241   0.100E-07
     TRS4 it   4 1.00000000   0.194E+00       0.001       26.521   0.100E-07
     TRS4 it   5 1.00000000   0.585E-01       0.001       32.256   0.100E-07
     TRS4 it   6 1.00000000   0.633E-02       0.001       32.256   0.100E-07
     TRS4 it   7 1.00000000   0.911E-04       0.001       32.256   0.100E-07
     TRS4 it   8 1.00000000   0.261E-07       0.001       32.256   0.100E-07
     Final TRS4 iteration    8 1.00000000   0.261E-07
     Chemical potential (mu):      -0.00001
 
 PAO| energy:  -7.6981893163253456      penalty:   1.2683087496674316E-005
 PAO|LS| adapt:  T T F
 PAO|LS| adapt: scan_steps:    0.0000000000000000       0.44606498401319322        0.0000000000000000     
 PAO|LS| adapt: energies:   -7.6981454464931005       -7.6981893163253456        0.0000000000000000     
 PAO| ======================= Iteration:        24 =============================

     Lanczos converged:  T threshold:   0.100E-02
     Est. extremal eigenvalues:    0.272E+01   0.201E+00
     Est. condition number :    0.135E+02
     NS sqrt iter    1 1.00000000   0.695E+00       0.001       64.512
     NS sqrt iter    2 1.00000000   0.317E+00       0.001      110.592
     NS sqrt iter    3 1.00000000   0.661E-01       0.001      110.592
     NS sqrt iter    4 1.00000000   0.115E-02       0.001      110.592
     NS sqrt iter    5 1.00000000   0.850E-08       0.001       42.624
     Final NS sqrt iter    5 1.00000000   0.561E-08

     Est. extremal eigenvalues     -0.91884     1.53835  converged:  T
     TRS4 it   1 1.00000000   0.822E+00       0.000       16.128   0.100E-07
     TRS4 it   2 1.00000000   0.583E+00       0.001       32.256   0.100E-07
     TRS4 it   3 1.00000000   0.392E+00       0.001       32.256   0.100E-07
     TRS4 it   4 1.00000000   0.194E+00       0.001       32.256   0.100E-07
     TRS4 it   5 1.00000000   0.587E-01       0.001       32.256   0.100E-07
     TRS4 it   6 1.00000000   0.636E-02       0.001       32.256   0.100E-07
     TRS4 it   7 1.00000000   0.921E-04       0.001       32.256   0.100E-07
     TRS4 it   8 1.00000000   0.266E-07       0.001       32.256   0.100E-07
     Final TRS4 iteration    8 1.00000000   0.266E-07
     Chemical potential (mu):      -0.00018
 
 PAO| energy:  -7.6981456876749350      penalty:   1.2087734567206356E-005
 PAO|LS| adapt:  T T T
 PAO|LS| adapt: scan_steps:    0.0000000000000000       0.44606498401319322       0.89212996802638644     
 PAO|LS| adapt: energies:   -7.6981454464931005       -7.6981893163253456       -7.6981456876749350     
 PAO|LS| adapt: suggested step_size:   0.44667975336625437     
 PAO|LS| adapt: predicted energy  -7.6981893164084454     
 PAO| ======================= Iteration:        25 =============================

     Lanczos converged:  T threshold:   0.100E-02
     Est. extremal eigenvalues:    0.272E+01   0.201E+00
     Est. condition number :    0.135E+02
     NS sqrt iter    1 1.00000000   0.696E+00       0.001       64.512
     NS sqrt iter    2 1.00000000   0.317E+00       0.001       80.610
     NS sqrt iter    3 1.00000000   0.661E-01       0.001       85.222
     NS sqrt iter    4 1.00000000   0.116E-02       0.001       90.407
     NS sqrt iter    5 1.00000000   0.854E-08       0.001       42.624
     Final NS sqrt iter    5 1.00000000   0.564E-08

     Est. extremal eigenvalues     -0.91884     1.53819  converged:  T
     TRS4 it   1 1.00000000   0.822E+00       0.001       16.128   0.100E-07
     TRS4 it   2 1.00000000   0.583E+00       0.001       32.226   0.100E-07
     TRS4 it   3 1.00000000   0.392E+00       0.001       32.256   0.100E-07
     TRS4 it   4 1.00000000   0.194E+00       0.001       32.256   0.100E-07
     TRS4 it   5 1.00000000   0.585E-01       0.001       32.256   0.100E-07
     TRS4 it   6 1.00000000   0.633E-02       0.001       32.256   0.100E-07
     TRS4 it   7 1.00000000   0.911E-04       0.001       32.256   0.100E-07
     TRS4 it   8 1.00000000   0.261E-07       0.001       32.256   0.100E-07
     Final TRS4 iteration    8 1.00000000   0.261E-07
     Chemical potential (mu):      -0.00001
 
 PAO| energy:  -7.6981893166277535      penalty:   1.2682250716526827E-005
 PAO|CG| trace_G_new    4.0251252040614939E-005
 PAO|CG| trace_G_prev    1.9511980956513349E-004
 PAO|CG| trace_G_mix    5.0445956629460194E-007
 PAO|CG| trace_D    2.6883393830159582E-004
 PAO|CG| trace_D_Gnew  -3.5841681517766467E-007
 PAO|CG| beta:   0.20370454728766199     
 PAO| norm of gradient:   6.3443874440811806E-003
 PAO| energy improvement:  -4.3870134653012371E-005
 PAO| step     25                   -7.698189317  0.397E-03  0.447E+00     0.054
 PAO|LS| adapt:  T F F
 PAO|LS| adapt: scan_steps:    0.0000000000000000        0.0000000000000000        0.0000000000000000     
 PAO|LS| adapt: energies:   -7.6981893166277535        0.0000000000000000        0.0000000000000000     
 PAO| ======================= Iteration:        26 =============================

     Lanczos converged:  T threshold:   0.100E-02
     Est. extremal eigenvalues:    0.272E+01   0.201E+00
     Est. condition number :    0.135E+02
     NS sqrt iter    1 1.00000000   0.695E+00       0.001       64.512
     NS sqrt iter    2 1.00000000   0.317E+00       0.001      110.592
     NS sqrt iter    3 1.00000000   0.660E-01       0.001      110.592
     NS sqrt iter    4 1.00000000   0.115E-02       0.001      110.592
     NS sqrt iter    5 1.00000000   0.853E-08       0.001       34.908
     Final NS sqrt iter    5 1.00000000   0.564E-08

     Est. extremal eigenvalues     -0.91884     1.53789  converged:  T
     TRS4 it   1 1.00000000   0.822E+00       0.000       16.128   0.100E-07
     TRS4 it   2 1.00000000   0.583E+00       0.001       32.256   0.100E-07
     TRS4 it   3 1.00000000   0.391E+00       0.001       32.256   0.100E-07
     TRS4 it   4 1.00000000   0.194E+00       0.001       32.256   0.100E-07
     TRS4 it   5 1.00000000   0.584E-01       0.001       32.256   0.100E-07
     TRS4 it   6 1.00000000   0.630E-02       0.001       32.256   0.100E-07
     TRS4 it   7 1.00000000   0.901E-04       0.001       32.256   0.100E-07
     TRS4 it   8 1.00000000   0.255E-07       0.001       32.256   0.100E-07
     Final TRS4 iteration    8 1.00000000   0.255E-07
     Chemical potential (mu):       0.00015
 
 PAO| energy:  -7.6981932879335560      penalty:   1.2104521772931261E-005
 PAO|LS| adapt:  T T F
 PAO|LS| adapt: scan_steps:    0.0000000000000000       0.44667975336625437        0.0000000000000000     
 PAO|LS| adapt: energies:   -7.6981893166277535       -7.6981932879335560        0.0000000000000000     
 PAO| ======================= Iteration:        27 =============================

     Lanczos converged:  T threshold:   0.100E-02
     Est. extremal eigenvalues:    0.272E+01   0.201E+00
     Est. condition number :    0.135E+02
     NS sqrt iter    1 1.00000000   0.695E+00       0.001       64.512
     NS sqrt iter    2 1.00000000   0.317E+00       0.001      110.592
     NS sqrt iter    3 1.00000000   0.659E-01       0.001      110.592
     NS sqrt iter    4 1.00000000   0.115E-02       0.001      107.145
     NS sqrt iter    5 1.00000000   0.852E-08       0.001       33.886
     Final NS sqrt iter    5 1.00000000   0.564E-08

     Est. extremal eigenvalues     -0.91884     1.53760  converged:  T
     TRS4 it   1 1.00000000   0.822E+00       0.000       16.128   0.100E-07
     TRS4 it   2 1.00000000   0.583E+00       0.001       32.256   0.100E-07
     TRS4 it   3 1.00000000   0.391E+00       0.001       32.256   0.100E-07
     TRS4 it   4 1.00000000   0.193E+00       0.001       32.256   0.100E-07
     TRS4 it   5 1.00000000   0.583E-01       0.001       32.256   0.100E-07
     TRS4 it   6 1.00000000   0.627E-02       0.001       32.256   0.100E-07
     TRS4 it   7 1.00000000   0.892E-04       0.001       32.256   0.100E-07
     TRS4 it   8 1.00000000   0.249E-07       0.001       32.256   0.100E-07
     Final TRS4 iteration    8 1.00000000   0.249E-07
     Chemical potential (mu):       0.00031
 
 PAO| energy:  -7.6981691484754800      penalty:   1.1542034082770969E-005
 PAO|LS| adapt:  T T T
 PAO|LS| adapt: scan_steps:    0.0000000000000000       0.44667975336625437       0.89335950673250875     
 PAO|LS| adapt: energies:   -7.6981893166277535       -7.6981932879335560       -7.6981691484754800     
 PAO|LS| adapt: suggested step_size:   0.28644388566855067     
 PAO|LS| adapt: predicted energy  -7.6981950966462609     
 PAO| ======================= Iteration:        28 =============================

     Lanczos converged:  T threshold:   0.100E-02
     Est. extremal eigenvalues:    0.272E+01   0.201E+00
     Est. condition number :    0.135E+02
     NS sqrt iter    1 1.00000000   0.695E+00       0.001       52.812
     NS sqrt iter    2 1.00000000   0.317E+00       0.001      110.016
     NS sqrt iter    3 1.00000000   0.660E-01       0.001      110.592
     NS sqrt iter    4 1.00000000   0.115E-02       0.001      110.592
     NS sqrt iter    5 1.00000000   0.853E-08       0.001       42.624
     Final NS sqrt iter    5 1.00000000   0.564E-08

     Est. extremal eigenvalues     -0.91884     1.53800  converged:  T
     TRS4 it   1 1.00000000   0.822E+00       0.001       16.128   0.100E-07
     TRS4 it   2 1.00000000   0.583E+00       0.001       24.811   0.100E-07
     TRS4 it   3 1.00000000   0.391E+00       0.001       32.256   0.100E-07
     TRS4 it   4 1.00000000   0.194E+00       0.001       32.256   0.100E-07
     TRS4 it   5 1.00000000   0.585E-01       0.001       32.256   0.100E-07
     TRS4 it   6 1.00000000   0.631E-02       0.001       32.256   0.100E-07
     TRS4 it   7 1.00000000   0.905E-04       0.001       32.256   0.100E-07
     TRS4 it   8 1.00000000   0.257E-07       0.001       32.256   0.100E-07
     Final TRS4 iteration    8 1.00000000   0.257E-07
     Chemical potential (mu):       0.00009
 
 PAO| energy:  -7.6981950944390558      penalty:   1.2310008988203652E-005
 PAO|CG| trace_G_new    3.2251301024107611E-005
 PAO|CG| trace_G_prev    4.0251252040614939E-005
 PAO|CG| trace_G_mix   -1.3098103110588124E-008
 PAO|CG| trace_D    5.1552684446034650E-005
 PAO|CG| trace_D_Gnew  -8.5810111901504820E-009
 PAO|CG| beta:   0.80157504404241342     
 PAO| norm of gradient:   5.6790228934304899E-003
 PAO| energy improvement:  -5.7778113022877164E-006
 PAO| step     28                   -7.698195094  0.355E-03  0.286E+00     0.053
 PAO|LS| adapt:  T F F
 PAO|LS| adapt: scan_steps:    0.0000000000000000        0.0000000000000000        0.0000000000000000     
 PAO|LS| adapt: energies:   -7.6981950944390558        0.0000000000000000        0.0000000000000000     
 PAO| ======================= Iteration:        29 =============================

     Lanczos converged:  T threshold:   0.100E-02
     Est. extremal eigenvalues:    0.272E+01   0.201E+00
     Est. condition number :    0.135E+02
     NS sqrt iter    1 1.00000000   0.695E+00       0.002       42.905
     NS sqrt iter    2 1.00000000   0.317E+00       0.001      107.792
     NS sqrt iter    3 1.00000000   0.659E-01       0.001      110.475
     NS sqrt iter    4 1.00000000   0.115E-02       0.001      106.816
     NS sqrt iter    5 1.00000000   0.855E-08       0.001       42.624
     Final NS sqrt iter    5 1.00000000   0.566E-08

     Est. extremal eigenvalues     -0.91885     1.53812  converged:  T
     TRS4 it   1 1.00000000   0.822E+00       0.000       16.128   0.100E-07
     TRS4 it   2 1.00000000   0.583E+00       0.001       32.256   0.100E-07
     TRS4 it   3 1.00000000   0.391E+00       0.001       32.256   0.100E-07
     TRS4 it   4 1.00000000   0.193E+00       0.001       32.256   0.100E-07
     TRS4 it   5 1.00000000   0.584E-01       0.001       32.256   0.100E-07
     TRS4 it   6 1.00000000   0.629E-02       0.001       32.256   0.100E-07
     TRS4 it   7 1.00000000   0.898E-04       0.001       32.256   0.100E-07
     TRS4 it   8 1.00000000   0.252E-07       0.001       32.256   0.100E-07
     Final TRS4 iteration    8 1.00000000   0.252E-07
     Chemical potential (mu):       0.00025
 
 PAO| energy:  -7.6982030291599886      penalty:   1.1734421368573903E-005
 PAO|LS| adapt:  T T F
 PAO|LS| adapt: scan_steps:    0.0000000000000000       0.28644388566855067        0.0000000000000000     
 PAO|LS| adapt: energies:   -7.6981950944390558       -7.6982030291599886        0.0000000000000000     
 PAO| ======================= Iteration:        30 =============================

     Lanczos converged:  T threshold:   0.100E-02
     Est. extremal eigenvalues:    0.272E+01   0.201E+00
     Est. condition number :    0.135E+02
     NS sqrt iter    1 1.00000000   0.695E+00       0.001       64.512
     NS sqrt iter    2 1.00000000   0.316E+00       0.001       95.879
     NS sqrt iter    3 1.00000000   0.658E-01       0.001      108.013
     NS sqrt iter    4 1.00000000   0.115E-02       0.001      101.891
     NS sqrt iter    5 1.00000000   0.857E-08       0.001       42.624
     Final NS sqrt iter    5 1.00000000   0.569E-08

     Est. extremal eigenvalues     -0.91885     1.53824  converged:  T
     TRS4 it   1 1.00000000   0.822E+00       0.000       16.128   0.100E-07
     TRS4 it   2 1.00000000   0.583E+00       0.001       32.256   0.100E-07
     TRS4 it   3 1.00000000   0.391E+00       0.001       32.256   0.100E-07
     TRS4 it   4 1.00000000   0.193E+00       0.001       32.256   0.100E-07
     TRS4 it   5 1.00000000   0.583E-01       0.001       32.256   0.100E-07
     TRS4 it   6 1.00000000   0.626E-02       0.001       32.256   0.100E-07
     TRS4 it   7 1.00000000   0.891E-04       0.001       32.256   0.100E-07
     TRS4 it   8 1.00000000   0.248E-07       0.001       32.256   0.100E-07
     Final TRS4 iteration    8 1.00000000   0.248E-07
     Chemical potential (mu):       0.00041
 
 PAO| energy:  -7.6982083552386911      penalty:   1.1173731466637338E-005
 PAO|LS| adapt:  T T F
 PAO|LS| adapt: scan_steps:    0.0000000000000000       0.57288777133710134        0.0000000000000000     
 PAO|LS| adapt: energies:   -7.6981950944390558       -7.6982083552386911        0.0000000000000000     
 PAO| ======================= Iteration:        31 =============================

     Lanczos converged:  T threshold:   0.100E-02
     Est. extremal eigenvalues:    0.272E+01   0.200E+00
     Est. condition number :    0.136E+02
     NS sqrt iter    1 1.00000000   0.694E+00       0.001       64.512
     NS sqrt iter    2 1.00000000   0.316E+00       0.001      110.592
     NS sqrt iter    3 1.00000000   0.656E-01       0.001      110.361
     NS sqrt iter    4 1.00000000   0.114E-02       0.001       77.793
     NS sqrt iter    5 1.00000000   0.862E-08       0.001       40.724
     Final NS sqrt iter    5 1.00000000   0.574E-08

     Est. extremal eigenvalues     -0.91886     1.53848  converged:  T
     TRS4 it   1 1.00000000   0.823E+00       0.000       16.128   0.100E-07
     TRS4 it   2 1.00000000   0.583E+00       0.001       32.256   0.100E-07
     TRS4 it   3 1.00000000   0.391E+00       0.001       32.256   0.100E-07
     TRS4 it   4 1.00000000   0.193E+00       0.001       32.256   0.100E-07
     TRS4 it   5 1.00000000   0.581E-01       0.001       32.256   0.100E-07
     TRS4 it   6 1.00000000   0.622E-02       0.001       32.256   0.100E-07
     TRS4 it   7 1.00000000   0.877E-04       0.001       32.256   0.100E-07
     TRS4 it   8 1.00000000   0.239E-07       0.001       32.256   0.100E-07
     Final TRS4 iteration    8 1.00000000   0.239E-07
     Chemical potential (mu):       0.00073
 
 PAO| energy:  -7.6982111977036478      penalty:   1.0096716704648584E-005
 PAO|LS| Need extra step
 PAO|LS| adapt:  T T F
 PAO|LS| adapt: scan_steps:    0.0000000000000000        1.1457755426742027        0.0000000000000000     
 PAO|LS| adapt: energies:   -7.6981950944390558       -7.6982111977036478        0.0000000000000000     
 PAO| ======================= Iteration:        32 =============================

     Lanczos converged:  T threshold:   0.100E-02
     Est. extremal eigenvalues:    0.271E+01   0.200E+00
     Est. condition number :    0.136E+02
     NS sqrt iter    1 1.00000000   0.693E+00       0.001       64.512
     NS sqrt iter    2 1.00000000   0.315E+00       0.001      110.592
     NS sqrt iter    3 1.00000000   0.652E-01       0.001      110.592
     NS sqrt iter    4 1.00000000   0.113E-02       0.001       85.897
     NS sqrt iter    5 1.00000000   0.874E-08       0.001       40.429
     Final NS sqrt iter    5 1.00000000   0.586E-08

     Est. extremal eigenvalues     -0.91888     1.53894  converged:  T
     TRS4 it   1 1.00000000   0.823E+00       0.000       16.128   0.100E-07
     TRS4 it   2 1.00000000   0.583E+00       0.001       32.256   0.100E-07
     TRS4 it   3 1.00000000   0.391E+00       0.001       32.256   0.100E-07
     TRS4 it   4 1.00000000   0.193E+00       0.001       32.256   0.100E-07
     TRS4 it   5 1.00000000   0.577E-01       0.001       32.256   0.100E-07
     TRS4 it   6 1.00000000   0.614E-02       0.001       32.256   0.100E-07
     TRS4 it   7 1.00000000   0.850E-04       0.001       32.256   0.100E-07
     TRS4 it   8 1.00000000   0.223E-07       0.001       32.256   0.100E-07
     Final TRS4 iteration    8 1.00000000   0.223E-07
     Chemical potential (mu):       0.00137
 
 PAO| energy:  -7.6981857493654458      penalty:   8.1178690671524917E-006
 PAO|LS| Need extra step
 PAO|LS| adapt:  T T T
 PAO|LS| adapt: scan_steps:    0.0000000000000000        1.1457755426742027        2.2915510853484053     
 PAO|LS| adapt: energies:   -7.6981950944390558       -7.6982111977036478       -7.6981857493654458     
 PAO|LS| adapt: suggested step_size:    1.0169314540362784     
 PAO|LS| adapt: predicted energy  -7.6982114604203522     
 PAO| ======================= Iteration:        33 =============================

     Lanczos converged:  T threshold:   0.100E-02
     Est. extremal eigenvalues:    0.272E+01   0.200E+00
     Est. condition number :    0.136E+02
     NS sqrt iter    1 1.00000000   0.694E+00       0.001       64.512
     NS sqrt iter    2 1.00000000   0.316E+00       0.001      110.592
     NS sqrt iter    3 1.00000000   0.657E-01       0.001      110.592
     NS sqrt iter    4 1.00000000   0.114E-02       0.001      110.592
     NS sqrt iter    5 1.00000000   0.861E-08       0.001       42.624
     Final NS sqrt iter    5 1.00000000   0.573E-08

     Est. extremal eigenvalues     -0.91886     1.53843  converged:  T
     TRS4 it   1 1.00000000   0.823E+00       0.000       16.128   0.100E-07
     TRS4 it   2 1.00000000   0.583E+00       0.001       32.256   0.100E-07
     TRS4 it   3 1.00000000   0.391E+00       0.001       32.256   0.100E-07
     TRS4 it   4 1.00000000   0.193E+00       0.001       32.256   0.100E-07
     TRS4 it   5 1.00000000   0.581E-01       0.001       32.256   0.100E-07
     TRS4 it   6 1.00000000   0.623E-02       0.001       32.256   0.100E-07
     TRS4 it   7 1.00000000   0.880E-04       0.001       32.256   0.100E-07
     TRS4 it   8 1.00000000   0.241E-07       0.001       32.256   0.100E-07
     Final TRS4 iteration    8 1.00000000   0.241E-07
     Chemical potential (mu):       0.00066
 
 PAO| energy:  -7.6982114648590168      penalty:   1.0333808755100651E-005
 PAO|CG| trace_G_new    8.1300731834017904E-005
 PAO|CG| trace_G_prev    3.2251301024107611E-005
 PAO|CG| trace_G_mix    6.0069840610976654E-008
 PAO|CG| trace_D    6.5388820006056592E-005
 PAO|CG| trace_D_Gnew   3.5657387051719872E-008
 PAO|CG| beta:    2.5189886737493201     
 PAO| norm of gradient:   9.0166918453509267E-003
 PAO| energy improvement:  -1.6370419960942684E-005
 PAO| step     33                   -7.698211465  0.564E-03  0.102E+01     0.084
 PAO|LS| adapt:  T F F
 PAO|LS| adapt: scan_steps:    0.0000000000000000        0.0000000000000000        0.0000000000000000     
 PAO|LS| adapt: energies:   -7.6982114648590168        0.0000000000000000        0.0000000000000000     
 PAO| ======================= Iteration:        34 =============================

     Lanczos converged:  T threshold:   0.100E-02
     Est. extremal eigenvalues:    0.271E+01   0.199E+00
     Est. condition number :    0.136E+02
     NS sqrt iter    1 1.00000000   0.691E+00       0.001       55.861
     NS sqrt iter    2 1.00000000   0.314E+00       0.001      110.592
     NS sqrt iter    3 1.00000000   0.648E-01       0.001      110.577
     NS sqrt iter    4 1.00000000   0.112E-02       0.001      110.592
     NS sqrt iter    5 1.00000000   0.897E-08       0.001       42.624
     Final NS sqrt iter    5 1.00000000   0.605E-08

     Est. extremal eigenvalues     -0.91889     1.53935  converged:  T
     TRS4 it   1 1.00000000   0.824E+00       0.000       16.128   0.100E-07
     TRS4 it   2 1.00000000   0.583E+00       0.001       32.256   0.100E-07
     TRS4 it   3 1.00000000   0.391E+00       0.001       32.256   0.100E-07
     TRS4 it   4 1.00000000   0.192E+00       0.001       32.256   0.100E-07
     TRS4 it   5 1.00000000   0.575E-01       0.001       32.256   0.100E-07
     TRS4 it   6 1.00000000   0.609E-02       0.001       32.256   0.100E-07
     TRS4 it   7 1.00000000   0.837E-04       0.001       32.256   0.100E-07
     TRS4 it   8 1.00000000   0.215E-07       0.001       32.256   0.100E-07
     Final TRS4 iteration    8 1.00000000   0.215E-07
     Chemical potential (mu):       0.00168
 
 PAO| energy:  -7.6982151309947966      penalty:   5.5290491494133709E-006
 PAO|LS| adapt:  T T F
[...]

     Lanczos converged:  T threshold:   0.100E-02
     Est. extremal eigenvalues:    0.247E+01   0.232E+00
     Est. condition number :    0.107E+02
     NS sqrt iter    1 1.00000000   0.629E+00       0.001       45.834
     NS sqrt iter    2 1.00000000   0.259E+00       0.001       98.465
     NS sqrt iter    3 1.00000000   0.374E-01       0.001      110.592
     NS sqrt iter    4 1.00000000   0.256E-03       0.001      108.608
     NS sqrt iter    5 1.00000000   0.478E-09       0.001       36.864
     Final NS sqrt iter    5 1.00000000   0.510E-10

     Est. extremal eigenvalues     -0.91880     1.38755  converged:  T
     TRS4 it   1 1.00000000   0.797E+00       0.001       16.128   0.100E-07
     TRS4 it   2 1.00000000   0.578E+00       0.001       32.256   0.100E-07
     TRS4 it   3 1.00000000   0.410E+00       0.001       32.256   0.100E-07
     TRS4 it   4 1.00000000   0.246E+00       0.001       32.256   0.100E-07
     TRS4 it   5 1.00000000   0.111E+00       0.001       32.256   0.100E-07
     TRS4 it   6 1.00000000   0.292E-01       0.001       32.256   0.100E-07
     TRS4 it   7 1.00000000   0.284E-02       0.001       32.256   0.100E-07
     TRS4 it   8 1.00000000   0.323E-04       0.001       32.256   0.100E-07
     TRS4 it   9 1.00000000   0.449E-08       0.001       32.256   0.100E-07
     Final TRS4 iteration    9 1.00000000   0.449E-08
     Chemical potential (mu):      -0.08480
 
 PAO| energy:  -7.6990222007869562      penalty:   3.8003572213644097E-012
 PAO|LS| Need extra step
 PAO|LS| adapt:  T T T
 PAO|LS| adapt: scan_steps:    0.0000000000000000       0.20000000000000001       0.40000000000000002     
 PAO|LS| adapt: energies:   -7.6990222007612799       -7.6990222007924807       -7.6990222007869562     
 PAO|LS| adapt: suggested step_size:   0.26991462913250630     
 PAO|LS| adapt: predicted energy  -7.6990222007947242     
 PAO| ======================= Iteration:       914 =============================

     Lanczos converged:  T threshold:   0.100E-02
     Est. extremal eigenvalues:    0.247E+01   0.232E+00
     Est. condition number :    0.107E+02
     NS sqrt iter    1 1.00000000   0.629E+00       0.001       64.512
     NS sqrt iter    2 1.00000000   0.259E+00       0.001      110.592
     NS sqrt iter    3 1.00000000   0.374E-01       0.001      101.875
     NS sqrt iter    4 1.00000000   0.256E-03       0.001      102.056
     NS sqrt iter    5 1.00000000   0.478E-09       0.001       31.115
     Final NS sqrt iter    5 1.00000000   0.510E-10

     Est. extremal eigenvalues     -0.91880     1.38755  converged:  T
     TRS4 it   1 1.00000000   0.797E+00       0.000       16.128   0.100E-07
     TRS4 it   2 1.00000000   0.578E+00       0.001       32.256   0.100E-07
     TRS4 it   3 1.00000000   0.410E+00       0.001       32.256   0.100E-07
     TRS4 it   4 1.00000000   0.246E+00       0.001       32.256   0.100E-07
     TRS4 it   5 1.00000000   0.111E+00       0.001       32.256   0.100E-07
     TRS4 it   6 1.00000000   0.292E-01       0.001       32.256   0.100E-07
     TRS4 it   7 1.00000000   0.284E-02       0.001       32.256   0.100E-07
     TRS4 it   8 1.00000000   0.323E-04       0.001       32.256   0.100E-07
     TRS4 it   9 1.00000000   0.449E-08       0.001       32.256   0.100E-07
     Final TRS4 iteration    9 1.00000000   0.449E-08
     Chemical potential (mu):      -0.08480
 
 PAO| energy:  -7.6990222007947260      penalty:   3.8345502099292565E-012
 PAO|CG| warming up with steepest descent
 PAO|CG| beta:    0.0000000000000000     
 PAO| norm of gradient:   7.6433093997296029E-006
 PAO| energy improvement:  -3.3446134750647616E-011
 PAO| step    914                   -7.699022201  0.478E-06  0.270E+00     0.073
 PAO| converged after          914  steps :-)
 PAO| Recalculating energy after mixing.

     Lanczos converged:  T threshold:   0.100E-02
     Est. extremal eigenvalues:    0.247E+01   0.232E+00
     Est. condition number :    0.107E+02
     NS sqrt iter    1 1.00000000   0.629E+00       0.001       52.316
     NS sqrt iter    2 1.00000000   0.259E+00       0.001      106.797
     NS sqrt iter    3 1.00000000   0.374E-01       0.001      110.592
     NS sqrt iter    4 1.00000000   0.256E-03       0.001      108.800
     NS sqrt iter    5 1.00000000   0.478E-09       0.001       36.864
     Final NS sqrt iter    5 1.00000000   0.510E-10

     Est. extremal eigenvalues     -0.91880     1.38755  converged:  T
     TRS4 it   1 1.00000000   0.797E+00       0.000       16.128   0.100E-07
     TRS4 it   2 1.00000000   0.578E+00       0.001       32.256   0.100E-07
     TRS4 it   3 1.00000000   0.410E+00       0.001       32.256   0.100E-07
     TRS4 it   4 1.00000000   0.246E+00       0.001       32.256   0.100E-07
     TRS4 it   5 1.00000000   0.111E+00       0.001       32.256   0.100E-07
     TRS4 it   6 1.00000000   0.292E-01       0.001       32.256   0.100E-07
     TRS4 it   7 1.00000000   0.284E-02       0.001       32.256   0.100E-07
     TRS4 it   8 1.00000000   0.323E-04       0.001       32.256   0.100E-07
     TRS4 it   9 1.00000000   0.449E-08       0.001       32.256   0.100E-07
     Final TRS4 iteration    9 1.00000000   0.449E-08
     Chemical potential (mu):      -0.08480
 
 PAO| energy:  -7.6990222007863620      penalty:   3.8702297023108611E-012
 PAO| Writing restart file.
     Est. extremal eigenvalues     -0.91880     1.38755  converged:  T
     TRS4 it   1 1.00000000   0.797E+00       0.000       16.128   0.100E-07
     TRS4 it   2 1.00000000   0.578E+00       0.001       32.256   0.100E-07
     TRS4 it   3 1.00000000   0.410E+00       0.001       32.256   0.100E-07
     TRS4 it   4 1.00000000   0.246E+00       0.001       32.256   0.100E-07
     TRS4 it   5 1.00000000   0.111E+00       0.001       32.256   0.100E-07
     TRS4 it   6 1.00000000   0.292E-01       0.001       32.256   0.100E-07
     TRS4 it   7 1.00000000   0.284E-02       0.001       32.256   0.100E-07
     TRS4 it   8 1.00000000   0.323E-04       0.001       32.256   0.100E-07
     TRS4 it   9 1.00000000   0.449E-08       0.001       32.256   0.100E-07
     Final TRS4 iteration    9 1.00000000   0.449E-08
     Chemical potential (mu):      -0.08480

 SCF     1       -34.446863982       -34.446863982    2.271463

*********************************************************
 Using MIXING_FRACTION=0.450 to mix KS matrix:  iscf=  2
 KS_nw=0.450*KS + 0.550*KS_old
*********************************************************
     Est. extremal eigenvalues     -0.91880     1.38755  converged:  T
     TRS4 it   1 1.00000000   0.797E+00       0.000       16.128   0.100E-07
     TRS4 it   2 1.00000000   0.578E+00       0.001       32.256   0.100E-07
     TRS4 it   3 1.00000000   0.410E+00       0.001       32.256   0.100E-07
     TRS4 it   4 1.00000000   0.246E+00       0.001       32.256   0.100E-07
     TRS4 it   5 1.00000000   0.111E+00       0.001       32.256   0.100E-07
     TRS4 it   6 1.00000000   0.292E-01       0.001       32.256   0.100E-07
     TRS4 it   7 1.00000000   0.284E-02       0.001       32.256   0.100E-07
     TRS4 it   8 1.00000000   0.323E-04       0.001       32.256   0.100E-07
     TRS4 it   9 1.00000000   0.449E-08       0.001       32.256   0.100E-07
     Final TRS4 iteration    9 1.00000000   0.449E-08
     Chemical potential (mu):      -0.08480

 SCF     2       -34.446863982         0.000000000    2.532433

 PAO| Storing density matrix for ASPC guess in slot:           1

 ENERGY| Total FORCE_EVAL ( QS ) energy (a.u.):              -34.446863982217117


 -------------------------------------------------------------------------------
 -                                                                             -
 -                                DBCSR STATISTICS                             -
 -                                                                             -
 -------------------------------------------------------------------------------
 COUNTER                                    TOTAL       BLAS       SMM       ACC
 flops     5 x     5 x     4                26000       0.0%    100.0%      0.0%
 flops    13 x     5 x     4                27040       0.0%    100.0%      0.0%
 flops     5 x    13 x     4                27040       0.0%    100.0%      0.0%
 flops    13 x    13 x     4                52728       0.0%    100.0%      0.0%
 flops     4 x     4 x     5              7127040       0.0%    100.0%      0.0%
 flops     5 x     4 x     5              8684800       0.0%    100.0%      0.0%
 flops     4 x     4 x    13              9265152       0.0%    100.0%      0.0%
 flops    13 x     4 x     5             11290240       0.0%    100.0%      0.0%
 flops     5 x     4 x    13             11290240       0.0%    100.0%      0.0%
 flops     5 x     4 x     4             13388000       0.0%    100.0%      0.0%
 flops    13 x     4 x    13             14677312       0.0%    100.0%      0.0%
 flops    13 x     4 x     4             17533152       0.0%    100.0%      0.0%
 flops     4 x     4 x     4            899794688       0.0%    100.0%      0.0%
 flops inhomo. stacks                           0       0.0%      0.0%      0.0%
 flops total                       993.183432E+06       0.0%    100.0%      0.0%
 flops max/rank                    993.183432E+06       0.0%    100.0%      0.0%
 matmuls inhomo. stacks                         0       0.0%      0.0%      0.0%
 matmuls total                            7320261       0.0%    100.0%      0.0%
 number of processed stacks                 58438       0.0%    100.0%      0.0%
 average stack size                                     0.0     125.3       0.0
 marketing flops                     1.624979E+09
 -------------------------------------------------------------------------------
 # multiplications                          48981
 max memory usage/rank             321.163264E+06
 # max total images/rank                        1
 # max 3D layers                                1
 # MPI messages exchanged                       0
 MPI messages size (bytes):
  total size                         0.000000E+00
  min size                           0.000000E+00
  max size                           0.000000E+00
  average size                       0.000000E+00
 MPI breakdown and total messages size (bytes):
             size <=      128                   0                        0
       128 < size <=     8192                   0                        0
      8192 < size <=    32768                   0                        0
     32768 < size <=   131072                   0                        0
    131072 < size <=  4194304                   0                        0
   4194304 < size <= 16777216                   0                        0
  16777216 < size                               0                        0
 -------------------------------------------------------------------------------

 MEMORY| Estimated peak process memory [MiB]                                 307

 -------------------------------------------------------------------------------
 -                                                                             -
 -                           R E F E R E N C E S                               -
 -                                                                             -
 -------------------------------------------------------------------------------
 
 CP2K version 7.0 (Development Version), the CP2K developers group (2018).
 CP2K is freely available from https://www.cp2k.org/ .

 Schuett, O; VandeVondele, J. 
 Journal of Chemical Theory and Computation, 14, (2018). 
 Machine Learning Adaptive Basis Sets for Efficient Large Scale Density Functional Theory Simulation.
 https://dx.doi.org/10.1021/acs.jctc.8b00378


 Schuett, Ole; Messmer, Peter; Hutter, Juerg; VandeVondele, Joost. 
 Electronic Structure Calculations on Graphics Processing Units, John Wiley & Sons, Ltd, 173-190 (2016). 
 GPU-Accelerated Sparse Matrix-Matrix Multiplication for Linear Scaling Density Functional Theory.
 https://dx.doi.org/10.1002/9781118670712.ch8


 Borstnik, U; VandeVondele, J; Weber, V; Hutter, J. 
 PARALLEL COMPUTING, 40 (5-6), 47-58 (2014). 
 Sparse matrix multiplication: The distributed block-compressed sparse
 row library.
 https://dx.doi.org/10.1016/j.parco.2014.03.012


 Hutter, J; Iannuzzi, M; Schiffmann, F; VandeVondele, J. 
 WILEY INTERDISCIPLINARY REVIEWS-COMPUTATIONAL MOLECULAR SCIENCE, 4 (1), 15-25 (2014). 
 CP2K: atomistic simulations of condensed matter systems.
 https://dx.doi.org/10.1002/wcms.1159


 VandeVondele, J; Borstnik, U; Hutter, J. 
 JOURNAL OF CHEMICAL THEORY AND COMPUTATION, 8 (10), 3565-3573 (2012). 
 Linear Scaling Self-Consistent Field Calculations with Millions of Atoms
 in the Condensed Phase.
 https://dx.doi.org/10.1021/ct200897x


 VandeVondele, J; Hutter, J. 
 JOURNAL OF CHEMICAL PHYSICS, 127 (11), 114105 (2007). 
 Gaussian basis sets for accurate calculations on molecular systems in
 gas and condensed phases.
 https://dx.doi.org/10.1063/1.2770708


 Krack, M. 
 THEORETICAL CHEMISTRY ACCOUNTS, 114 (1-3), 145-152 (2005). 
 Pseudopotentials for H to Kr optimized for gradient-corrected
 exchange-correlation functionals.
 https://dx.doi.org/10.1007/s00214-005-0655-y


 VandeVondele, J; Krack, M; Mohamed, F; Parrinello, M; Chassaing, T;
 Hutter, J. COMPUTER PHYSICS COMMUNICATIONS, 167 (2), 103-128 (2005). 
 QUICKSTEP: Fast and accurate density functional calculations using a
 mixed Gaussian and plane waves approach.
 https://dx.doi.org/10.1016/j.cpc.2004.12.014


 Frigo, M; Johnson, SG. 
 PROCEEDINGS OF THE IEEE, 93 (2), 216-231 (2005). 
 The design and implementation of FFTW3.
 https://dx.doi.org/10.1109/JPROC.2004.840301


 Niklasson, AMN; Tymczak, CJ; Challacombe, M. 
 JOURNAL OF CHEMICAL PHYSICS, 118 (19), 8611-8620 (2003). 
 Trace resetting density matrix purification in O(N)
 self-consistent-field theory.
 https://dx.doi.org/10.1063/1.1559913


 Hartwigsen, C; Goedecker, S; Hutter, J. 
 PHYSICAL REVIEW B, 58 (7), 3641-3662 (1998). 
 Relativistic separable dual-space Gaussian pseudopotentials from H to Rn.
 https://dx.doi.org/10.1103/PhysRevB.58.3641


 Lippert, G; Hutter, J; Parrinello, M. 
 MOLECULAR PHYSICS, 92 (3), 477-487 (1997). 
 A hybrid Gaussian and plane wave density functional scheme.
 https://dx.doi.org/10.1080/002689797170220


 Perdew, JP; Burke, K; Ernzerhof, M. 
 PHYSICAL REVIEW LETTERS, 77 (18), 3865-3868 (1996). 
 Generalized gradient approximation made simple.
 https://dx.doi.org/10.1103/PhysRevLett.77.3865


 Goedecker, S; Teter, M; Hutter, J. 
 PHYSICAL REVIEW B, 54 (3), 1703-1710 (1996). 
 Separable dual-space Gaussian pseudopotentials.
 https://dx.doi.org/10.1103/PhysRevB.54.1703


 -------------------------------------------------------------------------------
 -                                                                             -
 -                                T I M I N G                                  -
 -                                                                             -
 -------------------------------------------------------------------------------
 SUBROUTINE                       CALLS  ASD         SELF TIME        TOTAL TIME
                                MAXIMUM       AVERAGE  MAXIMUM  AVERAGE  MAXIMUM
 CP2K                                 1  1.0    0.026    0.026   46.877   46.877
 qs_energies                          1  2.0    0.000    0.000   46.453   46.453
 ls_scf                               1  3.0    0.000    0.000   46.333   46.333
 ls_scf_main                          6  4.0    0.001    0.001   27.006   27.006
 ls_scf_dm_to_ks                     12  5.0    0.000    0.000   26.900   26.900
 qs_ks_update_qs_env                 13  6.0    0.000    0.000   20.973   20.973
 rebuild_ks_matrix                   13  7.0    0.000    0.000   20.972   20.972
 qs_ks_build_kohn_sham_matrix        13  8.0    0.002    0.002   20.972   20.972
 pao_update                           6  4.0    0.025    0.025   16.967   16.967
 pao_calc_energy                    919  5.0    0.010    0.010   15.362   15.362
 dbcsr_multiply_generic           48981  8.4    0.960    0.960   12.309   12.309
 qs_vxc_create                       13  9.0    0.000    0.000   12.140   12.140
 xc_vxc_pw_create                    13 10.0    0.237    0.237   12.140   12.140
 xc_rho_set_and_dset_create          13 11.0    0.084    0.084    8.417    8.417
 qs_rho_update_rho                   13  6.0    0.000    0.000    8.207    8.207
 calculate_rho_elec                  13  7.0    6.416    6.416    8.207    8.207
 pw_transfer                        248 10.6    0.022    0.022    8.140    8.140
 pao_dm_trs4                        919  6.0    0.009    0.009    7.944    7.944
 fft_wrap_pw1pw2                    222 11.7    0.003    0.003    7.927    7.927
 fft_wrap_pw1pw2_200                144 12.8    0.805    0.805    7.593    7.593
 density_matrix_trs4                931  7.0    0.465    0.465    7.543    7.543
 ls_scf_init_matrix_S               925  7.0    0.009    0.009    7.362    7.362
 pao_rebuild_S                      919  6.0    0.007    0.007    7.321    7.321
 sum_up_and_integrate                13  9.0    0.048    0.048    7.308    7.308
 integrate_v_rspace                  13 10.0    6.295    6.295    7.260    7.260
 matrix_sqrt_Newton_Schulz          925  8.0    0.322    0.322    6.597    6.597
 xc_functional_eval                  13 12.0    0.000    0.000    5.319    5.319
 pbe_lda_eval                        13 13.0    5.318    5.318    5.318    5.318
 multiply_cannon                  48981  9.4    2.204    2.204    4.772    4.772
 make_m2s                         97962  9.4    0.319    0.319    4.475    4.475
 fft3d_s                            223 13.6    4.121    4.121    4.134    4.134
 make_images                      97962 10.4    1.156    1.156    3.967    3.967
 pao_guess_initial_P                  1  4.0    0.000    0.000    2.287    2.287
 pao_read_preopt_dm                   1  5.0    0.000    0.000    2.287    2.287
 arnoldi_extremal                  1856  8.5    0.013    0.013    2.024    2.024
 arnoldi_normal_ev                 1856  9.5    0.029    0.029    2.011    2.011
 density_rs2pw                       13  8.0    0.001    0.001    1.753    1.753
 pao_calc_AB                       1206  5.8    0.002    0.002    1.567    1.567
 pao_calc_AB_direct                1206  6.8    0.057    0.057    1.565    1.565
 pw_scatter_s                       117 14.2    1.529    1.529    1.529    1.529
 build_subspace                    1856 10.5    0.122    0.122    1.445    1.445
 pao_calc_grad_lnv_wrt_AB           286  7.0    0.018    0.018    1.440    1.440
 pw_gather_s                        105 13.1    1.420    1.420    1.420    1.420
 dbcsr_create_new                374645 10.7    0.751    0.751    1.330    1.330
 dbcsr_finalize                  115640  9.7    0.251    0.251    1.298    1.298
 dbcsr_matrix_vector_mult         44520 11.5    0.232    0.232    1.281    1.281
 pw_derive                           78 11.5    1.076    1.076    1.076    1.076
 matrix_qs_to_ls                   1856  7.5    0.017    0.017    0.991    0.991
 potential_pw2rs                     13 11.0    0.006    0.006    0.962    0.962
 -------------------------------------------------------------------------------

 The number of warnings for this run is : 0
 
 -------------------------------------------------------------------------------
  **** **** ******  **  PROGRAM ENDED AT                 2019-02-14 01:09:51.471
 ***** ** ***  *** **   PROGRAM RAN ON                                      otto
 **    ****   ******    PROGRAM RAN BY                                       ole
 ***** **    ** ** **   PROGRAM PROCESS ID                                  5981
  **** **  *******  **  PROGRAM STOPPED IN /home/ole/git/pao_ml_equivar/2H2O_MD/
                                           frame_0150
