 DBCSR| CPU Multiplication driver                                           XSMM (U)
 DBCSR| Multrec recursion limit                                              512 (U)
 DBCSR| Multiplication stack size                                           1000 (D)
 DBCSR| Maximum elements for images                                    UNLIMITED (U)
 DBCSR| Multiplicative factor virtual images                                   1 (U)
 DBCSR| Use multiplication densification                                       T (D)
 DBCSR| Multiplication size stacks                                             3 (U)
 DBCSR| Use memory pool for CPU allocation                                     F (U)
 DBCSR| OMP: Current number of threads                                         1
 DBCSR| OMP: Max number of threads                                             1
 DBCSR| Split modifier for TAS multiplication algorithm                  1.0E+00 (U)


  **** **** ******  **  PROGRAM STARTED AT               2023-02-01 10:47:55.412
 ***** ** ***  *** **   PROGRAM STARTED ON                                moritz
 **    ****   ******    PROGRAM STARTED BY                                   ole
 ***** **    ** ** **   PROGRAM PROCESS ID                                148683
  **** **  *******  **  PROGRAM STARTED IN /home/ole/git/pao_ml_equivar/2H2O_MD/
                                           frame_0150

 CP2K| version string:                 CP2K version 2023.1 (Development Version)
 CP2K| source code revision number:                                  git:03b4147
 CP2K| cp2kflags: omp libint fftw3 libxc quip xsmm spglib libvori libbqb libtorc
 CP2K|            h
 CP2K| is freely available from                            https://www.cp2k.org/
 CP2K| Program compiled at                           Mi 01 Feb 2023 10:36:52 CET
 CP2K| Program compiled on                                                moritz
 CP2K| Program compiled for                                                local
 CP2K| Data directory path                               /home/ole/git/cp2k/data
 CP2K| Input file name                                            2H2O_pao44.inp

 GLOBAL| Force Environment number                                              1
 GLOBAL| Basis set file name                                        BASIS_MOLOPT
 GLOBAL| Potential file name                                      GTH_POTENTIALS
 GLOBAL| MM Potential file name                                     MM_POTENTIAL
 GLOBAL| Coordinate file name                                         coords.xyz
 GLOBAL| Method name                                                        CP2K
 GLOBAL| Project name                                                 2H2O_pao44
 GLOBAL| Run type                                                         ENERGY
 GLOBAL| FFT library                                                       FFTW3
 GLOBAL| Diagonalization library                                       ScaLAPACK
 GLOBAL| DGEMM library                                                      BLAS
 GLOBAL| Orthonormality check for eigenvectors                          DISABLED
 GLOBAL| Matrix multiplication library                                 ScaLAPACK
 GLOBAL| All-to-all communication in single precision                          F
 GLOBAL| FFTs using library dependent lengths                                  F
 GLOBAL| Grid backend                                                       AUTO
 GLOBAL| Global print level                                                  LOW
 GLOBAL| MPI I/O enabled                                                       T
 GLOBAL| Total number of message passing processes                             1
 GLOBAL| Number of threads for this process                                    1
 GLOBAL| This output is from process                                           0
 GLOBAL| Stack size for threads created by OpenMP (OMP_STACKSIZE)        default
 GLOBAL| CPU model name           AMD Ryzen Threadripper 3970X 32-Core Processor
 GLOBAL| CPUID                                                              1002
 GLOBAL| Compiled for CPUID                                                    0

 *** HINT in environment.F:884 :: The compiler target flags (generic) used ***
 *** to build this binary cannot exploit all extensions of this CPU model  ***
 *** (x86_avx2). Consider compiler target flags as part of FCFLAGS and     ***
 *** CFLAGS (ARCH file).                                                   ***


 MEMORY| system memory details [Kb]
 MEMORY|                        rank 0           min           max       average
 MEMORY| MemTotal            131773860     131773860     131773860     131773860
 MEMORY| MemFree             112723044     112723044     112723044     112723044
 MEMORY| Buffers                302624        302624        302624        302624
 MEMORY| Cached                7056636       7056636       7056636       7056636
 MEMORY| Slab                   780228        780228        780228        780228
 MEMORY| SReclaimable           332704        332704        332704        332704
 MEMORY| MemLikelyFree       120415008     120415008     120415008     120415008


 GENERATE|  Preliminary Number of Bonds generated:                             0
 GENERATE|  Achieved consistency in connectivity generation.

 *******************************************************************************
 *******************************************************************************
 **                                                                           **
 **     #####                         ##              ##                      **
 **    ##   ##            ##          ##              ##                      **
 **   ##     ##                       ##            ######                    **
 **   ##     ##  ##   ##  ##   #####  ##  ##   ####   ##    #####    #####    **
 **   ##     ##  ##   ##  ##  ##      ## ##   ##      ##   ##   ##  ##   ##   **
 **   ##  ## ##  ##   ##  ##  ##      ####     ###    ##   ######   ######    **
 **    ##  ###   ##   ##  ##  ##      ## ##      ##   ##   ##       ##        **
 **     #######   #####   ##   #####  ##  ##  ####    ##    #####   ##        **
 **           ##                                                    ##        **
 **                                                                           **
 **                                                ... make the atoms dance   **
 **                                                                           **
 **            Copyright (C) by CP2K developers group (2000-2023)             **
 **                      J. Chem. Phys. 152, 194103 (2020)                    **
 **                                                                           **
 *******************************************************************************


 TOTAL NUMBERS AND MAXIMUM NUMBERS

  Total number of            - Atomic kinds:                                   2
                             - Atoms:                                          6
                             - Shell sets:                                     6
                             - Shells:                                        22
                             - Primitive Cartesian functions:                 42
                             - Cartesian basis functions:                     48
                             - Spherical basis functions:                     46

  Maximum angular momentum of- Orbital basis functions:                        2
                             - Local part of the GTH pseudopotential:          2
                             - Non-local part of the GTH pseudopotential:      0

 ------------------------------ Linear scaling SCF -----------------------------
 eps_scf:                                                              0.100E-07
 eps_filter:                                                           0.100E-07
 mixing_fraction:                                                      0.450E+00
 max_scf:                                                                     25
 fixed chemical potential (mu)                                                 F
 has unit metric:                                                              F
 Computing inv(S):                                                             T
 Computing sqrt(S):                                                            T
 Computing S preconditioner                                                    F
 S sqrt method:                                                     NEWTONSCHULZ
 S sqrt order:                                                                 3
 Extrapolation order:                                                          1
 Use single precision matrices                                                 F
 S preconditioner type                                                      NONE
 Polarized Atomic Orbitals (PAO)                                               T
 Purification method                                   Trace resetting 4th order
 Cluster type                                                             ATOMIC
 Computing Chebyshev                                                       FALSE
 Using PAO                                                                     T
 -------------------------------------------------------------------------------

 
 PAO|                                  EPS_PAO                           0.5E-06
 PAO|                                  MIXING                            0.5E+00
 PAO|                                  MAX_PAO                              1500
 PAO|                                  MAX_CYCLES                           1000
 PAO|                                  PARAMETERIZATION              EQUIVARIANT
 PAO|                                  PRECONDITION                            F
 PAO|                                  REGULARIZATION                    0.0E+00
 PAO|                                  EPS_PGF                           0.1E-09
 PAO|                                  PENALTY_DISTANCE                  0.1E+00
 PAO|                                  PENALTY_STRENGTH                  0.5E-02
 PAO|                                  LINPOT_PRECONDITION_DELTA         0.0E+00
 PAO|                                  LINPOT_INITGUESS_DELT             0.0E+00
 PAO|                                  LINPOT_REGULARIZATION_DELTA       0.0E+00
 PAO|                                  LINPOT_REGULARIZATION_STRENGTH    0.0E+00
 PAO|                                  OPTIMIZER                              CG
 PAO|                                  CG_INIT_STEPS                           2
 PAO|                                  CG_RESET_LIMIT                    0.1E+00
 PAO|                                  CHECK_UNITARY_TOL                -0.1E+01
 PAO|                                  CHECK_GRADIENT_TOL               -0.1E+01
 PAO|                                  NUM_GRADIENT_ORDER                      2
 PAO|                                  NUM_GRADIENT_EPS                  0.1E-07
 PAO|                                  PRINT%RESTART%WRITE_CYCLES            100
 PAO|                                  RESTART_FILE 
 PAO|                                  PREOPT_DM_FILE 2H2O_ref_LS_DM_SPIN_1_RESTART.dm
 PAO|                                  MACHINE_LEARNING%METHOD       GAUSSIAN_PR
 PAO|                                  MACHINE_LEARNING%PRIOR               ZERO
 PAO|                                  MACHINE_LEARNING%DESCRIPTOR     POTENTIAL
 PAO|                                  MACHINE_LEARNING%TOLERANCE        0.1E-01
 PAO|                                  MACHINE_LEARNING%GP_NOISE_VAR     0.1E+00
 PAO|                                  MACHINE_LEARNING%GP_SCALE         0.5E-01
 

 Calculating atomic Fock matrix for atomic kind: O

 Electronic structure
    Total number of core electrons                                          2.00
    Total number of valence electrons                                       6.00
    Total number of electrons                                               8.00
    Multiplicity                                                   not specified
    S   [  2.00] 2.00
    P      4.00


 *******************************************************************************
                  Iteration          Convergence                     Energy [au]
 *******************************************************************************
                          1        0.708315                     -15.576645311500
                          2        0.608879                     -15.587933561584
                          3        0.102828E-01                 -15.656849565404
                          4        0.113889E-02                 -15.656866888140
                          5        0.434197E-03                 -15.656867072159
                          6        0.263771E-03                 -15.656867091904
                          7        0.478536E-06                 -15.656867103452

 Energy components [Hartree]           Total Energy ::          -15.656867103452
                                        Band Energy ::           -3.000198112285
                                     Kinetic Energy ::           11.759971203220
                                   Potential Energy ::          -27.416838306672
                                      Virial (-V/T) ::            2.331369510426
                                        Core Energy ::          -26.140716385623
                                          XC Energy ::           -3.154051012914
                                     Coulomb Energy ::           13.637900295084
                       Total Pseudopotential Energy ::          -37.935781716540
                       Local Pseudopotential Energy ::          -39.218907440693
                    Nonlocal Pseudopotential Energy ::            1.283125724153
                                        Confinement ::            0.350941276976

 Orbital energies  State     L     Occupation   Energy[a.u.]          Energy[eV]

                       1     0          2.000      -0.864471          -23.523463

                       1     1          4.000      -0.317814           -8.648154


 Total Electron Density at R=0:                                         0.000068

 Calculating atomic Fock matrix for atomic kind: H

 Electronic structure
    Total number of core electrons                                          0.00
    Total number of valence electrons                                       1.00
    Total number of electrons                                               1.00
    Multiplicity                                                   not specified
    S      1.00


 *******************************************************************************
                  Iteration          Convergence                     Energy [au]
 *******************************************************************************
                          1        0.437545E-02                  -0.424159432110
                          2        0.531356E-03                  -0.424178438213
                          3        0.259176E-06                  -0.424178722480

 Energy components [Hartree]           Total Energy ::           -0.424178722480
                                        Band Energy ::           -0.199015229016
                                     Kinetic Energy ::            0.464007633961
                                   Potential Energy ::           -0.888186356441
                                      Virial (-V/T) ::            1.914163240935
                                        Core Energy ::           -0.479160803564
                                          XC Energy ::           -0.244352904054
                                     Coulomb Energy ::            0.299334985138
                       Total Pseudopotential Energy ::           -0.962295316385
                       Local Pseudopotential Energy ::           -0.962295316385
                    Nonlocal Pseudopotential Energy ::            0.000000000000
                                        Confinement ::            0.191268788606

 Orbital energies  State     L     Occupation   Energy[a.u.]          Energy[eV]

                       1     0          1.000      -0.199015           -5.415480


 Total Electron Density at R=0:                                         0.242907
 PAO| Made initial guess for matrix_X with norm:   4.8989794855663558     

     Lanczos converged:  T threshold:   0.100E-02
     Est. extremal eigenvalues:    0.329E+01   0.123E+00
     Est. condition number :    0.267E+02

 Order=           3
     NS sqrt iter    1 1.00000000   0.805E+00       0.001       61.716
     NS sqrt iter    2 1.00000000   0.425E+00       0.001      109.666
     NS sqrt iter    3 1.00000000   0.157E+00       0.001      110.592
     NS sqrt iter    4 1.00000000   0.161E-01       0.001      110.406
     NS sqrt iter    5 1.00000000   0.261E-04       0.001       82.944
     Symmetrizing Results
     Final NS sqrt iter    5 1.00000000   0.105E-08

 PAO| Read restart DM 2H2O_ref_LS_DM_SPIN_1_RESTART.dm with checksum:    60.080658186984657     
 PAO| Quickstep energy from restart density:  -34.447238525829306     
 PAO| ======================= Iteration:         1 =============================

     Lanczos converged:  T threshold:   0.100E-02
     Est. extremal eigenvalues:    0.329E+01   0.123E+00
     Est. condition number :    0.267E+02

 Order=           3
     NS sqrt iter    1 1.00000000   0.805E+00       0.001       58.959
     NS sqrt iter    2 1.00000000   0.425E+00       0.001      100.097
     NS sqrt iter    3 1.00000000   0.157E+00       0.001       99.188
     NS sqrt iter    4 1.00000000   0.161E-01       0.001      103.412
     NS sqrt iter    5 1.00000000   0.261E-04       0.001       78.602
     Symmetrizing Results
     Final NS sqrt iter    5 1.00000000   0.105E-08

     Est. extremal eigenvalues     -0.90288     1.71144  converged:  T
     TRS4 it   1 1.00000000   0.841E+00       0.000       16.128   0.100E-07
     TRS4 it   2 1.00000000   0.659E+00       0.001       32.256   0.100E-07
     TRS4 it   3 1.00000000   0.486E+00       0.001       32.256   0.100E-07
     TRS4 it   4 1.00000000   0.308E+00       0.001       32.256   0.100E-07
     TRS4 it   5 1.00000000   0.153E+00       0.001       32.256   0.100E-07
     TRS4 it   6 1.00000000   0.463E-01       0.001       32.256   0.100E-07
     TRS4 it   7 1.00000000   0.580E-02       0.001       32.256   0.100E-07
     TRS4 it   8 1.00000000   0.124E-03       0.001       32.256   0.100E-07
     TRS4 it   9 1.00000000   0.648E-07       0.001       32.256   0.100E-07
     Final TRS4 iteration    9 1.00000000   0.648E-07
     Chemical potential (mu):      -0.07457
 
 PAO| energy:  -7.5284407685109542      penalty:   2.1570415377137040E-033
 PAO|CG| warming up with steepest descent
 PAO|CG| beta:    0.0000000000000000     
 PAO| norm of gradient:  0.77000947303260070     
 PAO|LS| adapt:  T F F
 PAO|LS| adapt: scan_steps:    0.0000000000000000        0.0000000000000000        0.0000000000000000     
 PAO|LS| adapt: energies:   -7.5284407685109542        0.0000000000000000        0.0000000000000000     
 PAO| ======================= Iteration:         2 =============================

     Lanczos converged:  T threshold:   0.100E-02
     Est. extremal eigenvalues:    0.321E+01   0.138E+00
     Est. condition number :    0.232E+02

 Order=           3
     NS sqrt iter    1 1.00000000   0.790E+00       0.001       57.549
     NS sqrt iter    2 1.00000000   0.410E+00       0.001       97.880
     NS sqrt iter    3 1.00000000   0.140E+00       0.001       98.937
     NS sqrt iter    4 1.00000000   0.108E-01       0.001      100.081
     NS sqrt iter    5 1.00000000   0.724E-05       0.001       77.427
     Symmetrizing Results
     Final NS sqrt iter    5 1.00000000   0.797E-10

     Est. extremal eigenvalues     -0.90624     1.65337  converged:  T
     TRS4 it   1 1.00000000   0.832E+00       0.000       16.128   0.100E-07
     TRS4 it   2 1.00000000   0.638E+00       0.001       32.256   0.100E-07
     TRS4 it   3 1.00000000   0.466E+00       0.001       32.256   0.100E-07
     TRS4 it   4 1.00000000   0.283E+00       0.001       32.256   0.100E-07
     TRS4 it   5 1.00000000   0.130E+00       0.001       32.256   0.100E-07
     TRS4 it   6 1.00000000   0.340E-01       0.001       32.256   0.100E-07
     TRS4 it   7 1.00000000   0.316E-02       0.001       32.256   0.100E-07
     TRS4 it   8 1.00000000   0.371E-04       0.001       32.256   0.100E-07
     TRS4 it   9 1.00000000   0.584E-08       0.001       32.256   0.100E-07
     Final TRS4 iteration    9 1.00000000   0.584E-08
     Chemical potential (mu):      -0.06314
 
 PAO| energy:  -7.5819598941192847      penalty:   2.1257250690697757E-008
 PAO|LS| adapt:  T T F
 PAO|LS| adapt: scan_steps:    0.0000000000000000       0.10000000000000001        0.0000000000000000     
 PAO|LS| adapt: energies:   -7.5284407685109542       -7.5819598941192847        0.0000000000000000     
 PAO| ======================= Iteration:         3 =============================

     Lanczos converged:  T threshold:   0.100E-02
     Est. extremal eigenvalues:    0.312E+01   0.153E+00
     Est. condition number :    0.204E+02

 Order=           3
     NS sqrt iter    1 1.00000000   0.774E+00       0.001       58.372
     NS sqrt iter    2 1.00000000   0.394E+00       0.001       96.909
     NS sqrt iter    3 1.00000000   0.123E+00       0.001       96.744
     NS sqrt iter    4 1.00000000   0.724E-02       0.001      100.561
     NS sqrt iter    5 1.00000000   0.198E-05       0.001       75.823
     Symmetrizing Results
     Final NS sqrt iter    5 1.00000000   0.576E-11

     Est. extremal eigenvalues     -0.90939     1.60832  converged:  T
     TRS4 it   1 1.00000000   0.825E+00       0.000       16.128   0.100E-07
     TRS4 it   2 1.00000000   0.621E+00       0.001       32.256   0.100E-07
     TRS4 it   3 1.00000000   0.446E+00       0.001       32.256   0.100E-07
     TRS4 it   4 1.00000000   0.260E+00       0.001       32.256   0.100E-07
     TRS4 it   5 1.00000000   0.109E+00       0.001       32.256   0.100E-07
     TRS4 it   6 1.00000000   0.239E-01       0.001       32.256   0.100E-07
     TRS4 it   7 1.00000000   0.156E-02       0.001       32.256   0.100E-07
     TRS4 it   8 1.00000000   0.906E-05       0.001       32.256   0.100E-07
     TRS4 it   9 1.00000000   0.351E-09       0.001       32.256   0.100E-07
     Final TRS4 iteration    9 1.00000000   0.351E-09
     Chemical potential (mu):      -0.05044
 
 PAO| energy:  -7.6233449733015988      penalty:   3.4011600614704992E-007
 PAO|LS| adapt:  T T F
 PAO|LS| adapt: scan_steps:    0.0000000000000000       0.20000000000000001        0.0000000000000000     
 PAO|LS| adapt: energies:   -7.5284407685109542       -7.6233449733015988        0.0000000000000000     
 PAO| ======================= Iteration:         4 =============================

     Lanczos converged:  T threshold:   0.100E-02
     Est. extremal eigenvalues:    0.294E+01   0.175E+00
     Est. condition number :    0.168E+02

 Order=           3
     NS sqrt iter    1 1.00000000   0.740E+00       0.001       57.193
     NS sqrt iter    2 1.00000000   0.361E+00       0.001       98.596
     NS sqrt iter    3 1.00000000   0.955E-01       0.001       98.565
     NS sqrt iter    4 1.00000000   0.334E-02       0.001      101.173
     NS sqrt iter    5 1.00000000   0.205E-06       0.001       74.299
     Symmetrizing Results
     Final NS sqrt iter    5 1.00000000   0.908E-09

     Est. extremal eigenvalues     -0.91436     1.55174  converged:  T
     TRS4 it   1 1.00000000   0.819E+00       0.000       16.128   0.100E-07
     TRS4 it   2 1.00000000   0.594E+00       0.001       32.256   0.100E-07
     TRS4 it   3 1.00000000   0.410E+00       0.001       32.256   0.100E-07
     TRS4 it   4 1.00000000   0.217E+00       0.001       32.256   0.100E-07
     TRS4 it   5 1.00000000   0.754E-01       0.001       32.256   0.100E-07
     TRS4 it   6 1.00000000   0.109E-01       0.001       32.256   0.100E-07
     TRS4 it   7 1.00000000   0.304E-03       0.001       32.256   0.100E-07
     TRS4 it   8 1.00000000   0.335E-06       0.001       32.256   0.100E-07
     TRS4 it   9 1.00000000   0.489E-12       0.001       32.256   0.100E-07
     Final TRS4 iteration    9 1.00000000   0.489E-12
     Chemical potential (mu):      -0.02200
 
 PAO| energy:  -7.6683389166617113      penalty:   5.4418560591243032E-006
 PAO|LS| Need extra step
 PAO|LS| adapt:  T T F
 PAO|LS| adapt: scan_steps:    0.0000000000000000       0.40000000000000002        0.0000000000000000     
 PAO|LS| adapt: energies:   -7.5284407685109542       -7.6683389166617113        0.0000000000000000     
 PAO| ======================= Iteration:         5 =============================

     Lanczos converged:  T threshold:   0.100E-02
     Est. extremal eigenvalues:    0.260E+01   0.199E+00
     Est. condition number :    0.131E+02

 Order=           3
     NS sqrt iter    1 1.00000000   0.678E+00       0.001       60.329
     NS sqrt iter    2 1.00000000   0.300E+00       0.001       98.811
     NS sqrt iter    3 1.00000000   0.574E-01       0.001       98.007
     NS sqrt iter    4 1.00000000   0.859E-03       0.001       98.920
     NS sqrt iter    5 1.00000000   0.303E-08       0.001       35.535
     Symmetrizing Results
     Final NS sqrt iter    5 1.00000000   0.354E-09

     Est. extremal eigenvalues     -0.91599     1.51632  converged:  T
     TRS4 it   1 1.00000000   0.823E+00       0.000       16.128   0.100E-07
     TRS4 it   2 1.00000000   0.565E+00       0.001       32.256   0.100E-07
     TRS4 it   3 1.00000000   0.361E+00       0.001       32.256   0.100E-07
     TRS4 it   4 1.00000000   0.160E+00       0.001       32.256   0.100E-07
     TRS4 it   5 1.00000000   0.381E-01       0.001       32.256   0.100E-07
     TRS4 it   6 1.00000000   0.247E-02       0.001       32.256   0.100E-07
     TRS4 it   7 1.00000000   0.125E-04       0.001       32.256   0.100E-07
     TRS4 it   8 1.00000000   0.415E-09       0.001       32.256   0.100E-07
     Final TRS4 iteration    8 1.00000000   0.415E-09
     Chemical potential (mu):       0.02802
 
 PAO| energy:  -7.6137597161321926      penalty:   8.7069696632180221E-005
 PAO|LS| Need extra step
 PAO|LS| adapt:  T T T
 PAO|LS| adapt: scan_steps:    0.0000000000000000       0.40000000000000002       0.80000000000000004     
 PAO|LS| adapt: energies:   -7.5284407685109542       -7.6683389166617113       -7.6137597161321926     
 PAO|LS| adapt: suggested step_size:   0.48774178401774121     
 PAO|LS| adapt: predicted energy  -7.6730176895834639     
 PAO| ======================= Iteration:         6 =============================

     Lanczos converged:  T threshold:   0.100E-02
     Est. extremal eigenvalues:    0.286E+01   0.181E+00
     Est. condition number :    0.158E+02

 Order=           3
     NS sqrt iter    1 1.00000000   0.724E+00       0.001       58.655
     NS sqrt iter    2 1.00000000   0.347E+00       0.001       99.627
     NS sqrt iter    3 1.00000000   0.852E-01       0.001       98.164
     NS sqrt iter    4 1.00000000   0.242E-02       0.001       97.835
     NS sqrt iter    5 1.00000000   0.900E-07       0.001       68.809
     Symmetrizing Results
     Final NS sqrt iter    5 1.00000000   0.644E-09

     Est. extremal eigenvalues     -0.91576     1.53784  converged:  T
     TRS4 it   1 1.00000000   0.818E+00       0.000       16.128   0.100E-07
     TRS4 it   2 1.00000000   0.585E+00       0.001       32.256   0.100E-07
     TRS4 it   3 1.00000000   0.397E+00       0.001       32.256   0.100E-07
     TRS4 it   4 1.00000000   0.202E+00       0.001       32.256   0.100E-07
     TRS4 it   5 1.00000000   0.641E-01       0.001       32.256   0.100E-07
     TRS4 it   6 1.00000000   0.767E-02       0.001       32.256   0.100E-07
     TRS4 it   7 1.00000000   0.141E-03       0.001       32.256   0.100E-07
     TRS4 it   8 1.00000000   0.686E-07       0.001       32.256   0.100E-07
     Final TRS4 iteration    8 1.00000000   0.686E-07
     Chemical potential (mu):      -0.00869
 
 PAO| energy:  -7.6723196808067540      penalty:   1.2030036199662703E-005
 PAO|CG| warming up with steepest descent
 PAO|CG| beta:    0.0000000000000000     
 PAO| norm of gradient:  0.40091150837324774     
 PAO| energy improvement: -0.14387891229579974     
 PAO| step      6                   -7.672319681  0.251E-01  0.488E+00     0.092
 PAO|LS| adapt:  T F F
 PAO|LS| adapt: scan_steps:    0.0000000000000000        0.0000000000000000        0.0000000000000000     
 PAO|LS| adapt: energies:   -7.6723196808067540        0.0000000000000000        0.0000000000000000     
 PAO| ======================= Iteration:         7 =============================

     Lanczos converged:  T threshold:   0.100E-02
     Est. extremal eigenvalues:    0.278E+01   0.196E+00
     Est. condition number :    0.142E+02

 Order=           3
     NS sqrt iter    1 1.00000000   0.708E+00       0.001       58.720
     NS sqrt iter    2 1.00000000   0.326E+00       0.001       97.945
     NS sqrt iter    3 1.00000000   0.707E-01       0.001       97.844
     NS sqrt iter    4 1.00000000   0.142E-02       0.001       97.370
     NS sqrt iter    5 1.00000000   0.194E-07       0.001       50.702
     Symmetrizing Results
     Final NS sqrt iter    5 1.00000000   0.440E-08

     Est. extremal eigenvalues     -0.91724     1.53565  converged:  T
     TRS4 it   1 1.00000000   0.821E+00       0.000       16.128   0.100E-07
     TRS4 it   2 1.00000000   0.586E+00       0.001       32.256   0.100E-07
     TRS4 it   3 1.00000000   0.399E+00       0.001       32.256   0.100E-07
     TRS4 it   4 1.00000000   0.204E+00       0.001       32.256   0.100E-07
     TRS4 it   5 1.00000000   0.654E-01       0.001       32.256   0.100E-07
     TRS4 it   6 1.00000000   0.781E-02       0.001       32.256   0.100E-07
     TRS4 it   7 1.00000000   0.138E-03       0.001       32.256   0.100E-07
     TRS4 it   8 1.00000000   0.608E-07       0.001       32.256   0.100E-07
     Final TRS4 iteration    8 1.00000000   0.608E-07
     Chemical potential (mu):      -0.00786
 
 PAO| energy:  -7.6672429614344466      penalty:   1.7814769640227074E-005
 PAO|LS| adapt:  T F T
 PAO|LS| adapt: scan_steps:    0.0000000000000000        0.0000000000000000       0.48774178401774121     
 PAO|LS| adapt: energies:   -7.6723196808067540        0.0000000000000000       -7.6672429614344466     
 PAO| ======================= Iteration:         8 =============================

     Lanczos converged:  T threshold:   0.100E-02
     Est. extremal eigenvalues:    0.282E+01   0.188E+00
     Est. condition number :    0.150E+02

 Order=           3
     NS sqrt iter    1 1.00000000   0.716E+00       0.001       58.427
     NS sqrt iter    2 1.00000000   0.336E+00       0.001       97.240
     NS sqrt iter    3 1.00000000   0.777E-01       0.001       99.136
     NS sqrt iter    4 1.00000000   0.187E-02       0.001       97.622
     NS sqrt iter    5 1.00000000   0.430E-07       0.001       60.839
     Symmetrizing Results
     Final NS sqrt iter    5 1.00000000   0.410E-09

     Est. extremal eigenvalues     -0.91727     1.53625  converged:  T
     TRS4 it   1 1.00000000   0.819E+00       0.000       16.128   0.100E-07
     TRS4 it   2 1.00000000   0.586E+00       0.001       32.256   0.100E-07
     TRS4 it   3 1.00000000   0.398E+00       0.001       32.256   0.100E-07
     TRS4 it   4 1.00000000   0.202E+00       0.001       32.256   0.100E-07
     TRS4 it   5 1.00000000   0.647E-01       0.001       32.256   0.100E-07
     TRS4 it   6 1.00000000   0.784E-02       0.001       32.256   0.100E-07
     TRS4 it   7 1.00000000   0.145E-03       0.001       32.256   0.100E-07
     TRS4 it   8 1.00000000   0.698E-07       0.001       32.256   0.100E-07
     Final TRS4 iteration    8 1.00000000   0.698E-07
     Chemical potential (mu):      -0.00865
 
 PAO| energy:  -7.6904441304854547      penalty:   1.2979150125305398E-005
 PAO|LS| adapt:  T T T
 PAO|LS| adapt: scan_steps:    0.0000000000000000       0.24387089200887060       0.48774178401774121     
 PAO|LS| adapt: energies:   -7.6723196808067540       -7.6904441304854547       -7.6672429614344466     
 PAO|LS| adapt: suggested step_size:   0.22889151456868159     
 PAO|LS| adapt: predicted energy  -7.6905220878166984     
 PAO| ======================= Iteration:         9 =============================

     Lanczos converged:  T threshold:   0.100E-02
     Est. extremal eigenvalues:    0.282E+01   0.188E+00
     Est. condition number :    0.150E+02

 Order=           3
     NS sqrt iter    1 1.00000000   0.717E+00       0.001       58.413
     NS sqrt iter    2 1.00000000   0.337E+00       0.001       96.298
     NS sqrt iter    3 1.00000000   0.782E-01       0.001      100.254
     NS sqrt iter    4 1.00000000   0.190E-02       0.001      100.134
     NS sqrt iter    5 1.00000000   0.450E-07       0.001       61.453
     Symmetrizing Results
     Final NS sqrt iter    5 1.00000000   0.215E-08

     Est. extremal eigenvalues     -0.91722     1.53632  converged:  T
     TRS4 it   1 1.00000000   0.819E+00       0.000       16.128   0.100E-07
     TRS4 it   2 1.00000000   0.586E+00       0.001       32.256   0.100E-07
     TRS4 it   3 1.00000000   0.398E+00       0.001       32.256   0.100E-07
     TRS4 it   4 1.00000000   0.202E+00       0.001       32.256   0.100E-07
     TRS4 it   5 1.00000000   0.647E-01       0.001       32.256   0.100E-07
     TRS4 it   6 1.00000000   0.784E-02       0.001       32.256   0.100E-07
     TRS4 it   7 1.00000000   0.145E-03       0.001       32.256   0.100E-07
     TRS4 it   8 1.00000000   0.700E-07       0.001       32.256   0.100E-07
     Final TRS4 iteration    8 1.00000000   0.700E-07
     Chemical potential (mu):      -0.00867
 
 PAO| energy:  -7.6905415199042215      penalty:   1.2839343950140599E-005
 PAO|CG| trace_G_new    3.7046422609143113E-002
 PAO|CG| trace_G_prev   0.16073003754611268     
 PAO|CG| trace_G_mix   -1.2587291787614272E-003
 PAO|CG| trace_D   0.16073003754611268     
 PAO|CG| trace_D_Gnew   1.2587291787614272E-003
 PAO|CG| beta:   0.23831980862267252     
 PAO| norm of gradient:  0.19247447261687228     
 PAO| energy improvement:  -1.8221839097467551E-002
 PAO| step      9                   -7.690541520  0.120E-01  0.229E+00     0.056
 PAO|LS| adapt:  T F F
 PAO|LS| adapt: scan_steps:    0.0000000000000000        0.0000000000000000        0.0000000000000000     
 PAO|LS| adapt: energies:   -7.6905415199042215        0.0000000000000000        0.0000000000000000     
 PAO| ======================= Iteration:        10 =============================

     Lanczos converged:  T threshold:   0.100E-02
     Est. extremal eigenvalues:    0.278E+01   0.193E+00
     Est. condition number :    0.144E+02

 Order=           3
     NS sqrt iter    1 1.00000000   0.709E+00       0.001       57.906
     NS sqrt iter    2 1.00000000   0.329E+00       0.001       97.788
     NS sqrt iter    3 1.00000000   0.727E-01       0.017        6.429
     NS sqrt iter    4 1.00000000   0.154E-02       0.001       97.005
     NS sqrt iter    5 1.00000000   0.242E-07       0.001       53.354
     Symmetrizing Results
     Final NS sqrt iter    5 1.00000000   0.444E-08

     Est. extremal eigenvalues     -0.91815     1.53956  converged:  T
     TRS4 it   1 1.00000000   0.820E+00       0.000       16.128   0.100E-07
     TRS4 it   2 1.00000000   0.586E+00       0.001       32.256   0.100E-07
     TRS4 it   3 1.00000000   0.397E+00       0.001       32.256   0.100E-07
     TRS4 it   4 1.00000000   0.201E+00       0.001       32.256   0.100E-07
     TRS4 it   5 1.00000000   0.636E-01       0.001       32.256   0.100E-07
     TRS4 it   6 1.00000000   0.752E-02       0.001       32.256   0.100E-07
     TRS4 it   7 1.00000000   0.131E-03       0.001       32.256   0.100E-07
     TRS4 it   8 1.00000000   0.550E-07       0.001       32.256   0.100E-07
     Final TRS4 iteration    8 1.00000000   0.550E-07
     Chemical potential (mu):      -0.00607
 
 PAO| energy:  -7.6953861948941222      penalty:   1.3359101596449590E-005
 PAO|LS| adapt:  T T F
 PAO|LS| adapt: scan_steps:    0.0000000000000000       0.22889151456868159        0.0000000000000000     
 PAO|LS| adapt: energies:   -7.6905415199042215       -7.6953861948941222        0.0000000000000000     
 PAO| ======================= Iteration:        11 =============================

     Lanczos converged:  T threshold:   0.100E-02
     Est. extremal eigenvalues:    0.274E+01   0.199E+00
     Est. condition number :    0.138E+02

 Order=           3
     NS sqrt iter    1 1.00000000   0.701E+00       0.001       58.016
     NS sqrt iter    2 1.00000000   0.320E+00       0.017        6.429
     NS sqrt iter    3 1.00000000   0.675E-01       0.001       98.103
     NS sqrt iter    4 1.00000000   0.124E-02       0.001       97.770
     NS sqrt iter    5 1.00000000   0.122E-07       0.001       44.523
     Symmetrizing Results
     Final NS sqrt iter    5 1.00000000   0.343E-08

     Est. extremal eigenvalues     -0.91783     1.54502  converged:  T
     TRS4 it   1 1.00000000   0.823E+00       0.000       16.128   0.100E-07
     TRS4 it   2 1.00000000   0.587E+00       0.001       32.256   0.100E-07
     TRS4 it   3 1.00000000   0.398E+00       0.001       32.256   0.100E-07
     TRS4 it   4 1.00000000   0.200E+00       0.001       32.256   0.100E-07
     TRS4 it   5 1.00000000   0.627E-01       0.001       32.256   0.100E-07
     TRS4 it   6 1.00000000   0.725E-02       0.001       32.256   0.100E-07
     TRS4 it   7 1.00000000   0.119E-03       0.001       32.256   0.100E-07
     TRS4 it   8 1.00000000   0.438E-07       0.001       32.256   0.100E-07
     Final TRS4 iteration    8 1.00000000   0.438E-07
     Chemical potential (mu):      -0.00342
 
 PAO| energy:  -7.6933762132529226      penalty:   1.4525153827890493E-005
 PAO|LS| adapt:  T T T
 PAO|LS| adapt: scan_steps:    0.0000000000000000       0.22889151456868159       0.45778302913736318     
 PAO|LS| adapt: energies:   -7.6905415199042215       -7.6953861948941222       -7.6933762132529226     
 PAO|LS| adapt: suggested step_size:   0.27621972434202924     
 PAO|LS| adapt: predicted energy  -7.6955327282438875     
 PAO| ======================= Iteration:        12 =============================

     Lanczos converged:  T threshold:   0.100E-02
     Est. extremal eigenvalues:    0.277E+01   0.195E+00
     Est. condition number :    0.143E+02

 Order=           3
     NS sqrt iter    1 1.00000000   0.707E+00       0.001       57.277
     NS sqrt iter    2 1.00000000   0.327E+00       0.001       97.599
     NS sqrt iter    3 1.00000000   0.716E-01       0.001      101.562
     NS sqrt iter    4 1.00000000   0.147E-02       0.001       97.614
     NS sqrt iter    5 1.00000000   0.212E-07       0.001       50.146
     Symmetrizing Results
     Final NS sqrt iter    5 1.00000000   0.454E-08

     Est. extremal eigenvalues     -0.91818     1.54052  converged:  T
     TRS4 it   1 1.00000000   0.821E+00       0.000       16.128   0.100E-07
     TRS4 it   2 1.00000000   0.586E+00       0.001       32.256   0.100E-07
     TRS4 it   3 1.00000000   0.397E+00       0.001       32.256   0.100E-07
     TRS4 it   4 1.00000000   0.201E+00       0.001       32.256   0.100E-07
     TRS4 it   5 1.00000000   0.634E-01       0.001       32.256   0.100E-07
     TRS4 it   6 1.00000000   0.746E-02       0.001       32.256   0.100E-07
     TRS4 it   7 1.00000000   0.128E-03       0.001       32.256   0.100E-07
     TRS4 it   8 1.00000000   0.524E-07       0.001       32.256   0.100E-07
     Final TRS4 iteration    8 1.00000000   0.524E-07
     Chemical potential (mu):      -0.00552
 
 PAO| energy:  -7.6955186662809973      penalty:   1.3541114202739072E-005
 PAO|CG| trace_G_new    1.1800897967712656E-002
 PAO|CG| trace_G_prev    3.7046422609143113E-002
 PAO|CG| trace_G_mix   -4.4464470278967076E-004
 PAO|CG| trace_D    4.5575338858518562E-002
 PAO|CG| trace_D_Gnew   2.7139293966981100E-004
 PAO|CG| beta:   0.33054588832229398     
 PAO| norm of gradient:  0.10863193806479131     
 PAO| energy improvement:  -4.9771463767758206E-003
 PAO| step     12                   -7.695518666  0.679E-02  0.276E+00     0.089
 PAO|LS| adapt:  T F F
 PAO|LS| adapt: scan_steps:    0.0000000000000000        0.0000000000000000        0.0000000000000000     
 PAO|LS| adapt: energies:   -7.6955186662809973        0.0000000000000000        0.0000000000000000     
 PAO| ======================= Iteration:        13 =============================

     Lanczos converged:  T threshold:   0.100E-02
     Est. extremal eigenvalues:    0.274E+01   0.199E+00
     Est. condition number :    0.138E+02

 Order=           3
     NS sqrt iter    1 1.00000000   0.700E+00       0.001       57.502
     NS sqrt iter    2 1.00000000   0.320E+00       0.001       96.576
     NS sqrt iter    3 1.00000000   0.677E-01       0.001       97.786
     NS sqrt iter    4 1.00000000   0.125E-02       0.001       98.095
     NS sqrt iter    5 1.00000000   0.124E-07       0.001       45.151
     Symmetrizing Results
     Final NS sqrt iter    5 1.00000000   0.341E-08

     Est. extremal eigenvalues     -0.91873     1.53849  converged:  T
     TRS4 it   1 1.00000000   0.821E+00       0.000       16.128   0.100E-07
     TRS4 it   2 1.00000000   0.584E+00       0.001       32.256   0.100E-07
     TRS4 it   3 1.00000000   0.394E+00       0.001       32.256   0.100E-07
     TRS4 it   4 1.00000000   0.197E+00       0.001       32.256   0.100E-07
     TRS4 it   5 1.00000000   0.604E-01       0.001       32.256   0.100E-07
     TRS4 it   6 1.00000000   0.672E-02       0.001       32.256   0.100E-07
     TRS4 it   7 1.00000000   0.102E-03       0.001       32.256   0.100E-07
     TRS4 it   8 1.00000000   0.322E-07       0.001       32.256   0.100E-07
     Final TRS4 iteration    8 1.00000000   0.322E-07
     Chemical potential (mu):      -0.00164
 
 PAO| energy:  -7.6975760238079003      penalty:   1.3797774207337005E-005
 PAO|LS| adapt:  T T F
 PAO|LS| adapt: scan_steps:    0.0000000000000000       0.27621972434202924        0.0000000000000000     
 PAO|LS| adapt: energies:   -7.6955186662809973       -7.6975760238079003        0.0000000000000000     
 PAO| ======================= Iteration:        14 =============================

     Lanczos converged:  T threshold:   0.100E-02
     Est. extremal eigenvalues:    0.271E+01   0.203E+00
     Est. condition number :    0.133E+02

 Order=           3
     NS sqrt iter    1 1.00000000   0.693E+00       0.001       57.100
     NS sqrt iter    2 1.00000000   0.313E+00       0.001       97.260
     NS sqrt iter    3 1.00000000   0.639E-01       0.001       97.696
     NS sqrt iter    4 1.00000000   0.105E-02       0.001       97.901
     NS sqrt iter    5 1.00000000   0.433E-08       0.001       35.779
     Symmetrizing Results
     Final NS sqrt iter    5 1.00000000   0.217E-08

     Est. extremal eigenvalues     -0.91877     1.53681  converged:  T
     TRS4 it   1 1.00000000   0.822E+00       0.000       16.128   0.100E-07
     TRS4 it   2 1.00000000   0.582E+00       0.001       32.256   0.100E-07
     TRS4 it   3 1.00000000   0.390E+00       0.001       32.256   0.100E-07
     TRS4 it   4 1.00000000   0.192E+00       0.001       32.256   0.100E-07
     TRS4 it   5 1.00000000   0.575E-01       0.001       32.256   0.100E-07
     TRS4 it   6 1.00000000   0.606E-02       0.001       32.256   0.100E-07
     TRS4 it   7 1.00000000   0.814E-04       0.001       32.256   0.100E-07
     TRS4 it   8 1.00000000   0.200E-07       0.001       32.256   0.100E-07
     Final TRS4 iteration    8 1.00000000   0.200E-07
     Chemical potential (mu):       0.00210
 
 PAO| energy:  -7.6973199243168988      penalty:   1.4454089863449216E-005
 PAO|LS| adapt:  T T T
 PAO|LS| adapt: scan_steps:    0.0000000000000000       0.27621972434202924       0.55243944868405848     
 PAO|LS| adapt: energies:   -7.6955186662809973       -7.6975760238079003       -7.6973199243168988     
 PAO|LS| adapt: suggested step_size:   0.38375208701290708     
 PAO|LS| adapt: predicted energy  -7.6977513312853469     
 PAO| ======================= Iteration:        15 =============================

     Lanczos converged:  T threshold:   0.100E-02
     Est. extremal eigenvalues:    0.273E+01   0.200E+00
     Est. condition number :    0.136E+02

 Order=           3
     NS sqrt iter    1 1.00000000   0.697E+00       0.001       56.277
     NS sqrt iter    2 1.00000000   0.317E+00       0.001       97.363
     NS sqrt iter    3 1.00000000   0.662E-01       0.001       97.707
     NS sqrt iter    4 1.00000000   0.117E-02       0.001       96.773
     NS sqrt iter    5 1.00000000   0.959E-08       0.001       41.276
     Symmetrizing Results
     Final NS sqrt iter    5 1.00000000   0.556E-08

     Est. extremal eigenvalues     -0.91880     1.53780  converged:  T
     TRS4 it   1 1.00000000   0.822E+00       0.000       16.128   0.100E-07
     TRS4 it   2 1.00000000   0.583E+00       0.001       32.256   0.100E-07
     TRS4 it   3 1.00000000   0.393E+00       0.001       32.256   0.100E-07
     TRS4 it   4 1.00000000   0.195E+00       0.001       32.256   0.100E-07
     TRS4 it   5 1.00000000   0.592E-01       0.001       32.256   0.100E-07
     TRS4 it   6 1.00000000   0.645E-02       0.001       32.256   0.100E-07
     TRS4 it   7 1.00000000   0.933E-04       0.001       32.256   0.100E-07
     TRS4 it   8 1.00000000   0.267E-07       0.001       32.256   0.100E-07
     Final TRS4 iteration    8 1.00000000   0.267E-07
     Chemical potential (mu):      -0.00017
 
 PAO| energy:  -7.6977478581373875      penalty:   1.4002467161231793E-005
 PAO|CG| trace_G_new    2.2823157679610004E-003
 PAO|CG| trace_G_prev    1.1800897967712656E-002
 PAO|CG| trace_G_mix    1.0399816000288134E-004
 PAO|CG| trace_D    1.6601070479807009E-002
 PAO|CG| trace_D_Gnew   2.0807149540840610E-005
 PAO|CG| beta:   0.18458914007374796     
 PAO| norm of gradient:   4.7773588602500860E-002
 PAO| energy improvement:  -2.2291918563901447E-003
 PAO| step     15                   -7.697747858  0.299E-02  0.384E+00     0.057
 PAO|LS| adapt:  T F F
 PAO|LS| adapt: scan_steps:    0.0000000000000000        0.0000000000000000        0.0000000000000000     
 PAO|LS| adapt: energies:   -7.6977478581373875        0.0000000000000000        0.0000000000000000     
 PAO| ======================= Iteration:        16 =============================

     Lanczos converged:  T threshold:   0.100E-02
     Est. extremal eigenvalues:    0.272E+01   0.201E+00
     Est. condition number :    0.135E+02

 Order=           3
     NS sqrt iter    1 1.00000000   0.695E+00       0.001       57.645
     NS sqrt iter    2 1.00000000   0.316E+00       0.001       96.224
     NS sqrt iter    3 1.00000000   0.656E-01       0.001       97.176
     NS sqrt iter    4 1.00000000   0.113E-02       0.001       97.398
     NS sqrt iter    5 1.00000000   0.814E-08       0.001       40.162
     Symmetrizing Results
     Final NS sqrt iter    5 1.00000000   0.500E-08

     Est. extremal eigenvalues     -0.91883     1.53726  converged:  T
     TRS4 it   1 1.00000000   0.822E+00       0.000       16.128   0.100E-07
     TRS4 it   2 1.00000000   0.582E+00       0.001       32.256   0.100E-07
     TRS4 it   3 1.00000000   0.391E+00       0.001       32.256   0.100E-07
     TRS4 it   4 1.00000000   0.193E+00       0.001       32.256   0.100E-07
     TRS4 it   5 1.00000000   0.581E-01       0.001       32.256   0.100E-07
     TRS4 it   6 1.00000000   0.622E-02       0.001       32.256   0.100E-07
     TRS4 it   7 1.00000000   0.873E-04       0.001       32.256   0.100E-07
     TRS4 it   8 1.00000000   0.237E-07       0.001       32.256   0.100E-07
     Final TRS4 iteration    8 1.00000000   0.237E-07
     Chemical potential (mu):       0.00071
 
 PAO| energy:  -7.6978331971933089      penalty:   1.3770257091299630E-005
 PAO|LS| adapt:  T T F
 PAO|LS| adapt: scan_steps:    0.0000000000000000       0.38375208701290708        0.0000000000000000     
 PAO|LS| adapt: energies:   -7.6977478581373875       -7.6978331971933089        0.0000000000000000     
 PAO| ======================= Iteration:        17 =============================

     Lanczos converged:  T threshold:   0.100E-02
     Est. extremal eigenvalues:    0.271E+01   0.202E+00
     Est. condition number :    0.134E+02

 Order=           3
     NS sqrt iter    1 1.00000000   0.694E+00       0.001       58.434
     NS sqrt iter    2 1.00000000   0.315E+00       0.001       98.055
     NS sqrt iter    3 1.00000000   0.650E-01       0.001       97.409
     NS sqrt iter    4 1.00000000   0.110E-02       0.001       97.618
     NS sqrt iter    5 1.00000000   0.560E-08       0.001       36.762
     Symmetrizing Results
     Final NS sqrt iter    5 1.00000000   0.534E-08

     Est. extremal eigenvalues     -0.91871     1.53681  converged:  T
     TRS4 it   1 1.00000000   0.822E+00       0.000       16.128   0.100E-07
     TRS4 it   2 1.00000000   0.582E+00       0.001       32.256   0.100E-07
     TRS4 it   3 1.00000000   0.390E+00       0.001       32.256   0.100E-07
     TRS4 it   4 1.00000000   0.191E+00       0.001       32.256   0.100E-07
     TRS4 it   5 1.00000000   0.571E-01       0.001       32.256   0.100E-07
     TRS4 it   6 1.00000000   0.600E-02       0.001       32.256   0.100E-07
     TRS4 it   7 1.00000000   0.818E-04       0.001       32.256   0.100E-07
     TRS4 it   8 1.00000000   0.210E-07       0.001       32.256   0.100E-07
     Final TRS4 iteration    8 1.00000000   0.210E-07
     Chemical potential (mu):       0.00156
 
 PAO| energy:  -7.6963332827383333      penalty:   1.3641370304272747E-005
 PAO|LS| adapt:  T T T
 PAO|LS| adapt: scan_steps:    0.0000000000000000       0.38375208701290708       0.76750417402581417     
 PAO|LS| adapt: energies:   -7.6977478581373875       -7.6978331971933089       -7.6963332827383333     
 PAO|LS| adapt: suggested step_size:   0.21253459470249236     
 PAO|LS| adapt: predicted energy  -7.6979909813856997     
 PAO| ======================= Iteration:        18 =============================

     Lanczos converged:  T threshold:   0.100E-02
     Est. extremal eigenvalues:    0.272E+01   0.201E+00
     Est. condition number :    0.135E+02

 Order=           3
     NS sqrt iter    1 1.00000000   0.696E+00       0.001       59.493
     NS sqrt iter    2 1.00000000   0.317E+00       0.001       99.867
     NS sqrt iter    3 1.00000000   0.658E-01       0.001       98.291
     NS sqrt iter    4 1.00000000   0.115E-02       0.001       96.820
     NS sqrt iter    5 1.00000000   0.857E-08       0.001       40.433
     Symmetrizing Results
     Final NS sqrt iter    5 1.00000000   0.570E-08

     Est. extremal eigenvalues     -0.91883     1.53749  converged:  T
     TRS4 it   1 1.00000000   0.822E+00       0.000       16.128   0.100E-07
     TRS4 it   2 1.00000000   0.583E+00       0.001       32.256   0.100E-07
     TRS4 it   3 1.00000000   0.392E+00       0.001       32.256   0.100E-07
     TRS4 it   4 1.00000000   0.194E+00       0.001       32.256   0.100E-07
     TRS4 it   5 1.00000000   0.586E-01       0.001       32.256   0.100E-07
     TRS4 it   6 1.00000000   0.632E-02       0.001       32.256   0.100E-07
     TRS4 it   7 1.00000000   0.900E-04       0.001       32.256   0.100E-07
     TRS4 it   8 1.00000000   0.250E-07       0.001       32.256   0.100E-07
     Final TRS4 iteration    8 1.00000000   0.250E-07
     Chemical potential (mu):       0.00032
 
 PAO| energy:  -7.6979903754627559      penalty:   1.3861305570888112E-005
 PAO|CG| trace_G_new    6.9016530723516934E-004
 PAO|CG| trace_G_prev    2.2823157679610004E-003
 PAO|CG| trace_G_mix    8.2497876282824234E-007
 PAO|CG| trace_D    2.8402849954090076E-003
 PAO|CG| trace_D_Gnew  -1.8597455931244349E-006
 PAO|CG| beta:   0.30203547561176924     
 PAO| norm of gradient:   2.6270997454135032E-002
 PAO| energy improvement:  -2.4251732536839654E-004
 PAO| step     18                   -7.697990375  0.164E-02  0.213E+00     0.056
 PAO|LS| adapt:  T F F
 PAO|LS| adapt: scan_steps:    0.0000000000000000        0.0000000000000000        0.0000000000000000     
 PAO|LS| adapt: energies:   -7.6979903754627559        0.0000000000000000        0.0000000000000000     
 PAO| ======================= Iteration:        19 =============================

     Lanczos converged:  T threshold:   0.100E-02
     Est. extremal eigenvalues:    0.272E+01   0.201E+00
     Est. condition number :    0.135E+02

 Order=           3
     NS sqrt iter    1 1.00000000   0.696E+00       0.001       57.527
     NS sqrt iter    2 1.00000000   0.317E+00       0.001       99.037
     NS sqrt iter    3 1.00000000   0.660E-01       0.001       97.970
     NS sqrt iter    4 1.00000000   0.115E-02       0.001       99.086
     NS sqrt iter    5 1.00000000   0.857E-08       0.001       40.796
     Symmetrizing Results
     Final NS sqrt iter    5 1.00000000   0.568E-08

     Est. extremal eigenvalues     -0.91884     1.53775  converged:  T
     TRS4 it   1 1.00000000   0.822E+00       0.000       16.128   0.100E-07
     TRS4 it   2 1.00000000   0.583E+00       0.001       32.256   0.100E-07
     TRS4 it   3 1.00000000   0.392E+00       0.001       32.256   0.100E-07
     TRS4 it   4 1.00000000   0.194E+00       0.001       32.256   0.100E-07
     TRS4 it   5 1.00000000   0.585E-01       0.001       32.256   0.100E-07
     TRS4 it   6 1.00000000   0.631E-02       0.001       32.256   0.100E-07
     TRS4 it   7 1.00000000   0.900E-04       0.001       32.256   0.100E-07
     TRS4 it   8 1.00000000   0.252E-07       0.001       32.256   0.100E-07
     Final TRS4 iteration    8 1.00000000   0.252E-07
     Chemical potential (mu):       0.00024
 
 PAO| energy:  -7.6981025631004547      penalty:   1.3588710991525762E-005
 PAO|LS| adapt:  T T F
 PAO|LS| adapt: scan_steps:    0.0000000000000000       0.21253459470249236        0.0000000000000000     
 PAO|LS| adapt: energies:   -7.6979903754627559       -7.6981025631004547        0.0000000000000000     
 PAO| ======================= Iteration:        20 =============================

     Lanczos converged:  T threshold:   0.100E-02
     Est. extremal eigenvalues:    0.272E+01   0.201E+00
     Est. condition number :    0.135E+02

 Order=           3
     NS sqrt iter    1 1.00000000   0.696E+00       0.001       57.065
     NS sqrt iter    2 1.00000000   0.317E+00       0.001       98.082
     NS sqrt iter    3 1.00000000   0.661E-01       0.001       98.368
     NS sqrt iter    4 1.00000000   0.116E-02       0.001      100.206
     NS sqrt iter    5 1.00000000   0.858E-08       0.001       41.092
     Symmetrizing Results
     Final NS sqrt iter    5 1.00000000   0.567E-08

     Est. extremal eigenvalues     -0.91884     1.53801  converged:  T
     TRS4 it   1 1.00000000   0.822E+00       0.000       16.128   0.100E-07
     TRS4 it   2 1.00000000   0.583E+00       0.001       32.256   0.100E-07
     TRS4 it   3 1.00000000   0.391E+00       0.001       32.256   0.100E-07
     TRS4 it   4 1.00000000   0.194E+00       0.001       32.256   0.100E-07
     TRS4 it   5 1.00000000   0.584E-01       0.001       32.256   0.100E-07
     TRS4 it   6 1.00000000   0.630E-02       0.001       32.256   0.100E-07
     TRS4 it   7 1.00000000   0.901E-04       0.001       32.256   0.100E-07
     TRS4 it   8 1.00000000   0.255E-07       0.001       32.256   0.100E-07
     Final TRS4 iteration    8 1.00000000   0.255E-07
     Chemical potential (mu):       0.00016
 
 PAO| energy:  -7.6981450572518906      penalty:   1.3327222149113030E-005
 PAO|LS| adapt:  T T F
 PAO|LS| adapt: scan_steps:    0.0000000000000000       0.42506918940498473        0.0000000000000000     
 PAO|LS| adapt: energies:   -7.6979903754627559       -7.6981450572518906        0.0000000000000000     
 PAO| ======================= Iteration:        21 =============================

     Lanczos converged:  T threshold:   0.100E-02
     Est. extremal eigenvalues:    0.272E+01   0.201E+00
     Est. condition number :    0.135E+02

 Order=           3
     NS sqrt iter    1 1.00000000   0.695E+00       0.001       59.178
     NS sqrt iter    2 1.00000000   0.317E+00       0.001       96.802
     NS sqrt iter    3 1.00000000   0.665E-01       0.001       99.406
     NS sqrt iter    4 1.00000000   0.117E-02       0.001       98.554
     NS sqrt iter    5 1.00000000   0.862E-08       0.001       40.468
     Symmetrizing Results
     Final NS sqrt iter    5 1.00000000   0.565E-08

     Est. extremal eigenvalues     -0.91884     1.53853  converged:  T
     TRS4 it   1 1.00000000   0.822E+00       0.000       16.128   0.100E-07
     TRS4 it   2 1.00000000   0.583E+00       0.001       32.256   0.100E-07
     TRS4 it   3 1.00000000   0.391E+00       0.001       32.256   0.100E-07
     TRS4 it   4 1.00000000   0.193E+00       0.001       32.256   0.100E-07
     TRS4 it   5 1.00000000   0.582E-01       0.001       32.256   0.100E-07
     TRS4 it   6 1.00000000   0.628E-02       0.001       32.256   0.100E-07
     TRS4 it   7 1.00000000   0.904E-04       0.001       32.256   0.100E-07
     TRS4 it   8 1.00000000   0.260E-07       0.001       32.256   0.100E-07
     Final TRS4 iteration    8 1.00000000   0.260E-07
     Chemical potential (mu):      -0.00002
 
 PAO| energy:  -7.6980181877590343      penalty:   1.2837114189980465E-005
 PAO|LS| Need extra step
 PAO|LS| adapt:  T T T
 PAO|LS| adapt: scan_steps:    0.0000000000000000       0.42506918940498473       0.85013837880996945     
 PAO|LS| adapt: energies:   -7.6979903754627559       -7.6981450572518906       -7.6980181877590343     
 PAO|LS| adapt: suggested step_size:   0.44606385536952897     
 PAO|LS| adapt: predicted energy  -7.6981454006723755     
 PAO| ======================= Iteration:        22 =============================

     Lanczos converged:  T threshold:   0.100E-02
     Est. extremal eigenvalues:    0.272E+01   0.201E+00
     Est. condition number :    0.135E+02

 Order=           3
     NS sqrt iter    1 1.00000000   0.696E+00       0.001       58.862
     NS sqrt iter    2 1.00000000   0.317E+00       0.001       95.890
     NS sqrt iter    3 1.00000000   0.661E-01       0.001       97.491
     NS sqrt iter    4 1.00000000   0.116E-02       0.001       97.865
     NS sqrt iter    5 1.00000000   0.858E-08       0.001       40.791
     Symmetrizing Results
     Final NS sqrt iter    5 1.00000000   0.567E-08

     Est. extremal eigenvalues     -0.91884     1.53803  converged:  T
     TRS4 it   1 1.00000000   0.822E+00       0.000       16.128   0.100E-07
     TRS4 it   2 1.00000000   0.583E+00       0.001       32.256   0.100E-07
     TRS4 it   3 1.00000000   0.391E+00       0.001       32.256   0.100E-07
     TRS4 it   4 1.00000000   0.194E+00       0.001       32.256   0.100E-07
     TRS4 it   5 1.00000000   0.584E-01       0.001       32.256   0.100E-07
     TRS4 it   6 1.00000000   0.630E-02       0.001       32.256   0.100E-07
     TRS4 it   7 1.00000000   0.902E-04       0.001       32.256   0.100E-07
     TRS4 it   8 1.00000000   0.255E-07       0.001       32.256   0.100E-07
     Final TRS4 iteration    8 1.00000000   0.255E-07
     Chemical potential (mu):       0.00015
 
 PAO| energy:  -7.6981454462996872      penalty:   1.3301988848080107E-005
 PAO|CG| trace_G_new    1.9511690498430910E-004
 PAO|CG| trace_G_prev    6.9016530723516934E-004
 PAO|CG| trace_G_mix    4.4730394411223806E-006
 PAO|CG| trace_D    9.5039494137255523E-004
 PAO|CG| trace_D_Gnew  -2.1632831691524875E-006
 PAO|CG| beta:   0.27622927948510467     
 PAO| norm of gradient:   1.3968425286492000E-002
 PAO| energy improvement:  -1.5507083693133694E-004
 PAO| step     22                   -7.698145446  0.873E-03  0.446E+00     0.122
 PAO|LS| adapt:  T F F
 PAO|LS| adapt: scan_steps:    0.0000000000000000        0.0000000000000000        0.0000000000000000     
 PAO|LS| adapt: energies:   -7.6981454462996872        0.0000000000000000        0.0000000000000000     
 PAO| ======================= Iteration:        23 =============================

     Lanczos converged:  T threshold:   0.100E-02
     Est. extremal eigenvalues:    0.272E+01   0.201E+00
     Est. condition number :    0.135E+02

 Order=           3
     NS sqrt iter    1 1.00000000   0.696E+00       0.001       58.141
     NS sqrt iter    2 1.00000000   0.317E+00       0.001       98.019
     NS sqrt iter    3 1.00000000   0.661E-01       0.001       98.429
     NS sqrt iter    4 1.00000000   0.116E-02       0.001       98.675
     NS sqrt iter    5 1.00000000   0.854E-08       0.001       40.652
     Symmetrizing Results
     Final NS sqrt iter    5 1.00000000   0.564E-08

     Est. extremal eigenvalues     -0.91884     1.53819  converged:  T
     TRS4 it   1 1.00000000   0.822E+00       0.000       16.128   0.100E-07
     TRS4 it   2 1.00000000   0.583E+00       0.001       32.256   0.100E-07
     TRS4 it   3 1.00000000   0.392E+00       0.001       32.256   0.100E-07
     TRS4 it   4 1.00000000   0.194E+00       0.001       32.256   0.100E-07
     TRS4 it   5 1.00000000   0.585E-01       0.001       32.256   0.100E-07
     TRS4 it   6 1.00000000   0.633E-02       0.001       32.256   0.100E-07
     TRS4 it   7 1.00000000   0.911E-04       0.001       32.256   0.100E-07
     TRS4 it   8 1.00000000   0.261E-07       0.001       32.256   0.100E-07
     Final TRS4 iteration    8 1.00000000   0.261E-07
     Chemical potential (mu):      -0.00001
 
 PAO| energy:  -7.6981893171671123      penalty:   1.2682561272496284E-005
 PAO|LS| adapt:  T T F
 PAO|LS| adapt: scan_steps:    0.0000000000000000       0.44606385536952897        0.0000000000000000     
 PAO|LS| adapt: energies:   -7.6981454462996872       -7.6981893171671123        0.0000000000000000     
 PAO| ======================= Iteration:        24 =============================

     Lanczos converged:  T threshold:   0.100E-02
     Est. extremal eigenvalues:    0.272E+01   0.201E+00
     Est. condition number :    0.135E+02

 Order=           3
     NS sqrt iter    1 1.00000000   0.695E+00       0.001       59.241
     NS sqrt iter    2 1.00000000   0.317E+00       0.001       99.928
     NS sqrt iter    3 1.00000000   0.661E-01       0.001       98.389
     NS sqrt iter    4 1.00000000   0.115E-02       0.001       99.033
     NS sqrt iter    5 1.00000000   0.850E-08       0.001       40.271
     Symmetrizing Results
     Final NS sqrt iter    5 1.00000000   0.561E-08

     Est. extremal eigenvalues     -0.91884     1.53835  converged:  T
     TRS4 it   1 1.00000000   0.822E+00       0.000       16.128   0.100E-07
     TRS4 it   2 1.00000000   0.583E+00       0.001       32.256   0.100E-07
     TRS4 it   3 1.00000000   0.392E+00       0.001       32.256   0.100E-07
     TRS4 it   4 1.00000000   0.194E+00       0.001       32.256   0.100E-07
     TRS4 it   5 1.00000000   0.587E-01       0.001       32.256   0.100E-07
     TRS4 it   6 1.00000000   0.636E-02       0.001       32.256   0.100E-07
     TRS4 it   7 1.00000000   0.921E-04       0.001       32.256   0.100E-07
     TRS4 it   8 1.00000000   0.266E-07       0.001       32.256   0.100E-07
     Final TRS4 iteration    8 1.00000000   0.266E-07
     Chemical potential (mu):      -0.00018
 
 PAO| energy:  -7.6981456921823552      penalty:   1.2086927794688585E-005
 PAO|LS| adapt:  T T T
 PAO|LS| adapt: scan_steps:    0.0000000000000000       0.44606385536952897       0.89212771073905794     
 PAO|LS| adapt: energies:   -7.6981454462996872       -7.6981893171671123       -7.6981456921823552     
 PAO|LS| adapt: suggested step_size:   0.44669062434270329     
 PAO|LS| adapt: predicted energy  -7.6981893172534859     
 PAO| ======================= Iteration:        25 =============================

     Lanczos converged:  T threshold:   0.100E-02
     Est. extremal eigenvalues:    0.272E+01   0.201E+00
     Est. condition number :    0.135E+02

 Order=           3
     NS sqrt iter    1 1.00000000   0.696E+00       0.001       57.982
     NS sqrt iter    2 1.00000000   0.317E+00       0.001       97.513
     NS sqrt iter    3 1.00000000   0.661E-01       0.001       98.377
     NS sqrt iter    4 1.00000000   0.116E-02       0.001       98.425
     NS sqrt iter    5 1.00000000   0.854E-08       0.001       40.506
     Symmetrizing Results
     Final NS sqrt iter    5 1.00000000   0.564E-08

     Est. extremal eigenvalues     -0.91884     1.53819  converged:  T
     TRS4 it   1 1.00000000   0.822E+00       0.000       16.128   0.100E-07
     TRS4 it   2 1.00000000   0.583E+00       0.001       32.256   0.100E-07
     TRS4 it   3 1.00000000   0.392E+00       0.001       32.256   0.100E-07
     TRS4 it   4 1.00000000   0.194E+00       0.001       32.256   0.100E-07
     TRS4 it   5 1.00000000   0.585E-01       0.001       32.256   0.100E-07
     TRS4 it   6 1.00000000   0.633E-02       0.001       32.256   0.100E-07
     TRS4 it   7 1.00000000   0.911E-04       0.001       32.256   0.100E-07
     TRS4 it   8 1.00000000   0.261E-07       0.001       32.256   0.100E-07
     Final TRS4 iteration    8 1.00000000   0.261E-07
     Chemical potential (mu):      -0.00001
 
 PAO| energy:  -7.6981893174770208      penalty:   1.2681707748560305E-005
 PAO|CG| trace_G_new    4.0255280228527849E-005
 PAO|CG| trace_G_prev    1.9511690498430910E-004
 PAO|CG| trace_G_mix    5.0365241119226991E-007
 PAO|CG| trace_D    2.6882964844863707E-004
 PAO|CG| trace_D_Gnew  -3.5867841525158806E-007
 PAO|CG| beta:   0.20373236148109425     
 PAO| norm of gradient:   6.3447048968827422E-003
 PAO| energy improvement:  -4.3871177333620892E-005
 PAO| step     25                   -7.698189317  0.397E-03  0.447E+00     0.072
 PAO|LS| adapt:  T F F
 PAO|LS| adapt: scan_steps:    0.0000000000000000        0.0000000000000000        0.0000000000000000     
 PAO|LS| adapt: energies:   -7.6981893174770208        0.0000000000000000        0.0000000000000000     
 PAO| ======================= Iteration:        26 =============================

     Lanczos converged:  T threshold:   0.100E-02
     Est. extremal eigenvalues:    0.272E+01   0.201E+00
     Est. condition number :    0.135E+02

 Order=           3
     NS sqrt iter    1 1.00000000   0.695E+00       0.001       57.725
     NS sqrt iter    2 1.00000000   0.317E+00       0.001       97.503
     NS sqrt iter    3 1.00000000   0.660E-01       0.001       98.183
     NS sqrt iter    4 1.00000000   0.115E-02       0.001      101.504
     NS sqrt iter    5 1.00000000   0.853E-08       0.001       41.470
     Symmetrizing Results
     Final NS sqrt iter    5 1.00000000   0.564E-08

     Est. extremal eigenvalues     -0.91884     1.53789  converged:  T
     TRS4 it   1 1.00000000   0.822E+00       0.000       16.128   0.100E-07
     TRS4 it   2 1.00000000   0.583E+00       0.001       32.256   0.100E-07
     TRS4 it   3 1.00000000   0.391E+00       0.001       32.256   0.100E-07
     TRS4 it   4 1.00000000   0.194E+00       0.001       32.256   0.100E-07
     TRS4 it   5 1.00000000   0.584E-01       0.001       32.256   0.100E-07
     TRS4 it   6 1.00000000   0.630E-02       0.001       32.256   0.100E-07
     TRS4 it   7 1.00000000   0.901E-04       0.001       32.256   0.100E-07
     TRS4 it   8 1.00000000   0.255E-07       0.001       32.256   0.100E-07
     Final TRS4 iteration    8 1.00000000   0.255E-07
     Chemical potential (mu):       0.00015
 
 PAO| energy:  -7.6981932872905290      penalty:   1.2103870173745625E-005
 PAO|LS| adapt:  T T F
 PAO|LS| adapt: scan_steps:    0.0000000000000000       0.44669062434270329        0.0000000000000000     
 PAO|LS| adapt: energies:   -7.6981893174770208       -7.6981932872905290        0.0000000000000000     
 PAO| ======================= Iteration:        27 =============================

     Lanczos converged:  T threshold:   0.100E-02
     Est. extremal eigenvalues:    0.272E+01   0.201E+00
     Est. condition number :    0.135E+02

 Order=           3
     NS sqrt iter    1 1.00000000   0.695E+00       0.001       59.942
     NS sqrt iter    2 1.00000000   0.317E+00       0.001       97.034
     NS sqrt iter    3 1.00000000   0.659E-01       0.001       98.588
     NS sqrt iter    4 1.00000000   0.115E-02       0.001       98.934
     NS sqrt iter    5 1.00000000   0.852E-08       0.001       40.809
     Symmetrizing Results
     Final NS sqrt iter    5 1.00000000   0.564E-08

     Est. extremal eigenvalues     -0.91884     1.53760  converged:  T
     TRS4 it   1 1.00000000   0.822E+00       0.000       16.128   0.100E-07
     TRS4 it   2 1.00000000   0.583E+00       0.001       32.256   0.100E-07
     TRS4 it   3 1.00000000   0.391E+00       0.001       32.256   0.100E-07
     TRS4 it   4 1.00000000   0.193E+00       0.001       32.256   0.100E-07
     TRS4 it   5 1.00000000   0.583E-01       0.001       32.256   0.100E-07
     TRS4 it   6 1.00000000   0.627E-02       0.001       32.256   0.100E-07
     TRS4 it   7 1.00000000   0.892E-04       0.001       32.256   0.100E-07
     TRS4 it   8 1.00000000   0.249E-07       0.001       32.256   0.100E-07
     Final TRS4 iteration    8 1.00000000   0.249E-07
     Chemical potential (mu):       0.00031
 
 PAO| energy:  -7.6981691387618083      penalty:   1.1541280134491315E-005
 PAO|LS| adapt:  T T T
 PAO|LS| adapt: scan_steps:    0.0000000000000000       0.44669062434270329       0.89338124868540658     
 PAO|LS| adapt: energies:   -7.6981893174770208       -7.6981932872905290       -7.6981691387618083     
 PAO|LS| adapt: suggested step_size:   0.28641014224012112     
 PAO|LS| adapt: predicted energy  -7.6981950974103448     
 PAO| ======================= Iteration:        28 =============================

     Lanczos converged:  T threshold:   0.100E-02
     Est. extremal eigenvalues:    0.272E+01   0.201E+00
     Est. condition number :    0.135E+02

 Order=           3
     NS sqrt iter    1 1.00000000   0.695E+00       0.001       59.416
     NS sqrt iter    2 1.00000000   0.317E+00       0.001       99.298
     NS sqrt iter    3 1.00000000   0.660E-01       0.001       98.835
     NS sqrt iter    4 1.00000000   0.115E-02       0.001       97.653
     NS sqrt iter    5 1.00000000   0.853E-08       0.001       40.576
     Symmetrizing Results
     Final NS sqrt iter    5 1.00000000   0.564E-08

     Est. extremal eigenvalues     -0.91884     1.53800  converged:  T
     TRS4 it   1 1.00000000   0.822E+00       0.000       16.128   0.100E-07
     TRS4 it   2 1.00000000   0.583E+00       0.001       32.256   0.100E-07
     TRS4 it   3 1.00000000   0.391E+00       0.001       32.256   0.100E-07
     TRS4 it   4 1.00000000   0.194E+00       0.001       32.256   0.100E-07
     TRS4 it   5 1.00000000   0.585E-01       0.001       32.256   0.100E-07
     TRS4 it   6 1.00000000   0.631E-02       0.001       32.256   0.100E-07
     TRS4 it   7 1.00000000   0.905E-04       0.001       32.256   0.100E-07
     TRS4 it   8 1.00000000   0.257E-07       0.001       32.256   0.100E-07
     Final TRS4 iteration    8 1.00000000   0.257E-07
     Chemical potential (mu):       0.00009
 
 PAO| energy:  -7.6981950952015348      penalty:   1.2309448106999627E-005
 PAO|CG| trace_G_new    3.2248153342333548E-005
 PAO|CG| trace_G_prev    4.0255280228527849E-005
 PAO|CG| trace_G_mix   -1.3287890695744661E-008
 PAO|CG| trace_D    5.1559707674907253E-005
 PAO|CG| trace_D_Gnew  -8.5630064886194960E-009
 PAO|CG| beta:   0.80142135515843382     
 PAO| norm of gradient:   5.6787457543311052E-003
 PAO| energy improvement:  -5.7777245139334354E-006
 PAO| step     28                   -7.698195095  0.355E-03  0.286E+00     0.056
 PAO|LS| adapt:  T F F
 PAO|LS| adapt: scan_steps:    0.0000000000000000        0.0000000000000000        0.0000000000000000     
 PAO|LS| adapt: energies:   -7.6981950952015348        0.0000000000000000        0.0000000000000000     
 PAO| ======================= Iteration:        29 =============================

     Lanczos converged:  T threshold:   0.100E-02
     Est. extremal eigenvalues:    0.272E+01   0.201E+00
     Est. condition number :    0.135E+02

 Order=           3
     NS sqrt iter    1 1.00000000   0.695E+00       0.001       58.394
     NS sqrt iter    2 1.00000000   0.317E+00       0.001       98.884
     NS sqrt iter    3 1.00000000   0.659E-01       0.001       99.092
     NS sqrt iter    4 1.00000000   0.115E-02       0.001      101.062
     NS sqrt iter    5 1.00000000   0.855E-08       0.001       40.772
     Symmetrizing Results
     Final NS sqrt iter    5 1.00000000   0.566E-08

     Est. extremal eigenvalues     -0.91885     1.53812  converged:  T
     TRS4 it   1 1.00000000   0.822E+00       0.000       16.128   0.100E-07
     TRS4 it   2 1.00000000   0.583E+00       0.001       32.256   0.100E-07
     TRS4 it   3 1.00000000   0.391E+00       0.001       32.256   0.100E-07
     TRS4 it   4 1.00000000   0.193E+00       0.001       32.256   0.100E-07
     TRS4 it   5 1.00000000   0.584E-01       0.001       32.256   0.100E-07
     TRS4 it   6 1.00000000   0.629E-02       0.001       32.256   0.100E-07
     TRS4 it   7 1.00000000   0.898E-04       0.001       32.256   0.100E-07
     TRS4 it   8 1.00000000   0.252E-07       0.001       32.256   0.100E-07
     Final TRS4 iteration    8 1.00000000   0.252E-07
     Chemical potential (mu):       0.00025
 
 PAO| energy:  -7.6982030286007745      penalty:   1.1733921186290210E-005
 PAO|LS| adapt:  T T F
 PAO|LS| adapt: scan_steps:    0.0000000000000000       0.28641014224012112        0.0000000000000000     
 PAO|LS| adapt: energies:   -7.6981950952015348       -7.6982030286007745        0.0000000000000000     
 PAO| ======================= Iteration:        30 =============================

     Lanczos converged:  T threshold:   0.100E-02
     Est. extremal eigenvalues:    0.272E+01   0.201E+00
     Est. condition number :    0.135E+02

 Order=           3
     NS sqrt iter    1 1.00000000   0.695E+00       0.001       58.055
     NS sqrt iter    2 1.00000000   0.316E+00       0.001       97.018
     NS sqrt iter    3 1.00000000   0.658E-01       0.001       98.809
     NS sqrt iter    4 1.00000000   0.115E-02       0.001       99.795
     NS sqrt iter    5 1.00000000   0.857E-08       0.001       40.827
     Symmetrizing Results
     Final NS sqrt iter    5 1.00000000   0.569E-08

     Est. extremal eigenvalues     -0.91885     1.53824  converged:  T
     TRS4 it   1 1.00000000   0.822E+00       0.000       16.128   0.100E-07
     TRS4 it   2 1.00000000   0.583E+00       0.001       32.256   0.100E-07
     TRS4 it   3 1.00000000   0.391E+00       0.001       32.256   0.100E-07
     TRS4 it   4 1.00000000   0.193E+00       0.001       32.256   0.100E-07
     TRS4 it   5 1.00000000   0.583E-01       0.001       32.256   0.100E-07
     TRS4 it   6 1.00000000   0.626E-02       0.001       32.256   0.100E-07
     TRS4 it   7 1.00000000   0.891E-04       0.001       32.256   0.100E-07
     TRS4 it   8 1.00000000   0.248E-07       0.001       32.256   0.100E-07
     Final TRS4 iteration    8 1.00000000   0.248E-07
     Chemical potential (mu):       0.00041
 
 PAO| energy:  -7.6982083545709949      penalty:   1.1173289256563939E-005
 PAO|LS| adapt:  T T F
 PAO|LS| adapt: scan_steps:    0.0000000000000000       0.57282028448024225        0.0000000000000000     
 PAO|LS| adapt: energies:   -7.6981950952015348       -7.6982083545709949        0.0000000000000000     
 PAO| ======================= Iteration:        31 =============================

     Lanczos converged:  T threshold:   0.100E-02
     Est. extremal eigenvalues:    0.272E+01   0.200E+00
     Est. condition number :    0.136E+02

 Order=           3
     NS sqrt iter    1 1.00000000   0.694E+00       0.001       58.522
     NS sqrt iter    2 1.00000000   0.316E+00       0.001       97.658
     NS sqrt iter    3 1.00000000   0.656E-01       0.001       99.814
     NS sqrt iter    4 1.00000000   0.114E-02       0.001      100.574
     NS sqrt iter    5 1.00000000   0.862E-08       0.001       40.424
     Symmetrizing Results
     Final NS sqrt iter    5 1.00000000   0.574E-08

     Est. extremal eigenvalues     -0.91886     1.53848  converged:  T
     TRS4 it   1 1.00000000   0.823E+00       0.000       16.128   0.100E-07
     TRS4 it   2 1.00000000   0.583E+00       0.001       32.256   0.100E-07
     TRS4 it   3 1.00000000   0.391E+00       0.001       32.256   0.100E-07
     TRS4 it   4 1.00000000   0.193E+00       0.001       32.256   0.100E-07
     TRS4 it   5 1.00000000   0.581E-01       0.001       32.256   0.100E-07
     TRS4 it   6 1.00000000   0.622E-02       0.001       32.256   0.100E-07
     TRS4 it   7 1.00000000   0.877E-04       0.001       32.256   0.100E-07
     TRS4 it   8 1.00000000   0.239E-07       0.001       32.256   0.100E-07
     Final TRS4 iteration    8 1.00000000   0.239E-07
     Chemical potential (mu):       0.00073
 
 PAO| energy:  -7.6982112004424446      penalty:   1.0096382370502921E-005
 PAO|LS| Need extra step
 PAO|LS| adapt:  T T F
 PAO|LS| adapt: scan_steps:    0.0000000000000000        1.1456405689604845        0.0000000000000000     
 PAO|LS| adapt: energies:   -7.6981950952015348       -7.6982112004424446        0.0000000000000000     
 PAO| ======================= Iteration:        32 =============================

     Lanczos converged:  T threshold:   0.100E-02
     Est. extremal eigenvalues:    0.271E+01   0.200E+00
     Est. condition number :    0.136E+02

 Order=           3
     NS sqrt iter    1 1.00000000   0.693E+00       0.001       58.321
     NS sqrt iter    2 1.00000000   0.315E+00       0.001       99.384
     NS sqrt iter    3 1.00000000   0.652E-01       0.001       97.973
     NS sqrt iter    4 1.00000000   0.113E-02       0.001       98.758
     NS sqrt iter    5 1.00000000   0.874E-08       0.001       40.955
     Symmetrizing Results
     Final NS sqrt iter    5 1.00000000   0.586E-08

     Est. extremal eigenvalues     -0.91888     1.53894  converged:  T
     TRS4 it   1 1.00000000   0.823E+00       0.000       16.128   0.100E-07
     TRS4 it   2 1.00000000   0.583E+00       0.001       32.256   0.100E-07
     TRS4 it   3 1.00000000   0.391E+00       0.001       32.256   0.100E-07
     TRS4 it   4 1.00000000   0.193E+00       0.001       32.256   0.100E-07
     TRS4 it   5 1.00000000   0.577E-01       0.001       32.256   0.100E-07
     TRS4 it   6 1.00000000   0.614E-02       0.017        1.926   0.100E-07
     TRS4 it   7 1.00000000   0.850E-04       0.001       32.256   0.100E-07
     TRS4 it   8 1.00000000   0.223E-07       0.001       32.256   0.100E-07
     Final TRS4 iteration    8 1.00000000   0.223E-07
     Chemical potential (mu):       0.00137
 
 PAO| energy:  -7.6981857733050862      penalty:   8.1177189778669534E-006
 PAO|LS| Need extra step
 PAO|LS| adapt:  T T T
 PAO|LS| adapt: scan_steps:    0.0000000000000000        1.1456405689604845        2.2912811379209690     
 PAO|LS| adapt: energies:   -7.6981950952015348       -7.6982112004424446       -7.6981857733050862     
 PAO|LS| adapt: suggested step_size:    1.0170716885300044     
 PAO|LS| adapt: predicted energy  -7.6982114619786151     
 PAO| ======================= Iteration:        33 =============================

     Lanczos converged:  T threshold:   0.100E-02
     Est. extremal eigenvalues:    0.272E+01   0.200E+00
     Est. condition number :    0.136E+02

 Order=           3
     NS sqrt iter    1 1.00000000   0.694E+00       0.001       58.713
     NS sqrt iter    2 1.00000000   0.316E+00       0.001      100.015
[...]

     Est. extremal eigenvalues     -0.91880     1.38755  converged:  T
     TRS4 it   1 1.00000000   0.797E+00       0.002        7.848   0.100E-07
     TRS4 it   2 1.00000000   0.578E+00       0.003       11.664   0.100E-07
     TRS4 it   3 1.00000000   0.410E+00       0.003       11.295   0.100E-07
     TRS4 it   4 1.00000000   0.246E+00       0.003       11.278   0.100E-07
     TRS4 it   5 1.00000000   0.111E+00       0.003       10.612   0.100E-07
     TRS4 it   6 1.00000000   0.292E-01       0.004        8.966   0.100E-07
     TRS4 it   7 1.00000000   0.284E-02       0.004        9.012   0.100E-07
     TRS4 it   8 1.00000000   0.323E-04       0.004        9.082   0.100E-07
     TRS4 it   9 1.00000000   0.449E-08       0.003       11.394   0.100E-07
     Final TRS4 iteration    9 1.00000000   0.449E-08
     Chemical potential (mu):      -0.08480
 
 PAO| energy:  -7.6990222707430078      penalty:   3.3145817085931864E-012
 PAO|CG| warming up with steepest descent
 PAO|CG| beta:    0.0000000000000000     
 PAO| norm of gradient:   7.5980116072491609E-006
 PAO| energy improvement:  -3.4287239714103634E-011
 PAO| step    914                   -7.699022271  0.475E-06  0.269E+00     0.141
 PAO| converged after          914  steps :-)
 PAO| Recalculating energy after mixing.

     Lanczos converged:  T threshold:   0.100E-02
     Est. extremal eigenvalues:    0.247E+01   0.232E+00
     Est. condition number :    0.107E+02

 Order=           3
     NS sqrt iter    1 1.00000000   0.629E+00       0.002       29.485
     NS sqrt iter    2 1.00000000   0.259E+00       0.002       71.430
     NS sqrt iter    3 1.00000000   0.375E-01       0.002       70.794
     NS sqrt iter    4 1.00000000   0.257E-03       0.002       69.219
     NS sqrt iter    5 1.00000000   0.485E-09       0.001       25.388
     Symmetrizing Results
     Final NS sqrt iter    5 1.00000000   0.517E-10

     Est. extremal eigenvalues     -0.91880     1.38755  converged:  T
     TRS4 it   1 1.00000000   0.797E+00       0.001       16.128   0.100E-07
     TRS4 it   2 1.00000000   0.578E+00       0.001       32.256   0.100E-07
     TRS4 it   3 1.00000000   0.410E+00       0.001       31.221   0.100E-07
     TRS4 it   4 1.00000000   0.246E+00       0.001       32.256   0.100E-07
     TRS4 it   5 1.00000000   0.111E+00       0.001       32.256   0.100E-07
     TRS4 it   6 1.00000000   0.292E-01       0.001       32.256   0.100E-07
     TRS4 it   7 1.00000000   0.284E-02       0.001       32.213   0.100E-07
     TRS4 it   8 1.00000000   0.323E-04       0.001       32.256   0.100E-07
     TRS4 it   9 1.00000000   0.449E-08       0.001       32.256   0.100E-07
     Final TRS4 iteration    9 1.00000000   0.449E-08
     Chemical potential (mu):      -0.08480
 
 PAO| energy:  -7.6990222707344413      penalty:   3.3504576146299853E-012
 PAO| Writing restart file.
     Est. extremal eigenvalues     -0.91880     1.38755  converged:  T
     TRS4 it   1 1.00000000   0.797E+00       0.001       16.128   0.100E-07
     TRS4 it   2 1.00000000   0.578E+00       0.001       26.821   0.100E-07
     TRS4 it   3 1.00000000   0.410E+00       0.001       32.256   0.100E-07
     TRS4 it   4 1.00000000   0.246E+00       0.001       31.659   0.100E-07
     TRS4 it   5 1.00000000   0.111E+00       0.001       32.256   0.100E-07
     TRS4 it   6 1.00000000   0.292E-01       0.001       32.256   0.100E-07
     TRS4 it   7 1.00000000   0.284E-02       0.001       32.256   0.100E-07
     TRS4 it   8 1.00000000   0.323E-04       0.001       32.256   0.100E-07
     TRS4 it   9 1.00000000   0.449E-08       0.001       32.256   0.100E-07
     Final TRS4 iteration    9 1.00000000   0.449E-08
     Chemical potential (mu):      -0.08480

 SCF     1       -34.446863982       -34.446863982    3.352059

*********************************************************
 Using MIXING_FRACTION=0.450 to mix KS matrix:  iscf=  2
 KS_nw=0.450*KS + 0.550*KS_old
*********************************************************
     Est. extremal eigenvalues     -0.91880     1.38755  converged:  T
     TRS4 it   1 1.00000000   0.797E+00       0.000       16.128   0.100E-07
     TRS4 it   2 1.00000000   0.578E+00       0.001       32.256   0.100E-07
     TRS4 it   3 1.00000000   0.410E+00       0.001       32.256   0.100E-07
     TRS4 it   4 1.00000000   0.246E+00       0.001       32.256   0.100E-07
     TRS4 it   5 1.00000000   0.111E+00       0.001       32.256   0.100E-07
     TRS4 it   6 1.00000000   0.292E-01       0.001       32.256   0.100E-07
     TRS4 it   7 1.00000000   0.284E-02       0.001       32.256   0.100E-07
     TRS4 it   8 1.00000000   0.323E-04       0.001       32.256   0.100E-07
     TRS4 it   9 1.00000000   0.449E-08       0.001       32.256   0.100E-07
     Final TRS4 iteration    9 1.00000000   0.449E-08
     Chemical potential (mu):      -0.08480

 SCF     2       -34.446863982        -0.000000000    2.799090


 SCF run converged in     2 steps.

 PAO| Storing density matrix for ASPC guess in slot:           1

 ENERGY| Total FORCE_EVAL ( QS ) energy [a.u.]:              -34.446863982149715

 -------------------------------------------------------------------------------
 -                                                                             -
 -                                DBCSR STATISTICS                             -
 -                                                                             -
 -------------------------------------------------------------------------------
 COUNTER                                    TOTAL       BLAS       SMM       ACC
 flops     5 x     5 x     4                26000       0.0%    100.0%      0.0%
 flops    13 x     5 x     4                27040       0.0%    100.0%      0.0%
 flops     5 x    13 x     4                27040       0.0%    100.0%      0.0%
 flops    13 x    13 x     4                52728       0.0%    100.0%      0.0%
 flops     4 x     4 x     5              7127040       0.0%    100.0%      0.0%
 flops     5 x     4 x     5              8684800       0.0%    100.0%      0.0%
 flops     4 x     4 x    13              9265152       0.0%    100.0%      0.0%
 flops    13 x     4 x     5             11290240       0.0%    100.0%      0.0%
 flops     5 x     4 x    13             11290240       0.0%    100.0%      0.0%
 flops     5 x     4 x     4             13388000       0.0%    100.0%      0.0%
 flops    13 x     4 x    13             14677312       0.0%    100.0%      0.0%
 flops    13 x     4 x     4             17533152       0.0%    100.0%      0.0%
 flops     4 x     4 x     4            899799808       0.0%    100.0%      0.0%
 flops inhomo. stacks                           0       0.0%      0.0%      0.0%
 flops total                       993.188552E+06       0.0%    100.0%      0.0%
 flops max/rank                    993.188552E+06       0.0%    100.0%      0.0%
 matmuls inhomo. stacks                         0       0.0%      0.0%      0.0%
 matmuls total                            7320301       0.0%    100.0%      0.0%
 number of processed stacks                 58438       0.0%    100.0%      0.0%
 average stack size                                     0.0     125.3       0.0
 marketing flops                     1.624979E+09
 -------------------------------------------------------------------------------
 # multiplications                          48981
 max memory usage/rank             506.728448E+06
 # max total images/rank                        1
 # max 3D layers                                1
 # MPI messages exchanged                       0
 -------------------------------------------------------------------------------

 -------------------------------------------------------------------------------
 -                                                                             -
 -                                DBM STATISTICS                               -
 -                                                                             -
 -------------------------------------------------------------------------------
    M  x    N  x    K                                          COUNT     PERCENT
 -------------------------------------------------------------------------------

 -------------------------------------------------------------------------------
 -                                                                             -
 -                                GRID STATISTICS                              -
 -                                                                             -
 -------------------------------------------------------------------------------
 LP    KERNEL             BACKEND                              COUNT     PERCENT
 2     collocate ortho    REF                                  49088      30.68%
 2     integrate ortho    REF                                  49088      30.68%
 3     collocate ortho    REF                                  25376      15.86%
 3     integrate ortho    REF                                  25376      15.86%
 4     collocate ortho    REF                                   5525       3.45%
 4     integrate ortho    REF                                   5525       3.45%
 0     collocate general  REF                                      6       0.00%
 -------------------------------------------------------------------------------

 MEMORY| Estimated peak process memory [MiB]                                 484

 -------------------------------------------------------------------------------
 -                                                                             -
 -                           R E F E R E N C E S                               -
 -                                                                             -
 -------------------------------------------------------------------------------
 
 CP2K version 2023.1 (Development Version), the CP2K developers group (2023).
 CP2K is freely available from https://www.cp2k.org/ .

 Kuehne,Thomas D.; Iannuzzi,Marcella; Del Ben,Mauro;
 Rybkin,Vladimir V.; Seewald,Patrick; Stein,Frederick; Laino,Teodoro;
 Khaliullin,Rustam Z.; Schuett,Ole; Schiffmann,Florian; Golze,Dorothea;
 Wilhelm,Jan; Chulkov,Sergey; Bani-Hashemian,Mohammad Hossein;
 Weber,Valery; Borstnik,Urban; Taillefumier,Mathieu;
 Jakobovits,Alice Shoshana; Lazzaro,Alfio; Pabst,Hans; Mueller,Tiziano;
 Schade,Robert; Guidon,Manuel; Andermatt,Samuel; Holmberg,Nico;
 Schenter,Gregory K.; Hehn,Anna; Bussy,Augustin; Belleflamme,Fabian;
 Tabacchi,Gloria; Gloess,Andreas; Lass,Michael; Bethune,Iain;
 Mundy,Christopher J.; Plessl,Christian; Watkins,Matt;
 VandeVondele,Joost; Krack,Matthias; Hutter,Juerg. 
 The Journal of Chemical Physics, 152 (19), (2020). 
 CP2K: An electronic structure and molecular dynamics software package -
 Quickstep: Efficient and accurate electronic structure calculations.
 https://doi.org/10.1063/5.0007045

 Schuett, O; VandeVondele, J. 
 Journal of Chemical Theory and Computation, 14, (2018). 
 Machine Learning Adaptive Basis Sets for Efficient Large Scale
 Density Functional Theory Simulation.
 https://doi.org/10.1021/acs.jctc.8b00378

 Schuett, Ole; Messmer, Peter; Hutter, Juerg; VandeVondele, Joost. 
 Electronic Structure Calculations on Graphics Processing Units, John
 Wiley & Sons, Ltd, 173-190 (2016). 
 GPU-Accelerated Sparse Matrix-Matrix Multiplication for
 Linear Scaling Density Functional Theory.
 https://doi.org/10.1002/9781118670712.ch8

 Heinecke, A; Henry, G; Hutchinson, M; Pabst, H. 
 Proceedings of Intl. Supercomputing Conference, 981-991 (2016). 
 LIBXSMM: Accelerating Small Matrix Multiplications
 by Runtime Code Generation.
 https://doi.org/10.1109/SC.2016.83

 Borstnik, U; VandeVondele, J; Weber, V; Hutter, J. 
 PARALLEL COMPUTING, 40 (5-6), 47-58 (2014). 
 Sparse matrix multiplication: The distributed block-compressed sparse
 row library.
 https://doi.org/10.1016/j.parco.2014.03.012

 Hutter, J; Iannuzzi, M; Schiffmann, F; VandeVondele, J. 
 WIREs Comput Mol Sci., 4 (1), 15-25 (2014). 
 CP2K: atomistic simulations of condensed matter systems.
 https://doi.org/10.1002/wcms.1159

 VandeVondele, J; Borstnik, U; Hutter, J. 
 JOURNAL OF CHEMICAL THEORY AND COMPUTATION, 8 (10), 3565-3573 (2012). 
 Linear Scaling Self-Consistent Field Calculations with Millions of Atoms
 in the Condensed Phase.
 https://doi.org/10.1021/ct200897x

 VandeVondele, J; Hutter, J. 
 JOURNAL OF CHEMICAL PHYSICS, 127 (11), 114105 (2007). 
 Gaussian basis sets for accurate calculations on molecular systems in
 gas and condensed phases.
 https://doi.org/10.1063/1.2770708

 Krack, M. 
 THEORETICAL CHEMISTRY ACCOUNTS, 114 (1-3), 145-152 (2005). 
 Pseudopotentials for H to Kr optimized for gradient-corrected
 exchange-correlation functionals.
 https://doi.org/10.1007/s00214-005-0655-y

 VandeVondele, J; Krack, M; Mohamed, F; Parrinello, M; Chassaing, T;
 Hutter, J. COMPUTER PHYSICS COMMUNICATIONS, 167 (2), 103-128 (2005). 
 QUICKSTEP: Fast and accurate density functional calculations using a
 mixed Gaussian and plane waves approach.
 https://doi.org/10.1016/j.cpc.2004.12.014

 Frigo, M; Johnson, SG. 
 PROCEEDINGS OF THE IEEE, 93 (2), 216-231 (2005). 
 The design and implementation of FFTW3.
 https://doi.org/10.1109/JPROC.2004.840301

 Niklasson, AMN; Tymczak, CJ; Challacombe, M. 
 JOURNAL OF CHEMICAL PHYSICS, 118 (19), 8611-8620 (2003). 
 Trace resetting density matrix purification in O(N)
 self-consistent-field theory.
 https://doi.org/10.1063/1.1559913

 Hartwigsen, C; Goedecker, S; Hutter, J. 
 PHYSICAL REVIEW B, 58 (7), 3641-3662 (1998). 
 Relativistic separable dual-space Gaussian pseudopotentials from H to Rn.
 https://doi.org/10.1103/PhysRevB.58.3641

 Lippert, G; Hutter, J; Parrinello, M. 
 MOLECULAR PHYSICS, 92 (3), 477-487 (1997). 
 A hybrid Gaussian and plane wave density functional scheme.
 https://doi.org/10.1080/002689797170220

 Perdew, JP; Burke, K; Ernzerhof, M. 
 PHYSICAL REVIEW LETTERS, 77 (18), 3865-3868 (1996). 
 Generalized gradient approximation made simple.
 https://doi.org/10.1103/PhysRevLett.77.3865

 Goedecker, S; Teter, M; Hutter, J. 
 PHYSICAL REVIEW B, 54 (3), 1703-1710 (1996). 
 Separable dual-space Gaussian pseudopotentials.
 https://doi.org/10.1103/PhysRevB.54.1703


 -------------------------------------------------------------------------------
 -                                                                             -
 -                                T I M I N G                                  -
 -                                                                             -
 -------------------------------------------------------------------------------
 SUBROUTINE                       CALLS  ASD         SELF TIME        TOTAL TIME
                                MAXIMUM       AVERAGE  MAXIMUM  AVERAGE  MAXIMUM
 CP2K                                 1  1.0    0.015    0.015   83.503   83.503
 qs_energies                          1  2.0    0.000    0.000   82.618   82.618
 ls_scf                               1  3.0    0.000    0.000   82.471   82.471
 ls_scf_main                          6  4.0    0.002    0.002   51.397   51.397
 ls_scf_dm_to_ks                     12  5.0    0.001    0.001   51.192   51.192
 qs_ks_update_qs_env                 13  6.0    0.000    0.000   41.705   41.705
 rebuild_ks_matrix                   13  7.0    0.000    0.000   41.704   41.704
 qs_ks_build_kohn_sham_matrix        13  8.0    0.005    0.005   41.704   41.704
 qs_vxc_create                       13  9.0    0.001    0.001   25.567   25.567
 xc_vxc_pw_create                    13 10.0    0.491    0.491   25.566   25.566
 pao_update                           6  4.0    0.021    0.021   25.437   25.437
 pao_calc_energy                    919  5.0    0.008    0.008   23.019   23.019
 pw_transfer                        248 11.1    0.062    0.062   22.993   22.993
 fft_wrap_pw1pw2                    222 12.3    0.006    0.006   22.315   22.315
 fft_wrap_pw1pw2_200                144 13.7    2.328    2.328   21.465   21.465
 dbcsr_multiply_generic           48981  8.4    1.122    1.122   18.457   18.457
 xc_rho_set_and_dset_create          13 11.0    0.670    0.670   15.831   15.831
 xc_pw_derive                        78 12.0    0.002    0.002   15.348   15.348
 qs_rho_update_rho_low               13  6.0    0.000    0.000   14.924   14.924
 calculate_rho_elec                  13  7.0    0.063    0.063   14.923   14.923
 pao_dm_trs4                        919  6.0    0.007    0.007   11.657   11.657
 ls_scf_init_matrix_S               925  7.0    0.007    0.007   11.362   11.362
 sum_up_and_integrate                13  9.0    0.298    0.298   11.317   11.317
 pao_rebuild_S                      919  6.0    0.004    0.004   11.210   11.210
 density_matrix_trs4                931  7.0    0.373    0.373   11.138   11.138
 integrate_v_rspace                  13 10.0    0.002    0.002   11.019   11.019
 matrix_sqrt_Newton_Schulz          925  8.0    0.245    0.245   10.280   10.280
 fft3d_s                            223 14.2    9.612    9.612    9.649    9.649
 grid_collocate_task_list            13  8.0    9.360    9.360    9.360    9.360
 xc_pw_divergence                    13 11.0    0.001    0.001    8.878    8.878
 grid_integrate_task_list            13 11.0    8.566    8.566    8.566    8.566
 make_m2s                         97962  9.4    0.516    0.516    6.881    6.881
 multiply_cannon                  48981  9.4    2.732    2.732    6.791    6.791
 make_images                      97962 10.4    1.600    1.600    6.040    6.040
 pw_scatter_s                       117 14.7    5.673    5.673    5.673    5.673
 xc_functional_eval                  13 12.0    0.000    0.000    5.556    5.556
 pbe_lda_eval                        13 13.0    5.555    5.555    5.555    5.555
 density_rs2pw                       13  8.0    0.002    0.002    5.501    5.501
 pao_guess_initial_P                  1  4.0    0.000    0.000    5.462    5.462
 pao_read_preopt_dm                   1  5.0    0.000    0.000    5.462    5.462
 pw_gather_s                        105 13.8    4.560    4.560    4.560    4.560
 arnoldi_extremal                  1856  8.5    0.008    0.008    3.568    3.568
 arnoldi_normal_ev                 1856  9.5    0.024    0.024    3.560    3.560
 pw_derive                           78 13.0    2.984    2.984    2.984    2.984
 build_subspace                    1856 10.5    0.126    0.126    2.755    2.755
 dbcsr_matrix_vector_mult         44540 11.5    0.270    0.270    2.595    2.595
 potential_pw2rs                     13 11.0    0.006    0.006    2.451    2.451
 pao_calc_AB                       1206  5.8    0.002    0.002    2.414    2.414
 pao_calc_AB_equi                  1206  6.8    0.092    0.092    2.411    2.411
 pw_copy                            156 11.8    2.335    2.335    2.335    2.335
 pao_calc_grad_lnv_wrt_AB           286  7.0    0.013    0.013    2.171    2.171
 dbcsr_create_new                376137 10.7    1.253    1.253    2.082    2.082
 dbcsr_finalize                  117080  9.6    0.377    0.377    2.006    2.006
 pw_poisson_solve                    13  9.0    0.276    0.276    1.824    1.824
 multiply_cannon_loop             48981 10.4    0.216    0.216    1.771    1.771
 -------------------------------------------------------------------------------

 The number of warnings for this run is : 0
 
 -------------------------------------------------------------------------------
  **** **** ******  **  PROGRAM ENDED AT                 2023-02-01 10:49:19.254
 ***** ** ***  *** **   PROGRAM RAN ON                                    moritz
 **    ****   ******    PROGRAM RAN BY                                       ole
 ***** **    ** ** **   PROGRAM PROCESS ID                                148683
  **** **  *******  **  PROGRAM STOPPED IN /home/ole/git/pao_ml_equivar/2H2O_MD/
                                           frame_0150
