       6
 i =      150, time =       30.000, E =       -34.4473967476
  O         2.4356323409        4.2118195050        4.2458224806
  H         2.4816196354        4.8382476603        3.4827598409
  H         2.0298078477        3.4123360460        3.8126806702
  O         5.4602328686        4.2442272178        3.7612019611
  H         6.2583381031        4.1330856562        4.3389321344
  H         4.6934930885        4.1468787306        4.3829502566
