 DBCSR| CPU Multiplication driver                                           XSMM
 DBCSR| Multrec recursion limit                                              512
 DBCSR| Multiplication stack size                                           1000
 DBCSR| Maximum elements for images                                    UNLIMITED
 DBCSR| Multiplicative factor virtual images                                   1
 DBCSR| Use multiplication densification                                       T
 DBCSR| Multiplication size stacks                                             3


  **** **** ******  **  PROGRAM STARTED AT               2019-02-14 11:21:22.336
 ***** ** ***  *** **   PROGRAM STARTED ON                                  otto
 **    ****   ******    PROGRAM STARTED BY                                   ole
 ***** **    ** ** **   PROGRAM PROCESS ID                                  8055
  **** **  *******  **  PROGRAM STARTED IN /home/ole/git/pao_ml_equivar/2H2O_MD/
                                           frame_1975

 CP2K| version string:                    CP2K version 7.0 (Development Version)
 CP2K| source code revision number:                                git:8bf305913
 CP2K| cp2kflags: libint fftw3 libxc xsmm libderiv_max_am1=5 libint_max_am=6    
 CP2K| is freely available from                            https://www.cp2k.org/
 CP2K| Program compiled at                           So Jan 13 00:02:37 CET 2019
 CP2K| Program compiled on                                                  otto
 CP2K| Program compiled for                                                local
 CP2K| Data directory path                               /home/ole/git/cp2k/data
 CP2K| Input file name                                            2H2O_pao44.inp

 GLOBAL| Force Environment number                                              1
 GLOBAL| Basis set file name                                        BASIS_MOLOPT
 GLOBAL| Potential file name                                      GTH_POTENTIALS
 GLOBAL| MM Potential file name                                     MM_POTENTIAL
 GLOBAL| Coordinate file name                                         coords.xyz
 GLOBAL| Method name                                                        CP2K
 GLOBAL| Project name                                                 2H2O_pao44
 GLOBAL| Preferred FFT library                                             FFTW3
 GLOBAL| Preferred diagonalization lib.                                       SL
 GLOBAL| Run type                                                         ENERGY
 GLOBAL| All-to-all communication in single precision                          F
 GLOBAL| FFTs using library dependent lengths                                  F
 GLOBAL| Global print level                                                  LOW
 GLOBAL| MPI I/O enabled                                                       T
 GLOBAL| Total number of message passing processes                             1
 GLOBAL| Number of threads for this process                                    1
 GLOBAL| This output is from process                                           0
 GLOBAL| CPU model name :  Intel(R) Core(TM) i5-3320M CPU @ 2.60GHz

 MEMORY| system memory details [Kb]
 MEMORY|                        rank 0           min           max       average
 MEMORY| MemTotal              7860772       7860772       7860772       7860772
 MEMORY| MemFree                455440        455440        455440        455440
 MEMORY| Buffers               1050180       1050180       1050180       1050180
 MEMORY| Cached                2181700       2181700       2181700       2181700
 MEMORY| Slab                   282032        282032        282032        282032
 MEMORY| SReclaimable           155928        155928        155928        155928
 MEMORY| MemLikelyFree         3843248       3843248       3843248       3843248


 GENERATE|  Preliminary Number of Bonds generated:                             0
 GENERATE|  Achieved consistency in connectivity generation.

 *******************************************************************************
 *******************************************************************************
 **                                                                           **
 **     #####                         ##              ##                      **
 **    ##   ##            ##          ##              ##                      **
 **   ##     ##                       ##            ######                    **
 **   ##     ##  ##   ##  ##   #####  ##  ##   ####   ##    #####    #####    **
 **   ##     ##  ##   ##  ##  ##      ## ##   ##      ##   ##   ##  ##   ##   **
 **   ##  ## ##  ##   ##  ##  ##      ####     ###    ##   ######   ######    **
 **    ##  ###   ##   ##  ##  ##      ## ##      ##   ##   ##       ##        **
 **     #######   #####   ##   #####  ##  ##  ####    ##    #####   ##        **
 **           ##                                                    ##        **
 **                                                                           **
 **                                                ... make the atoms dance   **
 **                                                                           **
 **            Copyright (C) by CP2K developers group (2000 - 2018)           **
 **                                                                           **
 *******************************************************************************


 TOTAL NUMBERS AND MAXIMUM NUMBERS

  Total number of            - Atomic kinds:                                   2
                             - Atoms:                                          6
                             - Shell sets:                                     6
                             - Shells:                                        22
                             - Primitive Cartesian functions:                 42
                             - Cartesian basis functions:                     48
                             - Spherical basis functions:                     46

  Maximum angular momentum of- Orbital basis functions:                        2
                             - Local part of the GTH pseudopotential:          2
                             - Non-local part of the GTH pseudopotential:      0

 ------------------------------ Linear scaling SCF -----------------------------
 eps_scf:                                       0.100E-07
 eps_filter:                                    0.100E-07
 mixing_fraction:                               0.450E+00
 max_scf:                                              25
 fixed chemical potential (mu)                          F
 has unit metric:                                       F
 Computing inv(S):                                      T
 Computing sqrt(S):                                     T
 Computing s preconditioner                             F
 sign sqrt order:                                       3
 Extrapolation order:                                   1
 Use single precision matrices                          F
 S preconditioner type                               NONE
 Polarized Atomic Orbitals (PAO)                        T
 Purification method                      Trace resetting 4th order
 Cluster type                                      ATOMIC
 Computing Chebyshev                                FALSE
 Using PAO                                              T
 -------------------------------------------------------------------------------

 
 PAO|                                  EPS_PAO                           0.5E-06
 PAO|                                  MIXING                            0.5E+00
 PAO|                                  MAX_PAO                              1000
 PAO|                                  MAX_CYCLES                           1000
 PAO|                                  PARAMETERIZATION                   DIRECT
 PAO|                                  PRECONDITION                            F
 PAO|                                  REGULARIZATION                    0.0E+00
 PAO|                                  EPS_PGF                           0.1E-09
 PAO|                                  PENALTY_DISTANCE                  0.1E+00
 PAO|                                  PENALTY_STRENGTH                  0.5E-02
 PAO|                                  LINPOT_PRECONDITION_DELTA         0.0E+00
 PAO|                                  LINPOT_INITGUESS_DELT             0.0E+00
 PAO|                                  LINPOT_REGULARIZATION_DELTA       0.0E+00
 PAO|                                  LINPOT_REGULARIZATION_STRENGTH    0.0E+00
 PAO|                                  OPTIMIZER                              CG
 PAO|                                  CG_INIT_STEPS                           2
 PAO|                                  CG_RESET_LIMIT                    0.1E+00
 PAO|                                  CHECK_UNITARY_TOL                -0.1E+01
 PAO|                                  CHECK_GRADIENT_TOL               -0.1E+01
 PAO|                                  NUM_GRADIENT_ORDER                      2
 PAO|                                  NUM_GRADIENT_EPS                  0.1E-07
 PAO|                                  PRINT%RESTART%WRITE_CYCLES            100
 PAO|                                  RESTART_FILE 
 PAO|                                  PREOPT_DM_FILE 2H2O_ref_LS_DM_SPIN_1_RESTART.dm
 PAO|                                  MACHINE_LEARNING%METHOD        GAUSSIAN_P
 PAO|                                  MACHINE_LEARNING%PRIOR               ZERO
 PAO|                                  MACHINE_LEARNING%DESCRIPTOR     POTENTIAL
 PAO|                                  MACHINE_LEARNING%TOLERANCE        0.1E-01
 PAO|                                  MACHINE_LEARNING%GP_NOISE_VAR     0.1E+00
 PAO|                                  MACHINE_LEARNING%GP_SCALE         0.5E-01
 

 Calculating atomic Fock matrix for atomic kind: O

 Electronic structure
    Total number of core electrons                                          2.00
    Total number of valence electrons                                       6.00
    Total number of electrons                                               8.00
    Multiplicity                                                   not specified
    S   [  2.00] 2.00
    P      4.00


 *******************************************************************************
                  Iteration          Convergence                     Energy [au]
 *******************************************************************************
                          1        0.708315                     -15.576645311500
                          2        0.608879                     -15.587933561584
                          3        0.102828E-01                 -15.656849565404
                          4        0.113889E-02                 -15.656866888140
                          5        0.434197E-03                 -15.656867072159
                          6        0.263771E-03                 -15.656867091904
                          7        0.478536E-06                 -15.656867103452

 Energy components [Hartree]           Total Energy ::          -15.656867103452
                                        Band Energy ::           -3.000198112285
                                     Kinetic Energy ::           11.759971203220
                                   Potential Energy ::          -27.416838306672
                                      Virial (-V/T) ::            2.331369510426
                                        Core Energy ::          -26.140716385623
                                          XC Energy ::           -3.154051012914
                                     Coulomb Energy ::           13.637900295084
                       Total Pseudopotential Energy ::          -37.935781716540
                       Local Pseudopotential Energy ::          -39.218907440693
                    Nonlocal Pseudopotential Energy ::            1.283125724153
                                        Confinement ::            0.350941276976

 Orbital energies  State     L     Occupation   Energy[a.u.]          Energy[eV]

                       1     0          2.000      -0.864471          -23.523463

                       1     1          4.000      -0.317814           -8.648154


 Total Electron Density at R=0:                                         0.000068

 Calculating atomic Fock matrix for atomic kind: H

 Electronic structure
    Total number of core electrons                                          0.00
    Total number of valence electrons                                       1.00
    Total number of electrons                                               1.00
    Multiplicity                                                   not specified
    S      1.00


 *******************************************************************************
                  Iteration          Convergence                     Energy [au]
 *******************************************************************************
                          1        0.437545E-02                  -0.424159432110
                          2        0.531356E-03                  -0.424178438213
                          3        0.259176E-06                  -0.424178722480

 Energy components [Hartree]           Total Energy ::           -0.424178722480
                                        Band Energy ::           -0.199015229016
                                     Kinetic Energy ::            0.464007633961
                                   Potential Energy ::           -0.888186356441
                                      Virial (-V/T) ::            1.914163240935
                                        Core Energy ::           -0.479160803564
                                          XC Energy ::           -0.244352904054
                                     Coulomb Energy ::            0.299334985138
                       Total Pseudopotential Energy ::           -0.962295316385
                       Local Pseudopotential Energy ::           -0.962295316385
                    Nonlocal Pseudopotential Energy ::            0.000000000000
                                        Confinement ::            0.191268788606

 Orbital energies  State     L     Occupation   Energy[a.u.]          Energy[eV]

                       1     0          1.000      -0.199015           -5.415480


 Total Electron Density at R=0:                                         0.242907
 PAO| Made initial guess for matrix_X with norm:   4.8989794855663558     

     Lanczos converged:  T threshold:   0.100E-02
     Est. extremal eigenvalues:    0.343E+01   0.116E+00
     Est. condition number :    0.296E+02
     NS sqrt iter    1 1.00000000   0.837E+00       0.001       47.351
     NS sqrt iter    2 1.00000000   0.442E+00       0.001       84.572
     NS sqrt iter    3 1.00000000   0.167E+00       0.001       84.955
     NS sqrt iter    4 1.00000000   0.195E-01       0.001       85.067
     NS sqrt iter    5 1.00000000   0.494E-04       0.001       69.188
     Final NS sqrt iter    5 1.00000000   0.322E-08

 PAO| Read restart DM 2H2O_ref_LS_DM_SPIN_1_RESTART.dm with checksum:    55.590512105703894     
 PAO| Quickstep energy from restart density:  -34.446414451053442     
 PAO| ======================= Iteration:         1 =============================

     Lanczos converged:  T threshold:   0.100E-02
     Est. extremal eigenvalues:    0.343E+01   0.116E+00
     Est. condition number :    0.296E+02
     NS sqrt iter    1 1.00000000   0.837E+00       0.001       64.512
     NS sqrt iter    2 1.00000000   0.442E+00       0.001      110.592
     NS sqrt iter    3 1.00000000   0.167E+00       0.001      110.592
     NS sqrt iter    4 1.00000000   0.195E-01       0.001      110.592
     NS sqrt iter    5 1.00000000   0.494E-04       0.001       88.320
     Final NS sqrt iter    5 1.00000000   0.322E-08

     Est. extremal eigenvalues     -0.92578     1.84653  converged:  T
     TRS4 it   1 1.00000000   0.884E+00       0.000       16.128   0.100E-07
     TRS4 it   2 1.00000000   0.689E+00       0.001       32.256   0.100E-07
     TRS4 it   3 1.00000000   0.505E+00       0.001       32.256   0.100E-07
     TRS4 it   4 1.00000000   0.323E+00       0.001       32.256   0.100E-07
     TRS4 it   5 1.00000000   0.166E+00       0.001       32.256   0.100E-07
     TRS4 it   6 1.00000000   0.562E-01       0.001       32.256   0.100E-07
     TRS4 it   7 1.00000000   0.883E-02       0.001       32.256   0.100E-07
     TRS4 it   8 1.00000000   0.304E-03       0.001       32.256   0.100E-07
     TRS4 it   9 1.00000000   0.414E-06       0.001       32.256   0.100E-07
     TRS4 it  10 1.00000000   0.771E-12       0.001       32.256   0.100E-07
     Final TRS4 iteration   10 1.00000000   0.771E-12
     Chemical potential (mu):      -0.06359
 
 PAO| energy:  -7.5570554147883984      penalty:   3.6977854932234927E-033
 PAO|CG| warming up with steepest descent
 PAO|CG| beta:    0.0000000000000000     
 PAO| norm of gradient:  0.76972547477006936     
 PAO|LS| adapt:  T F F
 PAO|LS| adapt: scan_steps:    0.0000000000000000        0.0000000000000000        0.0000000000000000     
 PAO|LS| adapt: energies:   -7.5570554147883984        0.0000000000000000        0.0000000000000000     
 PAO| ======================= Iteration:         2 =============================

     Lanczos converged:  T threshold:   0.100E-02
     Est. extremal eigenvalues:    0.334E+01   0.131E+00
     Est. condition number :    0.256E+02
     NS sqrt iter    1 1.00000000   0.821E+00       0.001       64.512
     NS sqrt iter    2 1.00000000   0.427E+00       0.001      110.592
     NS sqrt iter    3 1.00000000   0.149E+00       0.001      110.592
     NS sqrt iter    4 1.00000000   0.135E-01       0.001      110.592
     NS sqrt iter    5 1.00000000   0.156E-04       0.001       82.944
     Final NS sqrt iter    5 1.00000000   0.417E-09

     Est. extremal eigenvalues     -0.92940     1.79344  converged:  T
     TRS4 it   1 1.00000000   0.880E+00       0.000       16.128   0.100E-07
     TRS4 it   2 1.00000000   0.672E+00       0.001       32.256   0.100E-07
     TRS4 it   3 1.00000000   0.489E+00       0.001       32.256   0.100E-07
     TRS4 it   4 1.00000000   0.303E+00       0.001       32.256   0.100E-07
     TRS4 it   5 1.00000000   0.146E+00       0.001       32.256   0.100E-07
     TRS4 it   6 1.00000000   0.439E-01       0.001       32.256   0.100E-07
     TRS4 it   7 1.00000000   0.545E-02       0.001       32.256   0.100E-07
     TRS4 it   8 1.00000000   0.116E-03       0.001       32.256   0.100E-07
     TRS4 it   9 1.00000000   0.601E-07       0.001       32.256   0.100E-07
     Final TRS4 iteration    9 1.00000000   0.601E-07
     Chemical potential (mu):      -0.05242
 
 PAO| energy:  -7.6105302718673027      penalty:   2.1283315751228747E-008
 PAO|LS| adapt:  T T F
 PAO|LS| adapt: scan_steps:    0.0000000000000000       0.10000000000000001        0.0000000000000000     
 PAO|LS| adapt: energies:   -7.5570554147883984       -7.6105302718673027        0.0000000000000000     
 PAO| ======================= Iteration:         3 =============================

     Lanczos converged:  T threshold:   0.100E-02
     Est. extremal eigenvalues:    0.325E+01   0.143E+00
     Est. condition number :    0.228E+02
     NS sqrt iter    1 1.00000000   0.803E+00       0.001       64.512
     NS sqrt iter    2 1.00000000   0.410E+00       0.001      110.592
     NS sqrt iter    3 1.00000000   0.132E+00       0.001      110.592
     NS sqrt iter    4 1.00000000   0.933E-02       0.001      110.592
     NS sqrt iter    5 1.00000000   0.524E-05       0.001       82.944
     Final NS sqrt iter    5 1.00000000   0.474E-10

     Est. extremal eigenvalues     -0.93277     1.74899  converged:  T
     TRS4 it   1 1.00000000   0.877E+00       0.000       16.128   0.100E-07
     TRS4 it   2 1.00000000   0.655E+00       0.001       32.256   0.100E-07
     TRS4 it   3 1.00000000   0.472E+00       0.001       32.256   0.100E-07
     TRS4 it   4 1.00000000   0.282E+00       0.001       32.256   0.100E-07
     TRS4 it   5 1.00000000   0.127E+00       0.001       32.256   0.100E-07
     TRS4 it   6 1.00000000   0.332E-01       0.001       32.256   0.100E-07
     TRS4 it   7 1.00000000   0.312E-02       0.001       32.256   0.100E-07
     TRS4 it   8 1.00000000   0.379E-04       0.001       32.256   0.100E-07
     TRS4 it   9 1.00000000   0.634E-08       0.001       32.256   0.100E-07
     Final TRS4 iteration    9 1.00000000   0.634E-08
     Chemical potential (mu):      -0.04004
 
 PAO| energy:  -7.6518899434779097      penalty:   3.4053142675217418E-007
 PAO|LS| adapt:  T T F
 PAO|LS| adapt: scan_steps:    0.0000000000000000       0.20000000000000001        0.0000000000000000     
 PAO|LS| adapt: energies:   -7.5570554147883984       -7.6518899434779097        0.0000000000000000     
 PAO| ======================= Iteration:         4 =============================

     Lanczos converged:  T threshold:   0.100E-02
     Est. extremal eigenvalues:    0.305E+01   0.161E+00
     Est. condition number :    0.189E+02
     NS sqrt iter    1 1.00000000   0.764E+00       0.001       64.216
     NS sqrt iter    2 1.00000000   0.375E+00       0.001      110.552
     NS sqrt iter    3 1.00000000   0.103E+00       0.001      110.592
     NS sqrt iter    4 1.00000000   0.455E-02       0.001      110.592
     NS sqrt iter    5 1.00000000   0.749E-06       0.001       82.944
     Final NS sqrt iter    5 1.00000000   0.106E-11

     Est. extremal eigenvalues     -0.93802     1.68079  converged:  T
     TRS4 it   1 1.00000000   0.870E+00       0.000       16.128   0.100E-07
     TRS4 it   2 1.00000000   0.627E+00       0.001       32.256   0.100E-07
     TRS4 it   3 1.00000000   0.441E+00       0.001       32.256   0.100E-07
     TRS4 it   4 1.00000000   0.243E+00       0.001       32.256   0.100E-07
     TRS4 it   5 1.00000000   0.932E-01       0.001       32.256   0.100E-07
     TRS4 it   6 1.00000000   0.175E-01       0.001       32.256   0.100E-07
     TRS4 it   7 1.00000000   0.840E-03       0.001       32.256   0.100E-07
     TRS4 it   8 1.00000000   0.262E-05       0.001       32.256   0.100E-07
     TRS4 it   9 1.00000000   0.298E-10       0.001       32.256   0.100E-07
     Final TRS4 iteration    9 1.00000000   0.298E-10
     Chemical potential (mu):      -0.01319
 
 PAO| energy:  -7.6970260003550814      penalty:   5.4484898262668566E-006
 PAO|LS| Need extra step
 PAO|LS| adapt:  T T F
 PAO|LS| adapt: scan_steps:    0.0000000000000000       0.40000000000000002        0.0000000000000000     
 PAO|LS| adapt: energies:   -7.5570554147883984       -7.6970260003550814        0.0000000000000000     
 PAO| ======================= Iteration:         5 =============================

     Lanczos converged:  T threshold:   0.100E-02
     Est. extremal eigenvalues:    0.268E+01   0.191E+00
     Est. condition number :    0.141E+02
     NS sqrt iter    1 1.00000000   0.696E+00       0.001       64.512
     NS sqrt iter    2 1.00000000   0.312E+00       0.001      110.592
     NS sqrt iter    3 1.00000000   0.632E-01       0.001      110.592
     NS sqrt iter    4 1.00000000   0.121E-02       0.001      110.592
     NS sqrt iter    5 1.00000000   0.169E-07       0.001       50.048
     Final NS sqrt iter    5 1.00000000   0.522E-08

     Est. extremal eigenvalues     -0.93947     1.59925  converged:  T
     TRS4 it   1 1.00000000   0.861E+00       0.000       16.128   0.100E-07
     TRS4 it   2 1.00000000   0.587E+00       0.001       32.256   0.100E-07
     TRS4 it   3 1.00000000   0.386E+00       0.001       32.256   0.100E-07
     TRS4 it   4 1.00000000   0.181E+00       0.001       32.256   0.100E-07
     TRS4 it   5 1.00000000   0.490E-01       0.001       32.256   0.100E-07
     TRS4 it   6 1.00000000   0.449E-02       0.001       32.256   0.100E-07
     TRS4 it   7 1.00000000   0.487E-04       0.001       32.256   0.100E-07
     TRS4 it   8 1.00000000   0.746E-08       0.001       32.256   0.100E-07
     Final TRS4 iteration    8 1.00000000   0.746E-08
     Chemical potential (mu):       0.03149
 
 PAO| energy:  -7.6443857697288751      penalty:   8.7175733207615097E-005
 PAO|LS| Need extra step
 PAO|LS| adapt:  T T T
 PAO|LS| adapt: scan_steps:    0.0000000000000000       0.40000000000000002       0.80000000000000004     
 PAO|LS| adapt: energies:   -7.5570554147883984       -7.6970260003550814       -7.6443857697288751     
 PAO|LS| adapt: suggested step_size:   0.49068063431393188     
 PAO|LS| adapt: predicted energy  -7.7019754828431211     
 PAO| ======================= Iteration:         6 =============================

     Lanczos converged:  T threshold:   0.100E-02
     Est. extremal eigenvalues:    0.297E+01   0.169E+00
     Est. condition number :    0.176E+02
     NS sqrt iter    1 1.00000000   0.747E+00       0.001       64.512
     NS sqrt iter    2 1.00000000   0.359E+00       0.001      110.592
     NS sqrt iter    3 1.00000000   0.921E-01       0.001      110.592
     NS sqrt iter    4 1.00000000   0.333E-02       0.001      110.592
     NS sqrt iter    5 1.00000000   0.321E-06       0.001       81.408
     Final NS sqrt iter    5 1.00000000   0.704E-09

     Est. extremal eigenvalues     -0.93949     1.65701  converged:  T
     TRS4 it   1 1.00000000   0.868E+00       0.000       16.128   0.100E-07
     TRS4 it   2 1.00000000   0.616E+00       0.001       32.256   0.100E-07
     TRS4 it   3 1.00000000   0.427E+00       0.001       32.256   0.100E-07
     TRS4 it   4 1.00000000   0.227E+00       0.001       32.256   0.100E-07
     TRS4 it   5 1.00000000   0.804E-01       0.001       32.256   0.100E-07
     TRS4 it   6 1.00000000   0.128E-01       0.001       32.256   0.100E-07
     TRS4 it   7 1.00000000   0.435E-03       0.001       32.256   0.100E-07
     TRS4 it   8 1.00000000   0.674E-06       0.001       32.256   0.100E-07
     TRS4 it   9 1.00000000   0.194E-11       0.001       32.256   0.100E-07
     Final TRS4 iteration    9 1.00000000   0.194E-11
     Chemical potential (mu):      -0.00065
 
 PAO| energy:  -7.7011862902833705      penalty:   1.2337627663446993E-005
 PAO|CG| warming up with steepest descent
 PAO|CG| beta:    0.0000000000000000     
 PAO| norm of gradient:  0.39684188982976354     
 PAO| energy improvement: -0.14413087549497217     
 PAO| step      6                   -7.701186290  0.248E-01  0.491E+00     0.078
 PAO|LS| adapt:  T F F
 PAO|LS| adapt: scan_steps:    0.0000000000000000        0.0000000000000000        0.0000000000000000     
 PAO|LS| adapt: energies:   -7.7011862902833705        0.0000000000000000        0.0000000000000000     
 PAO| ======================= Iteration:         7 =============================

     Lanczos converged:  T threshold:   0.100E-02
     Est. extremal eigenvalues:    0.287E+01   0.184E+00
     Est. condition number :    0.156E+02
     NS sqrt iter    1 1.00000000   0.729E+00       0.001       64.512
     NS sqrt iter    2 1.00000000   0.338E+00       0.001      110.592
     NS sqrt iter    3 1.00000000   0.771E-01       0.001      110.592
     NS sqrt iter    4 1.00000000   0.199E-02       0.001      110.592
     NS sqrt iter    5 1.00000000   0.728E-07       0.001       73.600
     Final NS sqrt iter    5 1.00000000   0.457E-09

     Est. extremal eigenvalues     -0.94152     1.63111  converged:  T
     TRS4 it   1 1.00000000   0.863E+00       0.000       16.128   0.100E-07
     TRS4 it   2 1.00000000   0.611E+00       0.001       32.256   0.100E-07
     TRS4 it   3 1.00000000   0.423E+00       0.001       32.256   0.100E-07
     TRS4 it   4 1.00000000   0.225E+00       0.001       32.256   0.100E-07
     TRS4 it   5 1.00000000   0.791E-01       0.001       32.256   0.100E-07
     TRS4 it   6 1.00000000   0.122E-01       0.001       32.256   0.100E-07
     TRS4 it   7 1.00000000   0.381E-03       0.001       32.256   0.100E-07
     TRS4 it   8 1.00000000   0.479E-06       0.001       32.256   0.100E-07
     TRS4 it   9 1.00000000   0.919E-12       0.001       32.256   0.100E-07
     Final TRS4 iteration    9 1.00000000   0.919E-12
     Chemical potential (mu):       0.00117
 
 PAO| energy:  -7.6959381665494631      penalty:   1.8005866362398754E-005
 PAO|LS| adapt:  T F T
 PAO|LS| adapt: scan_steps:    0.0000000000000000        0.0000000000000000       0.49068063431393188     
 PAO|LS| adapt: energies:   -7.7011862902833705        0.0000000000000000       -7.6959381665494631     
 PAO| ======================= Iteration:         8 =============================

     Lanczos converged:  T threshold:   0.100E-02
     Est. extremal eigenvalues:    0.292E+01   0.176E+00
     Est. condition number :    0.166E+02
     NS sqrt iter    1 1.00000000   0.738E+00       0.001       64.512
     NS sqrt iter    2 1.00000000   0.349E+00       0.001      110.592
     NS sqrt iter    3 1.00000000   0.844E-01       0.001      110.592
     NS sqrt iter    4 1.00000000   0.259E-02       0.001      110.592
     NS sqrt iter    5 1.00000000   0.156E-06       0.001       78.592
     Final NS sqrt iter    5 1.00000000   0.108E-08

     Est. extremal eigenvalues     -0.94135     1.64336  converged:  T
     TRS4 it   1 1.00000000   0.865E+00       0.000       16.128   0.100E-07
     TRS4 it   2 1.00000000   0.613E+00       0.001       32.256   0.100E-07
     TRS4 it   3 1.00000000   0.425E+00       0.001       32.256   0.100E-07
     TRS4 it   4 1.00000000   0.225E+00       0.001       32.256   0.100E-07
     TRS4 it   5 1.00000000   0.796E-01       0.001       32.256   0.100E-07
     TRS4 it   6 1.00000000   0.126E-01       0.001       32.256   0.100E-07
     TRS4 it   7 1.00000000   0.419E-03       0.001       32.256   0.100E-07
     TRS4 it   8 1.00000000   0.605E-06       0.001       32.256   0.100E-07
     TRS4 it   9 1.00000000   0.152E-11       0.001       32.256   0.100E-07
     Final TRS4 iteration    9 1.00000000   0.152E-11
     Chemical potential (mu):      -0.00015
 
 PAO| energy:  -7.7189819470739121      penalty:   1.3260565771983437E-005
 PAO|LS| adapt:  T T T
 PAO|LS| adapt: scan_steps:    0.0000000000000000       0.24534031715696594       0.49068063431393188     
 PAO|LS| adapt: energies:   -7.7011862902833705       -7.7189819470739121       -7.6959381665494631     
 PAO|LS| adapt: suggested step_size:   0.22957643271084943     
 PAO|LS| adapt: predicted energy  -7.7190662491742144     
 PAO| ======================= Iteration:         9 =============================

     Lanczos converged:  T threshold:   0.100E-02
     Est. extremal eigenvalues:    0.292E+01   0.176E+00
     Est. condition number :    0.166E+02
     NS sqrt iter    1 1.00000000   0.739E+00       0.001       64.512
     NS sqrt iter    2 1.00000000   0.350E+00       0.001      110.592
     NS sqrt iter    3 1.00000000   0.849E-01       0.001      110.592
     NS sqrt iter    4 1.00000000   0.264E-02       0.001      110.592
     NS sqrt iter    5 1.00000000   0.164E-06       0.001       78.720
     Final NS sqrt iter    5 1.00000000   0.108E-08

     Est. extremal eigenvalues     -0.94128     1.64420  converged:  T
     TRS4 it   1 1.00000000   0.865E+00       0.000       16.128   0.100E-07
     TRS4 it   2 1.00000000   0.613E+00       0.001       32.256   0.100E-07
     TRS4 it   3 1.00000000   0.425E+00       0.001       32.256   0.100E-07
     TRS4 it   4 1.00000000   0.225E+00       0.001       32.256   0.100E-07
     TRS4 it   5 1.00000000   0.796E-01       0.001       32.256   0.100E-07
     TRS4 it   6 1.00000000   0.126E-01       0.001       32.256   0.100E-07
     TRS4 it   7 1.00000000   0.421E-03       0.001       32.256   0.100E-07
     TRS4 it   8 1.00000000   0.612E-06       0.001       32.256   0.100E-07
     TRS4 it   9 1.00000000   0.156E-11       0.001       32.256   0.100E-07
     Final TRS4 iteration    9 1.00000000   0.156E-11
     Chemical potential (mu):      -0.00020
 
 PAO| energy:  -7.7190868449179382      penalty:   1.3117676102682624E-005
 PAO|CG| trace_G_new    3.6509123065613748E-002
 PAO|CG| trace_G_prev   0.15748348552365823     
 PAO|CG| trace_G_mix   -1.2662059002184953E-003
 PAO|CG| trace_D   0.15748348552365823     
 PAO|CG| trace_D_Gnew   1.2662059002184953E-003
 PAO|CG| beta:   0.23986850964228487     
 PAO| norm of gradient:  0.19107360640761914     
 PAO| energy improvement:  -1.7900554634567634E-002
 PAO| step      9                   -7.719086845  0.119E-01  0.230E+00     0.050
 PAO|LS| adapt:  T F F
 PAO|LS| adapt: scan_steps:    0.0000000000000000        0.0000000000000000        0.0000000000000000     
 PAO|LS| adapt: energies:   -7.7190868449179382        0.0000000000000000        0.0000000000000000     
 PAO| ======================= Iteration:        10 =============================

     Lanczos converged:  T threshold:   0.100E-02
     Est. extremal eigenvalues:    0.288E+01   0.182E+00
     Est. condition number :    0.158E+02
     NS sqrt iter    1 1.00000000   0.730E+00       0.001       64.512
     NS sqrt iter    2 1.00000000   0.341E+00       0.001      110.592
     NS sqrt iter    3 1.00000000   0.792E-01       0.001      110.592
     NS sqrt iter    4 1.00000000   0.213E-02       0.001      110.592
     NS sqrt iter    5 1.00000000   0.852E-07       0.001       74.496
     Final NS sqrt iter    5 1.00000000   0.578E-09

     Est. extremal eigenvalues     -0.94229     1.63753  converged:  T
     TRS4 it   1 1.00000000   0.863E+00       0.000       16.128   0.100E-07
     TRS4 it   2 1.00000000   0.611E+00       0.001       32.256   0.100E-07
     TRS4 it   3 1.00000000   0.422E+00       0.001       32.256   0.100E-07
     TRS4 it   4 1.00000000   0.222E+00       0.001       32.256   0.100E-07
     TRS4 it   5 1.00000000   0.773E-01       0.001       32.256   0.100E-07
     TRS4 it   6 1.00000000   0.118E-01       0.001       32.256   0.100E-07
     TRS4 it   7 1.00000000   0.366E-03       0.001       32.256   0.100E-07
     TRS4 it   8 1.00000000   0.448E-06       0.001       32.256   0.100E-07
     TRS4 it   9 1.00000000   0.813E-12       0.001       32.256   0.100E-07
     Final TRS4 iteration    9 1.00000000   0.813E-12
     Chemical potential (mu):       0.00270
 
 PAO| energy:  -7.7239001841413950      penalty:   1.3618942784187162E-005
 PAO|LS| adapt:  T T F
 PAO|LS| adapt: scan_steps:    0.0000000000000000       0.22957643271084943        0.0000000000000000     
 PAO|LS| adapt: energies:   -7.7190868449179382       -7.7239001841413950        0.0000000000000000     
 PAO| ======================= Iteration:        11 =============================

     Lanczos converged:  T threshold:   0.100E-02
     Est. extremal eigenvalues:    0.284E+01   0.189E+00
     Est. condition number :    0.150E+02
     NS sqrt iter    1 1.00000000   0.721E+00       0.001       64.512
     NS sqrt iter    2 1.00000000   0.332E+00       0.001      110.592
     NS sqrt iter    3 1.00000000   0.737E-01       0.001      110.592
     NS sqrt iter    4 1.00000000   0.171E-02       0.001      110.592
     NS sqrt iter    5 1.00000000   0.434E-07       0.001       68.608
     Final NS sqrt iter    5 1.00000000   0.459E-09

     Est. extremal eigenvalues     -0.94217     1.63194  converged:  T
     TRS4 it   1 1.00000000   0.861E+00       0.000       16.128   0.100E-07
     TRS4 it   2 1.00000000   0.609E+00       0.001       32.256   0.100E-07
     TRS4 it   3 1.00000000   0.419E+00       0.001       32.256   0.100E-07
     TRS4 it   4 1.00000000   0.219E+00       0.001       32.256   0.100E-07
     TRS4 it   5 1.00000000   0.750E-01       0.001       32.256   0.100E-07
     TRS4 it   6 1.00000000   0.111E-01       0.001       32.256   0.100E-07
     TRS4 it   7 1.00000000   0.317E-03       0.001       32.256   0.100E-07
     TRS4 it   8 1.00000000   0.325E-06       0.001       32.256   0.100E-07
     TRS4 it   9 1.00000000   0.411E-12       0.001       32.256   0.100E-07
     Final TRS4 iteration    9 1.00000000   0.411E-12
     Chemical potential (mu):       0.00570
 
 PAO| energy:  -7.7219898883561768      penalty:   1.4761052024059290E-005
 PAO|LS| adapt:  T T T
 PAO|LS| adapt: scan_steps:    0.0000000000000000       0.22957643271084943       0.45915286542169886     
 PAO|LS| adapt: energies:   -7.7190868449179382       -7.7239001841413950       -7.7219898883561768     
 PAO|LS| adapt: suggested step_size:   0.27913819176644766     
 PAO|LS| adapt: predicted energy  -7.7240568639208860     
 PAO| ======================= Iteration:        12 =============================

     Lanczos converged:  T threshold:   0.100E-02
     Est. extremal eigenvalues:    0.287E+01   0.184E+00
     Est. condition number :    0.156E+02
     NS sqrt iter    1 1.00000000   0.728E+00       0.001       64.512
     NS sqrt iter    2 1.00000000   0.339E+00       0.001      110.592
     NS sqrt iter    3 1.00000000   0.780E-01       0.001      110.592
     NS sqrt iter    4 1.00000000   0.203E-02       0.001      110.592
     NS sqrt iter    5 1.00000000   0.738E-07       0.001       73.728
     Final NS sqrt iter    5 1.00000000   0.464E-09

     Est. extremal eigenvalues     -0.94235     1.63623  converged:  T
     TRS4 it   1 1.00000000   0.862E+00       0.000       16.128   0.100E-07
     TRS4 it   2 1.00000000   0.611E+00       0.001       32.256   0.100E-07
     TRS4 it   3 1.00000000   0.421E+00       0.001       32.256   0.100E-07
     TRS4 it   4 1.00000000   0.221E+00       0.001       32.256   0.100E-07
     TRS4 it   5 1.00000000   0.768E-01       0.001       32.256   0.100E-07
     TRS4 it   6 1.00000000   0.117E-01       0.001       32.256   0.100E-07
     TRS4 it   7 1.00000000   0.355E-03       0.001       32.256   0.100E-07
     TRS4 it   8 1.00000000   0.418E-06       0.001       32.256   0.100E-07
     TRS4 it   9 1.00000000   0.703E-12       0.001       32.256   0.100E-07
     Final TRS4 iteration    9 1.00000000   0.703E-12
     Chemical potential (mu):       0.00334
 
 PAO| energy:  -7.7240424541270967      penalty:   1.3805035352531997E-005
 PAO|CG| trace_G_new    1.2150039087295433E-002
 PAO|CG| trace_G_prev    3.6509123065613748E-002
 PAO|CG| trace_G_mix   -4.6444483621796916E-004
 PAO|CG| trace_D    4.4962789081523603E-002
 PAO|CG| trace_D_Gnew   2.6326773552684101E-004
 PAO|CG| beta:   0.34551593860095753     
 PAO| norm of gradient:  0.11022721572867308     
 PAO| energy improvement:  -4.9556092091584958E-003
 PAO| step     12                   -7.724042454  0.689E-02  0.279E+00     0.049
 PAO|LS| adapt:  T F F
 PAO|LS| adapt: scan_steps:    0.0000000000000000        0.0000000000000000        0.0000000000000000     
 PAO|LS| adapt: energies:   -7.7240424541270967        0.0000000000000000        0.0000000000000000     
 PAO| ======================= Iteration:        13 =============================

     Lanczos converged:  T threshold:   0.100E-02
     Est. extremal eigenvalues:    0.283E+01   0.188E+00
     Est. condition number :    0.150E+02
     NS sqrt iter    1 1.00000000   0.720E+00       0.001       64.512
     NS sqrt iter    2 1.00000000   0.332E+00       0.001      110.592
     NS sqrt iter    3 1.00000000   0.736E-01       0.001      110.592
     NS sqrt iter    4 1.00000000   0.172E-02       0.001      110.592
     NS sqrt iter    5 1.00000000   0.443E-07       0.001       68.736
     Final NS sqrt iter    5 1.00000000   0.473E-09

     Est. extremal eigenvalues     -0.94294     1.63191  converged:  T
     TRS4 it   1 1.00000000   0.862E+00       0.000       16.128   0.100E-07
     TRS4 it   2 1.00000000   0.608E+00       0.001       32.256   0.100E-07
     TRS4 it   3 1.00000000   0.418E+00       0.001       32.256   0.100E-07
     TRS4 it   4 1.00000000   0.217E+00       0.001       32.256   0.100E-07
     TRS4 it   5 1.00000000   0.734E-01       0.001       32.256   0.100E-07
     TRS4 it   6 1.00000000   0.106E-01       0.001       32.256   0.100E-07
     TRS4 it   7 1.00000000   0.291E-03       0.001       32.256   0.100E-07
     TRS4 it   8 1.00000000   0.274E-06       0.001       32.256   0.100E-07
     TRS4 it   9 1.00000000   0.293E-12       0.001       32.256   0.100E-07
     Final TRS4 iteration    9 1.00000000   0.293E-12
     Chemical potential (mu):       0.00733
 
 PAO| energy:  -7.7261812631967910      penalty:   1.4078806322976901E-005
 PAO|LS| adapt:  T T F
 PAO|LS| adapt: scan_steps:    0.0000000000000000       0.27913819176644766        0.0000000000000000     
 PAO|LS| adapt: energies:   -7.7240424541270967       -7.7261812631967910        0.0000000000000000     
 PAO| ======================= Iteration:        14 =============================

     Lanczos converged:  T threshold:   0.100E-02
     Est. extremal eigenvalues:    0.279E+01   0.193E+00
     Est. condition number :    0.145E+02
     NS sqrt iter    1 1.00000000   0.712E+00       0.001       64.512
     NS sqrt iter    2 1.00000000   0.324E+00       0.001       83.559
     NS sqrt iter    3 1.00000000   0.695E-01       0.001       82.806
     NS sqrt iter    4 1.00000000   0.145E-02       0.001       83.602
     NS sqrt iter    5 1.00000000   0.263E-07       0.001       46.677
     Final NS sqrt iter    5 1.00000000   0.318E-08

     Est. extremal eigenvalues     -0.94303     1.62787  converged:  T
     TRS4 it   1 1.00000000   0.862E+00       0.000       16.128   0.100E-07
     TRS4 it   2 1.00000000   0.606E+00       0.001       32.256   0.100E-07
     TRS4 it   3 1.00000000   0.414E+00       0.001       32.256   0.100E-07
     TRS4 it   4 1.00000000   0.213E+00       0.001       32.256   0.100E-07
     TRS4 it   5 1.00000000   0.702E-01       0.001       32.256   0.100E-07
     TRS4 it   6 1.00000000   0.968E-02       0.001       32.256   0.100E-07
     TRS4 it   7 1.00000000   0.239E-03       0.001       32.256   0.100E-07
     TRS4 it   8 1.00000000   0.180E-06       0.001       32.256   0.100E-07
     TRS4 it   9 1.00000000   0.123E-12       0.001       32.256   0.100E-07
     Final TRS4 iteration    9 1.00000000   0.123E-12
     Chemical potential (mu):       0.01118
 
 PAO| energy:  -7.7259107749762643      penalty:   1.4782880275603448E-005
 PAO|LS| adapt:  T T T
 PAO|LS| adapt: scan_steps:    0.0000000000000000       0.27913819176644766       0.55827638353289533     
 PAO|LS| adapt: energies:   -7.7240424541270967       -7.7261812631967910       -7.7259107749762643     
 PAO|LS| adapt: suggested step_size:   0.38736885835811147     
 PAO|LS| adapt: predicted energy  -7.7263623649027524     
 PAO| ======================= Iteration:        15 =============================

     Lanczos converged:  T threshold:   0.100E-02
     Est. extremal eigenvalues:    0.282E+01   0.190E+00
     Est. condition number :    0.148E+02
     NS sqrt iter    1 1.00000000   0.717E+00       0.001       64.512
     NS sqrt iter    2 1.00000000   0.329E+00       0.001      110.592
     NS sqrt iter    3 1.00000000   0.720E-01       0.001      110.592
     NS sqrt iter    4 1.00000000   0.161E-02       0.001      110.592
     NS sqrt iter    5 1.00000000   0.363E-07       0.001       67.328
     Final NS sqrt iter    5 1.00000000   0.715E-09

     Est. extremal eigenvalues     -0.94303     1.63031  converged:  T
     TRS4 it   1 1.00000000   0.862E+00       0.000       16.128   0.100E-07
     TRS4 it   2 1.00000000   0.607E+00       0.001       32.256   0.100E-07
     TRS4 it   3 1.00000000   0.416E+00       0.001       32.256   0.100E-07
     TRS4 it   4 1.00000000   0.215E+00       0.001       32.256   0.100E-07
     TRS4 it   5 1.00000000   0.721E-01       0.001       32.256   0.100E-07
     TRS4 it   6 1.00000000   0.103E-01       0.001       32.256   0.100E-07
     TRS4 it   7 1.00000000   0.269E-03       0.001       32.256   0.100E-07
     TRS4 it   8 1.00000000   0.233E-06       0.001       32.256   0.100E-07
     TRS4 it   9 1.00000000   0.210E-12       0.001       32.256   0.100E-07
     Final TRS4 iteration    9 1.00000000   0.210E-12
     Chemical potential (mu):       0.00884
 
 PAO| energy:  -7.7263585976065414      penalty:   1.4296934706281660E-005
 PAO|CG| trace_G_new    2.6331912695590227E-003
 PAO|CG| trace_G_prev    1.2150039087295433E-002
 PAO|CG| trace_G_mix    8.9704151090349400E-005
 PAO|CG| trace_D    1.7335827275560267E-002
 PAO|CG| trace_D_Gnew   2.2543801611289355E-005
 PAO|CG| beta:   0.20933983011859159     
 PAO| norm of gradient:   5.1314630170732234E-002
 PAO| energy improvement:  -2.3161434794447544E-003
 PAO| step     15                   -7.726358598  0.321E-02  0.387E+00     0.051
 PAO|LS| adapt:  T F F
 PAO|LS| adapt: scan_steps:    0.0000000000000000        0.0000000000000000        0.0000000000000000     
 PAO|LS| adapt: energies:   -7.7263585976065414        0.0000000000000000        0.0000000000000000     
 PAO| ======================= Iteration:        16 =============================

     Lanczos converged:  T threshold:   0.100E-02
     Est. extremal eigenvalues:    0.281E+01   0.191E+00
     Est. condition number :    0.147E+02
     NS sqrt iter    1 1.00000000   0.714E+00       0.001       64.512
     NS sqrt iter    2 1.00000000   0.327E+00       0.001       84.353
     NS sqrt iter    3 1.00000000   0.712E-01       0.001       81.348
     NS sqrt iter    4 1.00000000   0.154E-02       0.002       69.656
     NS sqrt iter    5 1.00000000   0.315E-07       0.002       35.870
     Final NS sqrt iter    5 1.00000000   0.748E-09

     Est. extremal eigenvalues     -0.94307     1.62916  converged:  T
     TRS4 it   1 1.00000000   0.862E+00       0.001       16.128   0.100E-07
     TRS4 it   2 1.00000000   0.606E+00       0.001       32.256   0.100E-07
     TRS4 it   3 1.00000000   0.415E+00       0.001       29.354   0.100E-07
     TRS4 it   4 1.00000000   0.213E+00       0.001       25.827   0.100E-07
     TRS4 it   5 1.00000000   0.709E-01       0.001       32.256   0.100E-07
     TRS4 it   6 1.00000000   0.991E-02       0.001       30.663   0.100E-07
     TRS4 it   7 1.00000000   0.252E-03       0.001       32.256   0.100E-07
     TRS4 it   8 1.00000000   0.205E-06       0.001       32.256   0.100E-07
     TRS4 it   9 1.00000000   0.163E-12       0.001       32.256   0.100E-07
     Final TRS4 iteration    9 1.00000000   0.163E-12
     Chemical potential (mu):       0.00985
 
 PAO| energy:  -7.7264589604659504      penalty:   1.4095739106889608E-005
 PAO|LS| adapt:  T T F
 PAO|LS| adapt: scan_steps:    0.0000000000000000       0.38736885835811147        0.0000000000000000     
 PAO|LS| adapt: energies:   -7.7263585976065414       -7.7264589604659504        0.0000000000000000     
 PAO| ======================= Iteration:        17 =============================

     Lanczos converged:  T threshold:   0.100E-02
     Est. extremal eigenvalues:    0.279E+01   0.192E+00
     Est. condition number :    0.145E+02
     NS sqrt iter    1 1.00000000   0.711E+00       0.002       36.841
     NS sqrt iter    2 1.00000000   0.326E+00       0.002       64.971
     NS sqrt iter    3 1.00000000   0.704E-01       0.001       79.886
     NS sqrt iter    4 1.00000000   0.148E-02       0.001       77.541
     NS sqrt iter    5 1.00000000   0.274E-07       0.001       55.645
     Final NS sqrt iter    5 1.00000000   0.309E-08

     Est. extremal eigenvalues     -0.94297     1.62804  converged:  T
     TRS4 it   1 1.00000000   0.862E+00       0.001       16.128   0.100E-07
     TRS4 it   2 1.00000000   0.605E+00       0.001       32.256   0.100E-07
     TRS4 it   3 1.00000000   0.413E+00       0.001       32.256   0.100E-07
     TRS4 it   4 1.00000000   0.211E+00       0.001       32.256   0.100E-07
     TRS4 it   5 1.00000000   0.696E-01       0.001       32.256   0.100E-07
     TRS4 it   6 1.00000000   0.958E-02       0.001       32.256   0.100E-07
     TRS4 it   7 1.00000000   0.237E-03       0.001       32.256   0.100E-07
     TRS4 it   8 1.00000000   0.180E-06       0.001       32.256   0.100E-07
     TRS4 it   9 1.00000000   0.126E-12       0.001       32.256   0.100E-07
     Final TRS4 iteration    9 1.00000000   0.126E-12
     Chemical potential (mu):       0.01082
 
 PAO| energy:  -7.7247161555358224      penalty:   1.4022172440481220E-005
 PAO|LS| adapt:  T T T
 PAO|LS| adapt: scan_steps:    0.0000000000000000       0.38736885835811147       0.77473771671622293     
 PAO|LS| adapt: energies:   -7.7263585976065414       -7.7264589604659504       -7.7247161555358224     
 PAO|LS| adapt: suggested step_size:   0.21477716229402000     
 PAO|LS| adapt: predicted energy  -7.7266419074534003     
 PAO| ======================= Iteration:        18 =============================

     Lanczos converged:  T threshold:   0.100E-02
     Est. extremal eigenvalues:    0.281E+01   0.191E+00
     Est. condition number :    0.147E+02
     NS sqrt iter    1 1.00000000   0.715E+00       0.001       54.259
     NS sqrt iter    2 1.00000000   0.328E+00       0.001       91.072
     NS sqrt iter    3 1.00000000   0.715E-01       0.001      110.592
     NS sqrt iter    4 1.00000000   0.157E-02       0.001      110.592
     NS sqrt iter    5 1.00000000   0.336E-07       0.001       67.072
     Final NS sqrt iter    5 1.00000000   0.721E-09

     Est. extremal eigenvalues     -0.94307     1.62967  converged:  T
     TRS4 it   1 1.00000000   0.862E+00       0.001       16.128   0.100E-07
     TRS4 it   2 1.00000000   0.607E+00       0.001       32.256   0.100E-07
     TRS4 it   3 1.00000000   0.415E+00       0.001       32.256   0.100E-07
     TRS4 it   4 1.00000000   0.214E+00       0.001       32.256   0.100E-07
     TRS4 it   5 1.00000000   0.714E-01       0.001       32.256   0.100E-07
     TRS4 it   6 1.00000000   0.101E-01       0.001       32.256   0.100E-07
     TRS4 it   7 1.00000000   0.260E-03       0.001       32.256   0.100E-07
     TRS4 it   8 1.00000000   0.217E-06       0.001       32.256   0.100E-07
     TRS4 it   9 1.00000000   0.183E-12       0.001       32.256   0.100E-07
     Final TRS4 iteration    9 1.00000000   0.183E-12
     Chemical potential (mu):       0.00940
 
 PAO| energy:  -7.7266412656711170      penalty:   1.4169962633952378E-005
 PAO|CG| trace_G_new    7.5115797023628749E-004
 PAO|CG| trace_G_prev    2.6331912695590227E-003
 PAO|CG| trace_G_mix   -8.3708922064614666E-007
 PAO|CG| trace_D    3.3834634483510865E-003
 PAO|CG| trace_D_Gnew  -2.0142992291967928E-006
 PAO|CG| beta:   0.28558315081413332     
 PAO| norm of gradient:   2.7407261268435547E-002
 PAO| energy improvement:  -2.8266806457555305E-004
 PAO| step     18                   -7.726641266  0.171E-02  0.215E+00     0.066
 PAO|LS| adapt:  T F F
 PAO|LS| adapt: scan_steps:    0.0000000000000000        0.0000000000000000        0.0000000000000000     
 PAO|LS| adapt: energies:   -7.7266412656711170        0.0000000000000000        0.0000000000000000     
 PAO| ======================= Iteration:        19 =============================

     Lanczos converged:  T threshold:   0.100E-02
     Est. extremal eigenvalues:    0.281E+01   0.191E+00
     Est. condition number :    0.147E+02
     NS sqrt iter    1 1.00000000   0.715E+00       0.001       64.512
     NS sqrt iter    2 1.00000000   0.328E+00       0.001      110.592
     NS sqrt iter    3 1.00000000   0.717E-01       0.001      101.150
     NS sqrt iter    4 1.00000000   0.157E-02       0.001       75.894
     NS sqrt iter    5 1.00000000   0.335E-07       0.001       49.446
     Final NS sqrt iter    5 1.00000000   0.690E-09

     Est. extremal eigenvalues     -0.94307     1.63003  converged:  T
     TRS4 it   1 1.00000000   0.862E+00       0.000       16.128   0.100E-07
     TRS4 it   2 1.00000000   0.607E+00       0.001       32.256   0.100E-07
     TRS4 it   3 1.00000000   0.415E+00       0.001       32.256   0.100E-07
     TRS4 it   4 1.00000000   0.214E+00       0.001       32.256   0.100E-07
     TRS4 it   5 1.00000000   0.714E-01       0.001       32.256   0.100E-07
     TRS4 it   6 1.00000000   0.101E-01       0.001       32.256   0.100E-07
     TRS4 it   7 1.00000000   0.260E-03       0.001       32.256   0.100E-07
     TRS4 it   8 1.00000000   0.219E-06       0.001       32.256   0.100E-07
     TRS4 it   9 1.00000000   0.185E-12       0.001       32.256   0.100E-07
     Final TRS4 iteration    9 1.00000000   0.185E-12
     Chemical potential (mu):       0.00929
 
 PAO| energy:  -7.7267638818254083      penalty:   1.3897215622646497E-005
 PAO|LS| adapt:  T T F
 PAO|LS| adapt: scan_steps:    0.0000000000000000       0.21477716229402000        0.0000000000000000     
 PAO|LS| adapt: energies:   -7.7266412656711170       -7.7267638818254083        0.0000000000000000     
 PAO| ======================= Iteration:        20 =============================

     Lanczos converged:  T threshold:   0.100E-02
     Est. extremal eigenvalues:    0.281E+01   0.191E+00
     Est. condition number :    0.147E+02
     NS sqrt iter    1 1.00000000   0.715E+00       0.001       64.512
     NS sqrt iter    2 1.00000000   0.328E+00       0.001      110.592
     NS sqrt iter    3 1.00000000   0.718E-01       0.001      110.592
     NS sqrt iter    4 1.00000000   0.158E-02       0.001       80.452
     NS sqrt iter    5 1.00000000   0.334E-07       0.001       50.828
     Final NS sqrt iter    5 1.00000000   0.690E-09

     Est. extremal eigenvalues     -0.94307     1.63040  converged:  T
     TRS4 it   1 1.00000000   0.862E+00       0.000       16.128   0.100E-07
     TRS4 it   2 1.00000000   0.607E+00       0.001       32.256   0.100E-07
     TRS4 it   3 1.00000000   0.415E+00       0.001       32.256   0.100E-07
     TRS4 it   4 1.00000000   0.214E+00       0.001       32.256   0.100E-07
     TRS4 it   5 1.00000000   0.713E-01       0.001       32.256   0.100E-07
     TRS4 it   6 1.00000000   0.101E-01       0.001       32.256   0.100E-07
     TRS4 it   7 1.00000000   0.261E-03       0.001       32.256   0.100E-07
     TRS4 it   8 1.00000000   0.221E-06       0.001       32.256   0.100E-07
     TRS4 it   9 1.00000000   0.190E-12       0.001       32.256   0.100E-07
     Final TRS4 iteration    9 1.00000000   0.190E-12
     Chemical potential (mu):       0.00916
 
 PAO| energy:  -7.7268083338304594      penalty:   1.3636931712255560E-005
 PAO|LS| adapt:  T T F
 PAO|LS| adapt: scan_steps:    0.0000000000000000       0.42955432458803999        0.0000000000000000     
 PAO|LS| adapt: energies:   -7.7266412656711170       -7.7268083338304594        0.0000000000000000     
 PAO| ======================= Iteration:        21 =============================

     Lanczos converged:  T threshold:   0.100E-02
     Est. extremal eigenvalues:    0.281E+01   0.191E+00
     Est. condition number :    0.147E+02
     NS sqrt iter    1 1.00000000   0.714E+00       0.001       64.512
     NS sqrt iter    2 1.00000000   0.328E+00       0.001      110.592
     NS sqrt iter    3 1.00000000   0.721E-01       0.001       80.884
     NS sqrt iter    4 1.00000000   0.159E-02       0.001       81.081
     NS sqrt iter    5 1.00000000   0.333E-07       0.001       48.672
     Final NS sqrt iter    5 1.00000000   0.693E-09

     Est. extremal eigenvalues     -0.94307     1.63114  converged:  T
     TRS4 it   1 1.00000000   0.863E+00       0.000       16.128   0.100E-07
     TRS4 it   2 1.00000000   0.607E+00       0.001       32.256   0.100E-07
     TRS4 it   3 1.00000000   0.415E+00       0.001       32.256   0.100E-07
     TRS4 it   4 1.00000000   0.214E+00       0.001       32.256   0.100E-07
     TRS4 it   5 1.00000000   0.711E-01       0.001       32.256   0.100E-07
     TRS4 it   6 1.00000000   0.100E-01       0.001       32.256   0.100E-07
     TRS4 it   7 1.00000000   0.263E-03       0.001       32.256   0.100E-07
     TRS4 it   8 1.00000000   0.225E-06       0.001       32.256   0.100E-07
     TRS4 it   9 1.00000000   0.198E-12       0.001       32.256   0.100E-07
     Final TRS4 iteration    9 1.00000000   0.198E-12
     Chemical potential (mu):       0.00890
 
 PAO| energy:  -7.7266598208198003      penalty:   1.3153244798113229E-005
 PAO|LS| Need extra step
 PAO|LS| adapt:  T T T
 PAO|LS| adapt: scan_steps:    0.0000000000000000       0.42955432458803999       0.85910864917607999     
 PAO|LS| adapt: energies:   -7.7266412656711170       -7.7268083338304594       -7.7266598208198003     
 PAO|LS| adapt: suggested step_size:   0.44218252474373265     
 PAO|LS| adapt: predicted energy  -7.7268084702032755     
 PAO| ======================= Iteration:        22 =============================

     Lanczos converged:  T threshold:   0.100E-02
     Est. extremal eigenvalues:    0.281E+01   0.191E+00
     Est. condition number :    0.147E+02
     NS sqrt iter    1 1.00000000   0.715E+00       0.001       64.512
     NS sqrt iter    2 1.00000000   0.328E+00       0.001      110.592
     NS sqrt iter    3 1.00000000   0.718E-01       0.001       81.226
     NS sqrt iter    4 1.00000000   0.158E-02       0.001       75.138
     NS sqrt iter    5 1.00000000   0.334E-07       0.001       51.375
     Final NS sqrt iter    5 1.00000000   0.690E-09

     Est. extremal eigenvalues     -0.94307     1.63042  converged:  T
     TRS4 it   1 1.00000000   0.862E+00       0.000       16.128   0.100E-07
     TRS4 it   2 1.00000000   0.607E+00       0.001       32.256   0.100E-07
     TRS4 it   3 1.00000000   0.415E+00       0.001       32.256   0.100E-07
     TRS4 it   4 1.00000000   0.214E+00       0.001       32.256   0.100E-07
     TRS4 it   5 1.00000000   0.713E-01       0.001       32.256   0.100E-07
     TRS4 it   6 1.00000000   0.101E-01       0.001       32.256   0.100E-07
     TRS4 it   7 1.00000000   0.261E-03       0.001       32.256   0.100E-07
     TRS4 it   8 1.00000000   0.221E-06       0.001       32.256   0.100E-07
     TRS4 it   9 1.00000000   0.190E-12       0.001       32.256   0.100E-07
     Final TRS4 iteration    9 1.00000000   0.190E-12
     Chemical potential (mu):       0.00915
 
 PAO| energy:  -7.7268084988439449      penalty:   1.3622012271311909E-005
 PAO|CG| trace_G_new    2.4950982710029491E-004
 PAO|CG| trace_G_prev    7.5115797023628749E-004
 PAO|CG| trace_G_mix    4.3469461546847619E-006
 PAO|CG| trace_D    1.0282560888615446E-003
 PAO|CG| trace_D_Gnew  -2.2649699004870126E-006
 PAO|CG| beta:   0.32637992361112889     
 PAO| norm of gradient:   1.5795880067292701E-002
 PAO| energy improvement:  -1.6723317282796302E-004
 PAO| step     22                   -7.726808499  0.987E-03  0.442E+00     0.074
 PAO|LS| adapt:  T F F
 PAO|LS| adapt: scan_steps:    0.0000000000000000        0.0000000000000000        0.0000000000000000     
 PAO|LS| adapt: energies:   -7.7268084988439449        0.0000000000000000        0.0000000000000000     
 PAO| ======================= Iteration:        23 =============================

     Lanczos converged:  T threshold:   0.100E-02
     Est. extremal eigenvalues:    0.281E+01   0.191E+00
     Est. condition number :    0.147E+02
     NS sqrt iter    1 1.00000000   0.715E+00       0.001       52.352
     NS sqrt iter    2 1.00000000   0.328E+00       0.001       99.059
     NS sqrt iter    3 1.00000000   0.719E-01       0.001      110.592
     NS sqrt iter    4 1.00000000   0.158E-02       0.001      107.896
     NS sqrt iter    5 1.00000000   0.331E-07       0.001       67.072
     Final NS sqrt iter    5 1.00000000   0.690E-09

     Est. extremal eigenvalues     -0.94307     1.63039  converged:  T
     TRS4 it   1 1.00000000   0.862E+00       0.000       16.128   0.100E-07
     TRS4 it   2 1.00000000   0.607E+00       0.001       32.256   0.100E-07
     TRS4 it   3 1.00000000   0.415E+00       0.001       32.256   0.100E-07
     TRS4 it   4 1.00000000   0.214E+00       0.001       32.256   0.100E-07
     TRS4 it   5 1.00000000   0.714E-01       0.001       32.256   0.100E-07
     TRS4 it   6 1.00000000   0.101E-01       0.001       32.256   0.100E-07
     TRS4 it   7 1.00000000   0.265E-03       0.001       32.256   0.100E-07
     TRS4 it   8 1.00000000   0.227E-06       0.001       32.256   0.100E-07
     TRS4 it   9 1.00000000   0.200E-12       0.001       32.256   0.100E-07
     Final TRS4 iteration    9 1.00000000   0.200E-12
     Chemical potential (mu):       0.00892
 
 PAO| energy:  -7.7268565376599607      penalty:   1.2975333764705175E-005
 PAO|LS| adapt:  T T F
 PAO|LS| adapt: scan_steps:    0.0000000000000000       0.44218252474373265        0.0000000000000000     
 PAO|LS| adapt: energies:   -7.7268084988439449       -7.7268565376599607        0.0000000000000000     
 PAO| ======================= Iteration:        24 =============================

     Lanczos converged:  T threshold:   0.100E-02
     Est. extremal eigenvalues:    0.281E+01   0.191E+00
     Est. condition number :    0.147E+02
     NS sqrt iter    1 1.00000000   0.714E+00       0.001       57.580
     NS sqrt iter    2 1.00000000   0.328E+00       0.001      110.592
     NS sqrt iter    3 1.00000000   0.719E-01       0.001      105.633
     NS sqrt iter    4 1.00000000   0.158E-02       0.001      110.592
     NS sqrt iter    5 1.00000000   0.328E-07       0.001       66.944
     Final NS sqrt iter    5 1.00000000   0.690E-09

     Est. extremal eigenvalues     -0.94307     1.63035  converged:  T
     TRS4 it   1 1.00000000   0.862E+00       0.000       16.128   0.100E-07
     TRS4 it   2 1.00000000   0.607E+00       0.001       32.256   0.100E-07
     TRS4 it   3 1.00000000   0.415E+00       0.001       32.256   0.100E-07
     TRS4 it   4 1.00000000   0.214E+00       0.001       32.256   0.100E-07
     TRS4 it   5 1.00000000   0.716E-01       0.001       32.256   0.100E-07
     TRS4 it   6 1.00000000   0.102E-01       0.001       32.256   0.100E-07
     TRS4 it   7 1.00000000   0.268E-03       0.001       32.256   0.100E-07
     TRS4 it   8 1.00000000   0.232E-06       0.001       32.256   0.100E-07
     TRS4 it   9 1.00000000   0.209E-12       0.001       32.256   0.100E-07
     Final TRS4 iteration    9 1.00000000   0.209E-12
     Chemical potential (mu):       0.00868
 
 PAO| energy:  -7.7267785962474660      penalty:   1.2357522036182486E-005
 PAO|LS| adapt:  T T T
 PAO|LS| adapt: scan_steps:    0.0000000000000000       0.44218252474373265       0.88436504948746530     
 PAO|LS| adapt: energies:   -7.7268084988439449       -7.7268565376599607       -7.7267785962474660     
 PAO|LS| adapt: suggested step_size:   0.38970442653822446     
 PAO|LS| adapt: predicted energy  -7.7268574248679052     
 PAO| ======================= Iteration:        25 =============================

     Lanczos converged:  T threshold:   0.100E-02
     Est. extremal eigenvalues:    0.281E+01   0.191E+00
     Est. condition number :    0.147E+02
     NS sqrt iter    1 1.00000000   0.715E+00       0.001       55.031
     NS sqrt iter    2 1.00000000   0.328E+00       0.001      110.592
     NS sqrt iter    3 1.00000000   0.719E-01       0.001      100.585
     NS sqrt iter    4 1.00000000   0.158E-02       0.001      110.592
     NS sqrt iter    5 1.00000000   0.331E-07       0.001       67.072
     Final NS sqrt iter    5 1.00000000   0.690E-09

     Est. extremal eigenvalues     -0.94307     1.63039  converged:  T
     TRS4 it   1 1.00000000   0.862E+00       0.000       16.128   0.100E-07
     TRS4 it   2 1.00000000   0.607E+00       0.001       32.256   0.100E-07
     TRS4 it   3 1.00000000   0.415E+00       0.001       32.256   0.100E-07
     TRS4 it   4 1.00000000   0.214E+00       0.001       32.256   0.100E-07
     TRS4 it   5 1.00000000   0.714E-01       0.001       32.256   0.100E-07
     TRS4 it   6 1.00000000   0.101E-01       0.001       32.256   0.100E-07
     TRS4 it   7 1.00000000   0.264E-03       0.001       32.256   0.100E-07
     TRS4 it   8 1.00000000   0.226E-06       0.001       32.256   0.100E-07
     TRS4 it   9 1.00000000   0.198E-12       0.001       32.256   0.100E-07
     Final TRS4 iteration    9 1.00000000   0.198E-12
     Chemical potential (mu):       0.00895
 
 PAO| energy:  -7.7268574030359103      penalty:   1.3050558706067339E-005
 PAO|CG| trace_G_new    9.6793259081868934E-005
 PAO|CG| trace_G_prev    2.4950982710029491E-004
 PAO|CG| trace_G_mix    4.9828428467419854E-007
 PAO|CG| trace_D    3.6052211054256100E-004
 PAO|CG| trace_D_Gnew  -4.0451717092737013E-007
 PAO|CG| beta:   0.38593660184168721     
 PAO| norm of gradient:   9.8383565234173610E-003
 PAO| energy improvement:  -4.8904191965348787E-005
 PAO| step     25                   -7.726857403  0.615E-03  0.390E+00     0.057
 PAO|LS| adapt:  T F F
 PAO|LS| adapt: scan_steps:    0.0000000000000000        0.0000000000000000        0.0000000000000000     
 PAO|LS| adapt: energies:   -7.7268574030359103        0.0000000000000000        0.0000000000000000     
 PAO| ======================= Iteration:        26 =============================

     Lanczos converged:  T threshold:   0.100E-02
     Est. extremal eigenvalues:    0.281E+01   0.191E+00
     Est. condition number :    0.147E+02
     NS sqrt iter    1 1.00000000   0.714E+00       0.001       64.512
     NS sqrt iter    2 1.00000000   0.328E+00       0.001      110.592
     NS sqrt iter    3 1.00000000   0.718E-01       0.001      110.592
     NS sqrt iter    4 1.00000000   0.157E-02       0.001      110.592
     NS sqrt iter    5 1.00000000   0.327E-07       0.001       66.816
     Final NS sqrt iter    5 1.00000000   0.715E-09

     Est. extremal eigenvalues     -0.94307     1.62996  converged:  T
     TRS4 it   1 1.00000000   0.862E+00       0.001       16.128   0.100E-07
     TRS4 it   2 1.00000000   0.607E+00       0.001       32.256   0.100E-07
     TRS4 it   3 1.00000000   0.415E+00       0.001       32.256   0.100E-07
     TRS4 it   4 1.00000000   0.214E+00       0.001       32.256   0.100E-07
     TRS4 it   5 1.00000000   0.714E-01       0.001       32.256   0.100E-07
     TRS4 it   6 1.00000000   0.101E-01       0.001       32.256   0.100E-07
     TRS4 it   7 1.00000000   0.264E-03       0.001       31.664   0.100E-07
     TRS4 it   8 1.00000000   0.224E-06       0.001       32.256   0.100E-07
     TRS4 it   9 1.00000000   0.196E-12       0.001       32.256   0.100E-07
     Final TRS4 iteration    9 1.00000000   0.196E-12
     Chemical potential (mu):       0.00899
 
 PAO| energy:  -7.7268668334986632      penalty:   1.2429534994755944E-005
 PAO|LS| adapt:  T T F
 PAO|LS| adapt: scan_steps:    0.0000000000000000       0.38970442653822446        0.0000000000000000     
 PAO|LS| adapt: energies:   -7.7268574030359103       -7.7268668334986632        0.0000000000000000     
 PAO| ======================= Iteration:        27 =============================

     Lanczos converged:  T threshold:   0.100E-02
     Est. extremal eigenvalues:    0.281E+01   0.191E+00
     Est. condition number :    0.147E+02
     NS sqrt iter    1 1.00000000   0.714E+00       0.001       62.801
     NS sqrt iter    2 1.00000000   0.328E+00       0.001      110.592
     NS sqrt iter    3 1.00000000   0.717E-01       0.001      110.592
     NS sqrt iter    4 1.00000000   0.157E-02       0.001      110.592
     NS sqrt iter    5 1.00000000   0.322E-07       0.001       60.683
     Final NS sqrt iter    5 1.00000000   0.782E-09

     Est. extremal eigenvalues     -0.94307     1.62952  converged:  T
     TRS4 it   1 1.00000000   0.862E+00       0.001       16.128   0.100E-07
     TRS4 it   2 1.00000000   0.607E+00       0.001       26.808   0.100E-07
     TRS4 it   3 1.00000000   0.415E+00       0.001       28.310   0.100E-07
     TRS4 it   4 1.00000000   0.214E+00       0.001       32.256   0.100E-07
     TRS4 it   5 1.00000000   0.714E-01       0.001       32.256   0.100E-07
     TRS4 it   6 1.00000000   0.101E-01       0.001       32.256   0.100E-07
     TRS4 it   7 1.00000000   0.263E-03       0.001       32.256   0.100E-07
     TRS4 it   8 1.00000000   0.223E-06       0.001       32.256   0.100E-07
     TRS4 it   9 1.00000000   0.191E-12       0.001       32.256   0.100E-07
     Final TRS4 iteration    9 1.00000000   0.191E-12
     Chemical potential (mu):       0.00904
 
 PAO| energy:  -7.7268194554032270      penalty:   1.1827701873786469E-005
 PAO|LS| adapt:  T T T
 PAO|LS| adapt: scan_steps:    0.0000000000000000       0.38970442653822446       0.77940885307644892     
 PAO|LS| adapt: energies:   -7.7268574030359103       -7.7268668334986632       -7.7268194554032270     
 PAO|LS| adapt: suggested step_size:   0.25954480882634029     
 PAO|LS| adapt: predicted energy  -7.7268700020855619     
 PAO| ======================= Iteration:        28 =============================

     Lanczos converged:  T threshold:   0.100E-02
     Est. extremal eigenvalues:    0.281E+01   0.191E+00
     Est. condition number :    0.147E+02
     NS sqrt iter    1 1.00000000   0.714E+00       0.001       51.905
     NS sqrt iter    2 1.00000000   0.328E+00       0.002       49.394
     NS sqrt iter    3 1.00000000   0.718E-01       0.001       91.303
     NS sqrt iter    4 1.00000000   0.157E-02       0.001       90.598
     NS sqrt iter    5 1.00000000   0.328E-07       0.001       67.072
     Final NS sqrt iter    5 1.00000000   0.686E-09

     Est. extremal eigenvalues     -0.94307     1.63010  converged:  T
     TRS4 it   1 1.00000000   0.862E+00       0.000       16.128   0.100E-07
     TRS4 it   2 1.00000000   0.607E+00       0.001       32.256   0.100E-07
     TRS4 it   3 1.00000000   0.415E+00       0.001       32.256   0.100E-07
     TRS4 it   4 1.00000000   0.214E+00       0.001       32.256   0.100E-07
     TRS4 it   5 1.00000000   0.714E-01       0.001       32.256   0.100E-07
     TRS4 it   6 1.00000000   0.101E-01       0.001       32.256   0.100E-07
     TRS4 it   7 1.00000000   0.264E-03       0.001       32.256   0.100E-07
     TRS4 it   8 1.00000000   0.225E-06       0.001       32.256   0.100E-07
     TRS4 it   9 1.00000000   0.196E-12       0.001       32.256   0.100E-07
     Final TRS4 iteration    9 1.00000000   0.196E-12
     Chemical potential (mu):       0.00898
 
 PAO| energy:  -7.7268699941697561      penalty:   1.2634806394244327E-005
 PAO|CG| trace_G_new    3.8930831752320455E-005
 PAO|CG| trace_G_prev    9.6793259081868934E-005
 PAO|CG| trace_G_mix    1.1886590873483945E-007
 PAO|CG| trace_D    1.5080420370798100E-004
 PAO|CG| trace_D_Gnew  -4.5754602396231756E-008
 PAO|CG| beta:   0.40097798350562797     
 PAO| norm of gradient:   6.2394576488922857E-003
 PAO| energy improvement:  -1.2591133845774038E-005
 PAO| step     28                   -7.726869994  0.390E-03  0.260E+00     0.062
 PAO|LS| adapt:  T F F
 PAO|LS| adapt: scan_steps:    0.0000000000000000        0.0000000000000000        0.0000000000000000     
 PAO|LS| adapt: energies:   -7.7268699941697561        0.0000000000000000        0.0000000000000000     
 PAO| ======================= Iteration:        29 =============================

     Lanczos converged:  T threshold:   0.100E-02
     Est. extremal eigenvalues:    0.281E+01   0.191E+00
     Est. condition number :    0.147E+02
     NS sqrt iter    1 1.00000000   0.714E+00       0.002       33.021
     NS sqrt iter    2 1.00000000   0.328E+00       0.001       88.201
     NS sqrt iter    3 1.00000000   0.717E-01       0.001       94.417
     NS sqrt iter    4 1.00000000   0.157E-02       0.001      110.592
     NS sqrt iter    5 1.00000000   0.326E-07       0.001       59.778
     Final NS sqrt iter    5 1.00000000   0.716E-09

     Est. extremal eigenvalues     -0.94307     1.63000  converged:  T
     TRS4 it   1 1.00000000   0.862E+00       0.000       16.128   0.100E-07
     TRS4 it   2 1.00000000   0.607E+00       0.001       32.256   0.100E-07
     TRS4 it   3 1.00000000   0.415E+00       0.001       32.256   0.100E-07
     TRS4 it   4 1.00000000   0.214E+00       0.001       32.256   0.100E-07
     TRS4 it   5 1.00000000   0.713E-01       0.001       32.256   0.100E-07
     TRS4 it   6 1.00000000   0.101E-01       0.001       32.256   0.100E-07
     TRS4 it   7 1.00000000   0.263E-03       0.001       32.256   0.100E-07
     TRS4 it   8 1.00000000   0.223E-06       0.001       32.256   0.100E-07
     TRS4 it   9 1.00000000   0.192E-12       0.001       32.256   0.100E-07
     Final TRS4 iteration    9 1.00000000   0.192E-12
     Chemical potential (mu):       0.00907
 
 PAO| energy:  -7.7268787658021418      penalty:   1.2206807775884098E-005
 PAO|LS| adapt:  T T F
 PAO|LS| adapt: scan_steps:    0.0000000000000000       0.25954480882634029        0.0000000000000000     
 PAO|LS| adapt: energies:   -7.7268699941697561       -7.7268787658021418        0.0000000000000000     
 PAO| ======================= Iteration:        30 =============================

     Lanczos converged:  T threshold:   0.100E-02
     Est. extremal eigenvalues:    0.281E+01   0.191E+00
     Est. condition number :    0.147E+02
     NS sqrt iter    1 1.00000000   0.714E+00       0.001       64.512
     NS sqrt iter    2 1.00000000   0.328E+00       0.001      110.057
     NS sqrt iter    3 1.00000000   0.717E-01       0.001      110.592
     NS sqrt iter    4 1.00000000   0.157E-02       0.001      103.030
     NS sqrt iter    5 1.00000000   0.325E-07       0.001       59.334
     Final NS sqrt iter    5 1.00000000   0.772E-09

     Est. extremal eigenvalues     -0.94308     1.62990  converged:  T
     TRS4 it   1 1.00000000   0.862E+00       0.001       16.128   0.100E-07
     TRS4 it   2 1.00000000   0.607E+00       0.001       32.256   0.100E-07
     TRS4 it   3 1.00000000   0.415E+00       0.001       32.256   0.100E-07
     TRS4 it   4 1.00000000   0.214E+00       0.001       32.256   0.100E-07
     TRS4 it   5 1.00000000   0.713E-01       0.001       32.256   0.100E-07
     TRS4 it   6 1.00000000   0.101E-01       0.001       32.256   0.100E-07
     TRS4 it   7 1.00000000   0.262E-03       0.001       32.256   0.100E-07
     TRS4 it   8 1.00000000   0.221E-06       0.001       32.256   0.100E-07
     TRS4 it   9 1.00000000   0.189E-12       0.001       32.256   0.100E-07
     Final TRS4 iteration    9 1.00000000   0.189E-12
     Chemical potential (mu):       0.00916
 
 PAO| energy:  -7.7268848626230549      penalty:   1.1787165657265978E-005
 PAO|LS| adapt:  T T F
 PAO|LS| adapt: scan_steps:    0.0000000000000000       0.51908961765268058        0.0000000000000000     
 PAO|LS| adapt: energies:   -7.7268699941697561       -7.7268848626230549        0.0000000000000000     
 PAO| ======================= Iteration:        31 =============================

     Lanczos converged:  T threshold:   0.100E-02
     Est. extremal eigenvalues:    0.281E+01   0.191E+00
     Est. condition number :    0.147E+02
     NS sqrt iter    1 1.00000000   0.714E+00       0.001       59.208
     NS sqrt iter    2 1.00000000   0.328E+00       0.001      110.592
     NS sqrt iter    3 1.00000000   0.716E-01       0.001       98.003
     NS sqrt iter    4 1.00000000   0.156E-02       0.001       76.979
     NS sqrt iter    5 1.00000000   0.322E-07       0.001       47.276
     Final NS sqrt iter    5 1.00000000   0.770E-09

     Est. extremal eigenvalues     -0.94308     1.62970  converged:  T
     TRS4 it   1 1.00000000   0.862E+00       0.000       16.128   0.100E-07
     TRS4 it   2 1.00000000   0.607E+00       0.001       32.256   0.100E-07
     TRS4 it   3 1.00000000   0.415E+00       0.001       32.256   0.100E-07
     TRS4 it   4 1.00000000   0.214E+00       0.001       32.256   0.100E-07
     TRS4 it   5 1.00000000   0.712E-01       0.001       32.256   0.100E-07
     TRS4 it   6 1.00000000   0.100E-01       0.001       32.256   0.100E-07
     TRS4 it   7 1.00000000   0.260E-03       0.001       32.256   0.100E-07
     TRS4 it   8 1.00000000   0.217E-06       0.001       32.256   0.100E-07
     TRS4 it   9 1.00000000   0.182E-12       0.001       32.256   0.100E-07
     Final TRS4 iteration    9 1.00000000   0.182E-12
     Chemical potential (mu):       0.00933
 
 PAO| energy:  -7.7268890296330603      penalty:   1.0972748437982198E-005
 PAO|LS| Need extra step
 PAO|LS| adapt:  T T F
 PAO|LS| adapt: scan_steps:    0.0000000000000000        1.0381792353053612        0.0000000000000000     
 PAO|LS| adapt: energies:   -7.7268699941697561       -7.7268890296330603        0.0000000000000000     
 PAO| ======================= Iteration:        32 =============================

     Lanczos converged:  T threshold:   0.100E-02
     Est. extremal eigenvalues:    0.280E+01   0.191E+00
     Est. condition number :    0.147E+02
     NS sqrt iter    1 1.00000000   0.713E+00       0.001       62.305
     NS sqrt iter    2 1.00000000   0.327E+00       0.001       98.741
     NS sqrt iter    3 1.00000000   0.713E-01       0.001       74.694
     NS sqrt iter    4 1.00000000   0.155E-02       0.001       81.661
     NS sqrt iter    5 1.00000000   0.316E-07       0.001       63.648
     Final NS sqrt iter    5 1.00000000   0.331E-08

     Est. extremal eigenvalues     -0.94308     1.62929  converged:  T
     TRS4 it   1 1.00000000   0.863E+00       0.000       16.128   0.100E-07
     TRS4 it   2 1.00000000   0.606E+00       0.001       32.256   0.100E-07
     TRS4 it   3 1.00000000   0.415E+00       0.001       32.256   0.100E-07
     TRS4 it   4 1.00000000   0.213E+00       0.001       32.256   0.100E-07
     TRS4 it   5 1.00000000   0.709E-01       0.001       32.256   0.100E-07
     TRS4 it   6 1.00000000   0.998E-02       0.001       32.256   0.100E-07
     TRS4 it   7 1.00000000   0.257E-03       0.001       32.256   0.100E-07
     TRS4 it   8 1.00000000   0.210E-06       0.001       32.256   0.100E-07
     TRS4 it   9 1.00000000   0.168E-12       0.001       32.256   0.100E-07
     Final TRS4 iteration    9 1.00000000   0.168E-12
     Chemical potential (mu):       0.00968
 
 PAO| energy:  -7.7268652282454005      penalty:   9.4419857433778572E-006
 PAO|LS| Need extra step
 PAO|LS| adapt:  T T T
 PAO|LS| adapt: scan_steps:    0.0000000000000000        1.0381792353053612        2.0763584706107223     
 PAO|LS| adapt: energies:   -7.7268699941697561       -7.7268890296330603       -7.7268652282454005     
 PAO|LS| adapt: suggested step_size:   0.98042658085408407     
 PAO|LS| adapt: predicted energy  -7.7268890959137115     
 PAO| ======================= Iteration:        33 =============================

     Lanczos converged:  T threshold:   0.100E-02
     Est. extremal eigenvalues:    0.281E+01   0.191E+00
     Est. condition number :    0.147E+02
     NS sqrt iter    1 1.00000000   0.714E+00       0.001       62.688
     NS sqrt iter    2 1.00000000   0.328E+00       0.001       93.591
     NS sqrt iter    3 1.00000000   0.716E-01       0.001       79.677
     NS sqrt iter    4 1.00000000   0.156E-02       0.001       84.949
     NS sqrt iter    5 1.00000000   0.322E-07       0.001       66.432
     Final NS sqrt iter    5 1.00000000   0.771E-09

     Est. extremal eigenvalues     -0.94308     1.62972  converged:  T
     TRS4 it   1 1.00000000   0.862E+00       0.000       16.128   0.100E-07
     TRS4 it   2 1.00000000   0.607E+00       0.001       32.256   0.100E-07
     TRS4 it   3 1.00000000   0.415E+00       0.001       32.256   0.100E-07
     TRS4 it   4 1.00000000   0.214E+00       0.001       32.256   0.100E-07
     TRS4 it   5 1.00000000   0.712E-01       0.001       32.256   0.100E-07
     TRS4 it   6 1.00000000   0.100E-01       0.001       32.256   0.100E-07
     TRS4 it   7 1.00000000   0.261E-03       0.001       32.256   0.100E-07
     TRS4 it   8 1.00000000   0.218E-06       0.001       32.256   0.100E-07
     TRS4 it   9 1.00000000   0.183E-12       0.001       32.256   0.100E-07
     Final TRS4 iteration    9 1.00000000   0.183E-12
     Chemical potential (mu):       0.00931
 
 PAO| energy:  -7.7268890952797422      penalty:   1.1061728506988016E-005
 PAO|CG| trace_G_new    1.1181256209328673E-004
[...]
     TRS4 it   3 1.00000000   0.469E+00       0.001       32.256   0.100E-07
     TRS4 it   4 1.00000000   0.294E+00       0.001       32.256   0.100E-07
     TRS4 it   5 1.00000000   0.153E+00       0.001       32.256   0.100E-07
     TRS4 it   6 1.00000000   0.534E-01       0.001       32.256   0.100E-07
     TRS4 it   7 1.00000000   0.865E-02       0.001       32.256   0.100E-07
     TRS4 it   8 1.00000000   0.307E-03       0.001       32.256   0.100E-07
     TRS4 it   9 1.00000000   0.424E-06       0.001       32.256   0.100E-07
     TRS4 it  10 1.00000000   0.808E-12       0.001       32.256   0.100E-07
     Final TRS4 iteration   10 1.00000000   0.808E-12
     Chemical potential (mu):      -0.07404
 
 PAO| energy:  -7.7274137618988545      penalty:   1.7664626758759326E-010
 PAO|LS| adapt:  T T T
 PAO|LS| adapt: scan_steps:    0.0000000000000000       0.37478340853439956       0.74956681706879913     
 PAO|LS| adapt: energies:   -7.7274137618828380       -7.7274137619329020       -7.7274137618988545     
 PAO|LS| adapt: suggested step_size:   0.41046660726567391     
 PAO|LS| adapt: predicted energy  -7.7274137619332830     
 PAO| ======================= Iteration:      1000 =============================

     Lanczos converged:  T threshold:   0.100E-02
     Est. extremal eigenvalues:    0.248E+01   0.193E+00
     Est. condition number :    0.128E+02
     NS sqrt iter    1 1.00000000   0.627E+00       0.001       63.968
     NS sqrt iter    2 1.00000000   0.263E+00       0.001      110.592
     NS sqrt iter    3 1.00000000   0.443E-01       0.001      110.592
     NS sqrt iter    4 1.00000000   0.679E-03       0.001      110.592
     NS sqrt iter    5 1.00000000   0.419E-08       0.001       37.760
     Final NS sqrt iter    5 1.00000000   0.891E-09

     Est. extremal eigenvalues     -0.94294     1.63076  converged:  T
     TRS4 it   1 1.00000000   0.900E+00       0.000       16.128   0.100E-07
     TRS4 it   2 1.00000000   0.646E+00       0.001       32.256   0.100E-07
     TRS4 it   3 1.00000000   0.469E+00       0.001       32.256   0.100E-07
     TRS4 it   4 1.00000000   0.294E+00       0.001       32.256   0.100E-07
     TRS4 it   5 1.00000000   0.153E+00       0.001       32.256   0.100E-07
     TRS4 it   6 1.00000000   0.534E-01       0.001       32.256   0.100E-07
     TRS4 it   7 1.00000000   0.866E-02       0.001       32.256   0.100E-07
     TRS4 it   8 1.00000000   0.307E-03       0.001       32.256   0.100E-07
     TRS4 it   9 1.00000000   0.424E-06       0.001       32.256   0.100E-07
     TRS4 it  10 1.00000000   0.807E-12       0.001       32.256   0.100E-07
     Final TRS4 iteration   10 1.00000000   0.807E-12
     Chemical potential (mu):      -0.07404
 
 PAO| energy:  -7.7274137619332910      penalty:   1.6660557601340259E-010
 PAO|CG| trace_G_new    1.5821296473480560E-010
 PAO|CG| trace_G_prev    2.5126773697465672E-010
 PAO|CG| trace_G_mix    2.5037950931631805E-012
 PAO|CG| trace_D    2.8455506984715220E-008
 PAO|CG| trace_D_Gnew  -3.6661460419703378E-010
 PAO|CG| beta:   0.61969424135557649     
 PAO| norm of gradient:   1.2578273519637168E-005
 PAO| energy improvement:  -5.0452975131065614E-011
 PAO| step   1000                   -7.727413762  0.786E-06  0.410E+00     0.050

 *** WARNING in pao_main.F:279 :: PAO not converged! ***

 PAO| Recalculating energy after mixing.

     Lanczos converged:  T threshold:   0.100E-02
     Est. extremal eigenvalues:    0.248E+01   0.193E+00
     Est. condition number :    0.128E+02
     NS sqrt iter    1 1.00000000   0.627E+00       0.001       64.512
     NS sqrt iter    2 1.00000000   0.263E+00       0.001      110.592
     NS sqrt iter    3 1.00000000   0.443E-01       0.001      110.592
     NS sqrt iter    4 1.00000000   0.679E-03       0.001      110.592
     NS sqrt iter    5 1.00000000   0.419E-08       0.001       37.760
     Final NS sqrt iter    5 1.00000000   0.890E-09

     Est. extremal eigenvalues     -0.94294     1.63077  converged:  T
     TRS4 it   1 1.00000000   0.900E+00       0.000       16.128   0.100E-07
     TRS4 it   2 1.00000000   0.646E+00       0.001       32.256   0.100E-07
     TRS4 it   3 1.00000000   0.469E+00       0.001       32.256   0.100E-07
     TRS4 it   4 1.00000000   0.294E+00       0.001       32.256   0.100E-07
     TRS4 it   5 1.00000000   0.153E+00       0.001       32.256   0.100E-07
     TRS4 it   6 1.00000000   0.534E-01       0.001       32.256   0.100E-07
     TRS4 it   7 1.00000000   0.866E-02       0.001       32.256   0.100E-07
     TRS4 it   8 1.00000000   0.307E-03       0.001       32.256   0.100E-07
     TRS4 it   9 1.00000000   0.424E-06       0.001       32.256   0.100E-07
     TRS4 it  10 1.00000000   0.810E-12       0.001       32.256   0.100E-07
     Final TRS4 iteration   10 1.00000000   0.810E-12
     Chemical potential (mu):      -0.07405
 
 PAO| energy:  -7.7274137612760843      penalty:   1.9166308948706491E-010
 PAO| Writing restart file.
     Est. extremal eigenvalues     -0.94294     1.63077  converged:  T
     TRS4 it   1 1.00000000   0.900E+00       0.000       16.128   0.100E-07
     TRS4 it   2 1.00000000   0.646E+00       0.001       32.256   0.100E-07
     TRS4 it   3 1.00000000   0.469E+00       0.001       32.256   0.100E-07
     TRS4 it   4 1.00000000   0.294E+00       0.001       32.256   0.100E-07
     TRS4 it   5 1.00000000   0.153E+00       0.001       32.256   0.100E-07
     TRS4 it   6 1.00000000   0.534E-01       0.001       32.256   0.100E-07
     TRS4 it   7 1.00000000   0.866E-02       0.001       32.256   0.100E-07
     TRS4 it   8 1.00000000   0.307E-03       0.001       32.256   0.100E-07
     TRS4 it   9 1.00000000   0.424E-06       0.001       32.256   0.100E-07
     TRS4 it  10 1.00000000   0.810E-12       0.001       32.256   0.100E-07
     Final TRS4 iteration   10 1.00000000   0.810E-12
     Chemical potential (mu):      -0.07405

 SCF     1       -34.445850234       -34.445850234    1.887025

*********************************************************
 Using MIXING_FRACTION=0.450 to mix KS matrix:  iscf=  2
 KS_nw=0.450*KS + 0.550*KS_old
*********************************************************
     Est. extremal eigenvalues     -0.94295     1.63077  converged:  T
     TRS4 it   1 1.00000000   0.900E+00       0.000       16.128   0.100E-07
     TRS4 it   2 1.00000000   0.646E+00       0.001       32.256   0.100E-07
     TRS4 it   3 1.00000000   0.469E+00       0.001       32.256   0.100E-07
     TRS4 it   4 1.00000000   0.294E+00       0.001       32.256   0.100E-07
     TRS4 it   5 1.00000000   0.153E+00       0.001       32.256   0.100E-07
     TRS4 it   6 1.00000000   0.534E-01       0.001       32.256   0.100E-07
     TRS4 it   7 1.00000000   0.866E-02       0.001       32.256   0.100E-07
     TRS4 it   8 1.00000000   0.307E-03       0.001       32.256   0.100E-07
     TRS4 it   9 1.00000000   0.424E-06       0.001       32.256   0.100E-07
     TRS4 it  10 1.00000000   0.810E-12       0.001       32.256   0.100E-07
     Final TRS4 iteration   10 1.00000000   0.810E-12
     Chemical potential (mu):      -0.07405

 SCF     2       -34.445850234        -0.000000000    1.880599

 PAO| Storing density matrix for ASPC guess in slot:           1

 ENERGY| Total FORCE_EVAL ( QS ) energy (a.u.):              -34.445850234395607


 -------------------------------------------------------------------------------
 -                                                                             -
 -                                DBCSR STATISTICS                             -
 -                                                                             -
 -------------------------------------------------------------------------------
 COUNTER                                    TOTAL       BLAS       SMM       ACC
 flops     5 x     5 x     4                24000       0.0%    100.0%      0.0%
 flops    13 x     5 x     4                24960       0.0%    100.0%      0.0%
 flops     5 x    13 x     4                24960       0.0%    100.0%      0.0%
 flops    13 x    13 x     4                48672       0.0%    100.0%      0.0%
 flops     4 x     4 x     5              7772160       0.0%    100.0%      0.0%
 flops     5 x     4 x     5              9539200       0.0%    100.0%      0.0%
 flops     4 x     4 x    13             10103808       0.0%    100.0%      0.0%
 flops    13 x     4 x     5             12400960       0.0%    100.0%      0.0%
 flops     5 x     4 x    13             12400960       0.0%    100.0%      0.0%
 flops     5 x     4 x     4             15550240       0.0%    100.0%      0.0%
 flops    13 x     4 x    13             16121248       0.0%    100.0%      0.0%
 flops    13 x     4 x     4             20904000       0.0%    100.0%      0.0%
 flops     4 x     4 x     4           1015722880       0.0%    100.0%      0.0%
 flops inhomo. stacks                           0       0.0%      0.0%      0.0%
 flops total                         1.120638E+09       0.0%    100.0%      0.0%
 flops max/rank                      1.120638E+09       0.0%    100.0%      0.0%
 matmuls inhomo. stacks                         0       0.0%      0.0%      0.0%
 matmuls total                            8263206       0.0%    100.0%      0.0%
 number of processed stacks                 66253       0.0%    100.0%      0.0%
 average stack size                                     0.0     124.7       0.0
 marketing flops                     1.826995E+09
 -------------------------------------------------------------------------------
 # multiplications                          55332
 max memory usage/rank             321.155072E+06
 # max total images/rank                        1
 # max 3D layers                                1
 # MPI messages exchanged                       0
 MPI messages size (bytes):
  total size                         0.000000E+00
  min size                           0.000000E+00
  max size                           0.000000E+00
  average size                       0.000000E+00
 MPI breakdown and total messages size (bytes):
             size <=      128                   0                        0
       128 < size <=     8192                   0                        0
      8192 < size <=    32768                   0                        0
     32768 < size <=   131072                   0                        0
    131072 < size <=  4194304                   0                        0
   4194304 < size <= 16777216                   0                        0
  16777216 < size                               0                        0
 -------------------------------------------------------------------------------

 MEMORY| Estimated peak process memory [MiB]                                 307

 -------------------------------------------------------------------------------
 -                                                                             -
 -                           R E F E R E N C E S                               -
 -                                                                             -
 -------------------------------------------------------------------------------
 
 CP2K version 7.0 (Development Version), the CP2K developers group (2018).
 CP2K is freely available from https://www.cp2k.org/ .

 Schuett, O; VandeVondele, J. 
 Journal of Chemical Theory and Computation, 14, (2018). 
 Machine Learning Adaptive Basis Sets for Efficient Large Scale Density Functional Theory Simulation.
 https://dx.doi.org/10.1021/acs.jctc.8b00378


 Schuett, Ole; Messmer, Peter; Hutter, Juerg; VandeVondele, Joost. 
 Electronic Structure Calculations on Graphics Processing Units, John Wiley & Sons, Ltd, 173-190 (2016). 
 GPU-Accelerated Sparse Matrix-Matrix Multiplication for Linear Scaling Density Functional Theory.
 https://dx.doi.org/10.1002/9781118670712.ch8


 Borstnik, U; VandeVondele, J; Weber, V; Hutter, J. 
 PARALLEL COMPUTING, 40 (5-6), 47-58 (2014). 
 Sparse matrix multiplication: The distributed block-compressed sparse
 row library.
 https://dx.doi.org/10.1016/j.parco.2014.03.012


 Hutter, J; Iannuzzi, M; Schiffmann, F; VandeVondele, J. 
 WILEY INTERDISCIPLINARY REVIEWS-COMPUTATIONAL MOLECULAR SCIENCE, 4 (1), 15-25 (2014). 
 CP2K: atomistic simulations of condensed matter systems.
 https://dx.doi.org/10.1002/wcms.1159


 VandeVondele, J; Borstnik, U; Hutter, J. 
 JOURNAL OF CHEMICAL THEORY AND COMPUTATION, 8 (10), 3565-3573 (2012). 
 Linear Scaling Self-Consistent Field Calculations with Millions of Atoms
 in the Condensed Phase.
 https://dx.doi.org/10.1021/ct200897x


 VandeVondele, J; Hutter, J. 
 JOURNAL OF CHEMICAL PHYSICS, 127 (11), 114105 (2007). 
 Gaussian basis sets for accurate calculations on molecular systems in
 gas and condensed phases.
 https://dx.doi.org/10.1063/1.2770708


 Krack, M. 
 THEORETICAL CHEMISTRY ACCOUNTS, 114 (1-3), 145-152 (2005). 
 Pseudopotentials for H to Kr optimized for gradient-corrected
 exchange-correlation functionals.
 https://dx.doi.org/10.1007/s00214-005-0655-y


 VandeVondele, J; Krack, M; Mohamed, F; Parrinello, M; Chassaing, T;
 Hutter, J. COMPUTER PHYSICS COMMUNICATIONS, 167 (2), 103-128 (2005). 
 QUICKSTEP: Fast and accurate density functional calculations using a
 mixed Gaussian and plane waves approach.
 https://dx.doi.org/10.1016/j.cpc.2004.12.014


 Frigo, M; Johnson, SG. 
 PROCEEDINGS OF THE IEEE, 93 (2), 216-231 (2005). 
 The design and implementation of FFTW3.
 https://dx.doi.org/10.1109/JPROC.2004.840301


 Niklasson, AMN; Tymczak, CJ; Challacombe, M. 
 JOURNAL OF CHEMICAL PHYSICS, 118 (19), 8611-8620 (2003). 
 Trace resetting density matrix purification in O(N)
 self-consistent-field theory.
 https://dx.doi.org/10.1063/1.1559913


 Hartwigsen, C; Goedecker, S; Hutter, J. 
 PHYSICAL REVIEW B, 58 (7), 3641-3662 (1998). 
 Relativistic separable dual-space Gaussian pseudopotentials from H to Rn.
 https://dx.doi.org/10.1103/PhysRevB.58.3641


 Lippert, G; Hutter, J; Parrinello, M. 
 MOLECULAR PHYSICS, 92 (3), 477-487 (1997). 
 A hybrid Gaussian and plane wave density functional scheme.
 https://dx.doi.org/10.1080/002689797170220


 Perdew, JP; Burke, K; Ernzerhof, M. 
 PHYSICAL REVIEW LETTERS, 77 (18), 3865-3868 (1996). 
 Generalized gradient approximation made simple.
 https://dx.doi.org/10.1103/PhysRevLett.77.3865


 Goedecker, S; Teter, M; Hutter, J. 
 PHYSICAL REVIEW B, 54 (3), 1703-1710 (1996). 
 Separable dual-space Gaussian pseudopotentials.
 https://dx.doi.org/10.1103/PhysRevB.54.1703


 -------------------------------------------------------------------------------
 -                                                                             -
 -                                T I M I N G                                  -
 -                                                                             -
 -------------------------------------------------------------------------------
 SUBROUTINE                       CALLS  ASD         SELF TIME        TOTAL TIME
                                MAXIMUM       AVERAGE  MAXIMUM  AVERAGE  MAXIMUM
 CP2K                                 1  1.0    0.029    0.029   41.700   41.700
 qs_energies                          1  2.0    0.000    0.000   41.333   41.333
 ls_scf                               1  3.0    0.000    0.000   41.233   41.233
 ls_scf_main                          5  4.0    0.007    0.007   21.051   21.051
 ls_scf_dm_to_ks                     11  5.0    0.000    0.000   20.952   20.952
 pao_update                           5  4.0    0.025    0.025   18.173   18.173
 pao_calc_energy                   1004  5.0    0.009    0.009   16.492   16.492
 qs_ks_update_qs_env                 12  6.0    0.000    0.000   16.143   16.143
 rebuild_ks_matrix                   12  7.0    0.000    0.000   16.143   16.143
 qs_ks_build_kohn_sham_matrix        12  8.0    0.001    0.001   16.143   16.143
 dbcsr_multiply_generic           55332  8.4    1.038    1.038   13.213   13.213
 qs_vxc_create                       12  9.0    0.000    0.000    9.139    9.139
 xc_vxc_pw_create                    12 10.0    0.147    0.147    9.139    9.139
 pao_dm_trs4                       1004  6.0    0.007    0.007    8.843    8.843
 density_matrix_trs4               1015  7.0    0.518    0.518    8.428    8.428
 ls_scf_init_matrix_S              1009  7.0    0.008    0.008    7.590    7.590
 pao_rebuild_S                     1004  6.0    0.006    0.006    7.554    7.554
 matrix_sqrt_Newton_Schulz         1009  8.0    0.307    0.307    6.816    6.816
 qs_rho_update_rho                   12  6.0    0.000    0.000    6.747    6.747
 calculate_rho_elec                  12  7.0    5.511    5.511    6.747    6.747
 xc_rho_set_and_dset_create          12 11.0    0.057    0.057    6.717    6.717
 sum_up_and_integrate                12  9.0    0.025    0.025    6.026    6.026
 integrate_v_rspace                  12 10.0    5.328    5.328    6.001    6.001
 pw_transfer                        229 10.6    0.015    0.015    5.759    5.759
 fft_wrap_pw1pw2                    205 11.7    0.002    0.002    5.637    5.637
 fft_wrap_pw1pw2_200                133 12.8    0.462    0.462    5.401    5.401
 multiply_cannon                  55332  9.4    2.341    2.341    5.123    5.123
 make_m2s                        110664  9.4    0.339    0.339    4.832    4.832
 xc_functional_eval                  12 12.0    0.000    0.000    4.605    4.605
 pbe_lda_eval                        12 13.0    4.605    4.605    4.605    4.605
 make_images                     110664 10.4    1.261    1.261    4.304    4.304
 fft3d_s                            206 13.6    3.134    3.134    3.145    3.145
 arnoldi_extremal                  2024  8.5    0.010    0.010    2.103    2.103
 arnoldi_normal_ev                 2024  9.5    0.026    0.026    2.093    2.093
 pao_guess_initial_P                  1  4.0    0.000    0.000    1.944    1.944
 pao_read_preopt_dm                   1  5.0    0.000    0.000    1.944    1.944
 pao_calc_AB                       1324  5.8    0.002    0.002    1.644    1.644
 pao_calc_AB_direct                1324  6.8    0.056    0.056    1.642    1.642
 build_subspace                    2024 10.5    0.127    0.127    1.539    1.539
 pao_calc_grad_lnv_wrt_AB           319  7.0    0.018    0.018    1.520    1.520
 dbcsr_create_new                422904 10.7    0.806    0.806    1.419    1.419
 dbcsr_finalize                  132498  9.7    0.268    0.268    1.380    1.380
 dbcsr_matrix_vector_mult         48514 11.5    0.248    0.248    1.359    1.359
 density_rs2pw                       12  8.0    0.001    0.001    1.216    1.216
 pw_scatter_s                       108 14.2    1.042    1.042    1.042    1.042
 matrix_qs_to_ls                   2024  7.5    0.015    0.015    0.997    0.997
 dbcsr_add_d                      47922  8.1    0.032    0.032    0.968    0.968
 pw_gather_s                         97 13.1    0.966    0.966    0.966    0.966
 dbcsr_merge_all                 124761 10.7    0.510    0.510    0.955    0.955
 dbcsr_add_anytype                47922  9.1    0.258    0.258    0.936    0.936
 multiply_cannon_multrec          55332 10.4    0.727    0.727    0.936    0.936
 dbcsr_special_finalize          110664 11.4    0.127    0.127    0.901    0.901
 -------------------------------------------------------------------------------

 The number of warnings for this run is : 1
 
 -------------------------------------------------------------------------------
  **** **** ******  **  PROGRAM ENDED AT                 2019-02-14 11:22:04.083
 ***** ** ***  *** **   PROGRAM RAN ON                                      otto
 **    ****   ******    PROGRAM RAN BY                                       ole
 ***** **    ** ** **   PROGRAM PROCESS ID                                  8055
  **** **  *******  **  PROGRAM STOPPED IN /home/ole/git/pao_ml_equivar/2H2O_MD/
                                           frame_1975
