 DBCSR| CPU Multiplication driver                                           XSMM (U)
 DBCSR| Multrec recursion limit                                              512 (U)
 DBCSR| Multiplication stack size                                           1000 (D)
 DBCSR| Maximum elements for images                                    UNLIMITED (U)
 DBCSR| Multiplicative factor virtual images                                   1 (U)
 DBCSR| Use multiplication densification                                       T (D)
 DBCSR| Multiplication size stacks                                             3 (U)
 DBCSR| Use memory pool for CPU allocation                                     F (U)
 DBCSR| Number of 3D layers                                               SINGLE (U)
 DBCSR| Use MPI memory allocation                                              F (U)
 DBCSR| Use RMA algorithm                                                      F (U)
 DBCSR| Use Communication thread                                               T (U)
 DBCSR| Communication thread load                                             87 (D)
 DBCSR| MPI: My process id                                                     0
 DBCSR| MPI: Number of processes                                              32
 DBCSR| OMP: Current number of threads                                         1
 DBCSR| OMP: Max number of threads                                             1
 DBCSR| Split modifier for TAS multiplication algorithm                  1.0E+00 (U)


  **** **** ******  **  PROGRAM STARTED AT               2024-09-23 23:15:50.834
 ***** ** ***  *** **   PROGRAM STARTED ON                                moritz
 **    ****   ******    PROGRAM STARTED BY                                   ole
 ***** **    ** ** **   PROGRAM PROCESS ID                                164108
  **** **  *******  **  PROGRAM STARTED IN /home/ole/git/pao_ml_equivar/64H2O_MD
                                           /Frame0800

 CP2K| version string:                 CP2K version 2024.3 (Development Version)
 CP2K| source code revision number:                                  git:3f890bb
 CP2K| cp2kflags: omp libint fftw3 libxc libgrpp pexsi elpa parallel scalapack c
 CP2K|            osma quip deepmd xsmm plumed2 spglib libdftd4 sirius libvori l
 CP2K|            libbqb libvdwxc hdf5
 CP2K| is freely available from                            https://www.cp2k.org/
 CP2K| Program compiled at                          Mo 23 Sep 2024 17:17:04 CEST
 CP2K| Program compiled on                                                moritz
 CP2K| Program compiled for                                                local
 CP2K| Data directory path                               /home/ole/git/cp2k/data
 CP2K| Input file name                                           64H2O_pao44.inp

 GLOBAL| Force Environment number                                              1
 GLOBAL| Basis set file name                                        BASIS_MOLOPT
 GLOBAL| Potential file name                                      GTH_POTENTIALS
 GLOBAL| MM Potential file name                                     MM_POTENTIAL
 GLOBAL| Coordinate file name                                         coords.xyz
 GLOBAL| Method name                                                        CP2K
 GLOBAL| Project name                                                64H2O_pao44
 GLOBAL| Run type                                                         ENERGY
 GLOBAL| FFT library                                                       FFTW3
 GLOBAL| Diagonalization library                                            ELPA
 GLOBAL| DGEMM library                                                      BLAS
 GLOBAL| Minimum number of eigenvectors for ELPA usage                        16
 GLOBAL| Orthonormality check for eigenvectors                          DISABLED
 GLOBAL| Matrix multiplication library                                     COSMA
 GLOBAL| All-to-all communication in single precision                          F
 GLOBAL| FFTs using library dependent lengths                                  F
 GLOBAL| Grid backend                                                       AUTO
 GLOBAL| Global print level                                                  LOW
 GLOBAL| MPI I/O enabled                                                       T
 GLOBAL| Total number of message passing processes                            32
 GLOBAL| Number of threads for this process                                    1
 GLOBAL| This output is from process                                           0
 GLOBAL| Stack size for threads created by OpenMP (OMP_STACKSIZE)        default
 GLOBAL| CPU model name           AMD Ryzen Threadripper 3970X 32-Core Processor
 GLOBAL| CPUID                                                              1002

 MEMORY| system memory details [Kb]
 MEMORY|                        rank 0           min           max       average
 MEMORY| MemTotal            131752136     131752136     131752136     131752136
 MEMORY| MemFree             114431632     114431632     114431632     114431632
 MEMORY| Buffers               1986996       1986996       1986996       1986996
 MEMORY| Cached                8590968       8590968       8590972       8590968
 MEMORY| Slab                  1635660       1635660       1635660       1635660
 MEMORY| SReclaimable          1141412       1141412       1141412       1141412
 MEMORY| MemLikelyFree       126151008     126151008     126151012     126151008


 GENERATE|  Preliminary Number of Bonds generated:                             0
 GENERATE|  Achieved consistency in connectivity generation.

 *******************************************************************************
 *******************************************************************************
 **                                                                           **
 **     #####                         ##              ##                      **
 **    ##   ##            ##          ##              ##                      **
 **   ##     ##                       ##            ######                    **
 **   ##     ##  ##   ##  ##   #####  ##  ##   ####   ##    #####    #####    **
 **   ##     ##  ##   ##  ##  ##      ## ##   ##      ##   ##   ##  ##   ##   **
 **   ##  ## ##  ##   ##  ##  ##      ####     ###    ##   ######   ######    **
 **    ##  ###   ##   ##  ##  ##      ## ##      ##   ##   ##       ##        **
 **     #######   #####   ##   #####  ##  ##  ####    ##    #####   ##        **
 **           ##                                                    ##        **
 **                                                                           **
 **                                                ... make the atoms dance   **
 **                                                                           **
 **            Copyright (C) by CP2K developers group (2000-2024)             **
 **                      J. Chem. Phys. 152, 194103 (2020)                    **
 **                                                                           **
 *******************************************************************************


 TOTAL NUMBERS AND MAXIMUM NUMBERS

  Total number of            - Atomic kinds:                                   2
                             - Atoms:                                        192
                             - Shell sets:                                   192
                             - Shells:                                       704
                             - Primitive Cartesian functions:               1344
                             - Cartesian basis functions:                   1536
                             - Spherical basis functions:                   1472

  Maximum angular momentum of- Orbital basis functions:                        2
                             - Local part of the GTH pseudopotential:          2
                             - Non-local part of the GTH pseudopotential:      0

 ------------------------------ Linear scaling SCF -----------------------------
 eps_scf:                                                              0.100E-07
 eps_filter:                                                           0.100E-11
 mixing_fraction:                                                      0.450E+00
 max_scf:                                                                     25
 fixed chemical potential (mu)                                                 F
 has unit metric:                                                              F
 Computing inv(S):                                                             T
 Computing sqrt(S):                                                            T
 Computing S preconditioner                                                    F
 S sqrt method:                                                     NEWTONSCHULZ
 S sqrt order:                                                                 3
 Extrapolation order:                                                          1
 S preconditioner type                                                      NONE
 Polarized Atomic Orbitals (PAO)                                               T
 Purification method                                   Trace resetting 4th order
 Cluster type                                                             ATOMIC
 Computing Chebyshev                                                       FALSE
 Using PAO                                                                     T
 -------------------------------------------------------------------------------

 
 PAO|                                  EPS_PAO                           0.5E-06
 PAO|                                  MIXING                            0.5E+00
 PAO|                                  MAX_PAO                              1500
 PAO|                                  MAX_CYCLES                           1000
 PAO|                                  PARAMETERIZATION              EQUIVARIANT
 PAO|                                  PRECONDITION                            F
 PAO|                                  REGULARIZATION                    0.0E+00
 PAO|                                  EPS_PGF                           0.1E-09
 PAO|                                  PENALTY_DISTANCE                  0.1E+00
 PAO|                                  PENALTY_STRENGTH                  0.5E-02
 PAO|                                  LINPOT_PRECONDITION_DELTA         0.0E+00
 PAO|                                  LINPOT_INITGUESS_DELT             0.0E+00
 PAO|                                  LINPOT_REGULARIZATION_DELTA       0.0E+00
 PAO|                                  LINPOT_REGULARIZATION_STRENGTH    0.0E+00
 PAO|                                  OPTIMIZER                              CG
 PAO|                                  CG_INIT_STEPS                           2
 PAO|                                  CG_RESET_LIMIT                    0.1E+00
 PAO|                                  CHECK_UNITARY_TOL                -0.1E+01
 PAO|                                  CHECK_GRADIENT_TOL               -0.1E+01
 PAO|                                  NUM_GRADIENT_ORDER                      2
 PAO|                                  NUM_GRADIENT_EPS                  0.1E-07
 PAO|                                  PRINT%RESTART%WRITE_CYCLES            100
 PAO|                                  RESTART_FILE 
 PAO|                                  PREOPT_DM_FILE 64H2O_ref_LS_DM_SPIN_1_RESTART.dm
 PAO|                                  MACHINE_LEARNING%METHOD       GAUSSIAN_PR
 PAO|                                  MACHINE_LEARNING%PRIOR               ZERO
 PAO|                                  MACHINE_LEARNING%DESCRIPTOR     POTENTIAL
 PAO|                                  MACHINE_LEARNING%TOLERANCE        0.1E-01
 PAO|                                  MACHINE_LEARNING%GP_NOISE_VAR     0.1E+00
 PAO|                                  MACHINE_LEARNING%GP_SCALE         0.5E-01
 

 Calculating atomic Fock matrix for atomic kind: O

 Electronic structure
    Total number of core electrons                                          2.00
    Total number of valence electrons                                       6.00
    Total number of electrons                                               8.00
    Multiplicity                                                   not specified
    S   [  2.00] 2.00
    P      4.00


 *******************************************************************************
                  Iteration          Convergence                     Energy [au]
 *******************************************************************************
                          1        0.708315                     -15.576645311500
                          2        0.608879                     -15.587933561584
                          3        0.102828E-01                 -15.656849565404
                          4        0.113889E-02                 -15.656866888140
                          5        0.434197E-03                 -15.656867072159
                          6        0.263771E-03                 -15.656867091904
                          7        0.478536E-06                 -15.656867103452

 Energy components [Hartree]           Total Energy ::          -15.656867103452
                                        Band Energy ::           -3.000198112285
                                     Kinetic Energy ::           11.759971203220
                                   Potential Energy ::          -27.416838306672
                                      Virial (-V/T) ::            2.331369510426
                                        Core Energy ::          -26.140716385623
                                          XC Energy ::           -3.154051012914
                                     Coulomb Energy ::           13.637900295084
                       Total Pseudopotential Energy ::          -37.935781716540
                       Local Pseudopotential Energy ::          -39.218907440693
                    Nonlocal Pseudopotential Energy ::            1.283125724153
                                        Confinement ::            0.350941276976

 Orbital energies  State     L     Occupation   Energy[a.u.]          Energy[eV]

                       1     0          2.000      -0.864471          -23.523463

                       1     1          4.000      -0.317814           -8.648154


 Total Electron Density at R=0:                                         0.000068

 Calculating atomic Fock matrix for atomic kind: H

 Electronic structure
    Total number of core electrons                                          0.00
    Total number of valence electrons                                       1.00
    Total number of electrons                                               1.00
    Multiplicity                                                   not specified
    S      1.00


 *******************************************************************************
                  Iteration          Convergence                     Energy [au]
 *******************************************************************************
                          1        0.437545E-02                  -0.424159432110
                          2        0.531356E-03                  -0.424178438213
                          3        0.259176E-06                  -0.424178722480

 Energy components [Hartree]           Total Energy ::           -0.424178722480
                                        Band Energy ::           -0.199015229016
                                     Kinetic Energy ::            0.464007633961
                                   Potential Energy ::           -0.888186356441
                                      Virial (-V/T) ::            1.914163240935
                                        Core Energy ::           -0.479160803564
                                          XC Energy ::           -0.244352904054
                                     Coulomb Energy ::            0.299334985138
                       Total Pseudopotential Energy ::           -0.962295316385
                       Local Pseudopotential Energy ::           -0.962295316385
                    Nonlocal Pseudopotential Energy ::            0.000000000000
                                        Confinement ::            0.191268788606

 Orbital energies  State     L     Occupation   Energy[a.u.]          Energy[eV]

                       1     0          1.000      -0.199015           -5.415480


 Total Electron Density at R=0:                                         0.242907
 PAO| Made initial guess for matrix_X with norm:   27.712812921102035     

     Lanczos converged:  F threshold:   0.100E-02
     Est. extremal eigenvalues:    0.617E+01   0.947E-01
     Est. condition number :    0.652E+02

 Order=           3
     NS sqrt iter    1 1.00000000   0.151E+01       0.021     2657.968
     NS sqrt iter    2 1.00000000   0.820E+00       0.034     3358.073
     NS sqrt iter    3 1.00000000   0.329E+00       0.034     3331.206
     NS sqrt iter    4 1.00000000   0.909E-01       0.034     3338.493
     NS sqrt iter    5 1.00000000   0.322E-02       0.034     3332.799
     NS sqrt iter    6 1.00000000   0.267E-06       0.030     2882.208
     Symmetrizing Results
     Final NS sqrt iter    6 1.00000000   0.124E-12

 PAO| Read restart DM 64H2O_ref_LS_DM_SPIN_1_RESTART.dm with checksum:    6044.0677708675194     
 PAO| Quickstep energy from restart density:  -1103.1378434691815     
 PAO| ======================= Iteration:         1 =============================

     Lanczos converged:  F threshold:   0.100E-02
     Est. extremal eigenvalues:    0.617E+01   0.947E-01
     Est. condition number :    0.652E+02

 Order=           3
     NS sqrt iter    1 1.00000000   0.151E+01       0.021     2698.315
     NS sqrt iter    2 1.00000000   0.820E+00       0.034     3332.468
     NS sqrt iter    3 1.00000000   0.329E+00       0.034     3355.946
     NS sqrt iter    4 1.00000000   0.909E-01       0.034     3335.386
     NS sqrt iter    5 1.00000000   0.322E-02       0.034     3348.471
     NS sqrt iter    6 1.00000000   0.267E-06       0.029     2929.937
     Symmetrizing Results
     Final NS sqrt iter    6 1.00000000   0.124E-12

     Est. extremal eigenvalues     -0.81916     2.63173  converged:  T
     TRS4 it   1 1.00000000   0.273E+02       0.007     2138.905   0.100E-11
     TRS4 it   2 1.00000000   0.237E+02       0.013     2194.666   0.100E-11
     TRS4 it   3 1.00000000   0.161E+02       0.013     2196.970   0.100E-11
     TRS4 it   4 1.00000000   0.100E+02       0.013     2170.488   0.100E-11
     TRS4 it   5 1.00000000   0.484E+01       0.013     2191.917   0.100E-11
     TRS4 it   6 1.00000000   0.161E+01       0.013     2167.089   0.100E-11
     TRS4 it   7 1.00000000   0.323E+00       0.013     2190.492   0.100E-11
     TRS4 it   8 1.00000000   0.238E-01       0.013     2156.151   0.100E-11
     TRS4 it   9 1.00000000   0.228E-03       0.013     2175.165   0.100E-11
     TRS4 it  10 1.00000000   0.200E-07       0.013     2177.595   0.100E-11
     TRS4 it  11 1.00000000   0.124E-13       0.013     2201.422   0.100E-11
     Final TRS4 iteration   11 1.00000000   0.124E-13
     Chemical potential (mu):       0.01015
 
 PAO| energy:  -186.03097547649747      penalty:   1.3854369647944018E-031
 PAO|CG| warming up with steepest descent
 PAO|CG| beta:    0.0000000000000000     
 PAO| norm of gradient:   3.9626593935164038     
 PAO|LS| adapt:  T F F
 PAO|LS| adapt: scan_steps:    0.0000000000000000        0.0000000000000000        0.0000000000000000     
 PAO|LS| adapt: energies:   -186.03097547649747        0.0000000000000000        0.0000000000000000     
 PAO| ======================= Iteration:         2 =============================

     Lanczos converged:  F threshold:   0.100E-02
     Est. extremal eigenvalues:    0.595E+01   0.101E+00
     Est. condition number :    0.591E+02

 Order=           3
     NS sqrt iter    1 1.00000000   0.146E+01       0.021     2693.780
     NS sqrt iter    2 1.00000000   0.790E+00       0.034     3375.443
     NS sqrt iter    3 1.00000000   0.308E+00       0.034     3353.680
     NS sqrt iter    4 1.00000000   0.762E-01       0.034     3376.628
     NS sqrt iter    5 1.00000000   0.199E-02       0.034     3380.079
     NS sqrt iter    6 1.00000000   0.748E-07       0.029     2914.252
     Symmetrizing Results
     Final NS sqrt iter    6 1.00000000   0.143E-13

     Est. extremal eigenvalues     -0.82241     2.63025  converged:  T
     TRS4 it   1 1.00000000   0.276E+02       0.007     2112.860   0.100E-11
     TRS4 it   2 1.00000000   0.237E+02       0.013     2182.978   0.100E-11
     TRS4 it   3 1.00000000   0.159E+02       0.013     2190.055   0.100E-11
     TRS4 it   4 1.00000000   0.983E+01       0.013     2180.620   0.100E-11
     TRS4 it   5 1.00000000   0.462E+01       0.013     2183.681   0.100E-11
     TRS4 it   6 1.00000000   0.148E+01       0.013     2188.660   0.100E-11
     TRS4 it   7 1.00000000   0.276E+00       0.013     2197.032   0.100E-11
     TRS4 it   8 1.00000000   0.171E-01       0.013     2192.849   0.100E-11
     TRS4 it   9 1.00000000   0.108E-03       0.013     2166.366   0.100E-11
     TRS4 it  10 1.00000000   0.499E-08       0.013     2201.555   0.100E-11
     TRS4 it  11 1.00000000   0.355E-13       0.013     2180.523   0.100E-11
     Final TRS4 iteration   11 1.00000000   0.355E-13
     Chemical potential (mu):       0.01573
 
 PAO| energy:  -187.47274708059257      penalty:   4.6429068949628327E-007
 PAO|LS| adapt:  T T F
 PAO|LS| adapt: scan_steps:    0.0000000000000000       0.10000000000000001        0.0000000000000000     
 PAO|LS| adapt: energies:   -186.03097547649747       -187.47274708059257        0.0000000000000000     
 PAO| ======================= Iteration:         3 =============================

     Lanczos converged:  F threshold:   0.100E-02
     Est. extremal eigenvalues:    0.573E+01   0.106E+00
     Est. condition number :    0.542E+02

 Order=           3
     NS sqrt iter    1 1.00000000   0.142E+01       0.021     2683.680
     NS sqrt iter    2 1.00000000   0.760E+00       0.034     3361.151
     NS sqrt iter    3 1.00000000   0.287E+00       0.034     3355.652
     NS sqrt iter    4 1.00000000   0.635E-01       0.033     3382.610
     NS sqrt iter    5 1.00000000   0.124E-02       0.034     3369.176
     NS sqrt iter    6 1.00000000   0.219E-07       0.029     2893.722
     Symmetrizing Results
     Final NS sqrt iter    6 1.00000000   0.355E-14

     Est. extremal eigenvalues     -0.82553     2.63051  converged:  T
     TRS4 it   1 1.00000000   0.278E+02       0.007     2102.698   0.100E-11
     TRS4 it   2 1.00000000   0.237E+02       0.013     2172.719   0.100E-11
     TRS4 it   3 1.00000000   0.158E+02       0.013     2194.435   0.100E-11
     TRS4 it   4 1.00000000   0.965E+01       0.013     2200.983   0.100E-11
     TRS4 it   5 1.00000000   0.442E+01       0.013     2198.679   0.100E-11
     TRS4 it   6 1.00000000   0.136E+01       0.013     2180.899   0.100E-11
     TRS4 it   7 1.00000000   0.235E+00       0.013     2166.586   0.100E-11
     TRS4 it   8 1.00000000   0.120E-01       0.013     2172.699   0.100E-11
     TRS4 it   9 1.00000000   0.476E-04       0.013     2184.553   0.100E-11
     TRS4 it  10 1.00000000   0.110E-08       0.013     2163.968   0.100E-11
     TRS4 it  11 1.00000000   0.320E-13       0.013     2190.407   0.100E-11
     Final TRS4 iteration   11 1.00000000   0.320E-13
     Chemical potential (mu):       0.02207
 
 PAO| energy:  -188.64164012831310      penalty:   7.4286510319649014E-006
 PAO|LS| adapt:  T T F
 PAO|LS| adapt: scan_steps:    0.0000000000000000       0.20000000000000001        0.0000000000000000     
 PAO|LS| adapt: energies:   -186.03097547649747       -188.64164012831310        0.0000000000000000     
 PAO| ======================= Iteration:         4 =============================

     Lanczos converged:  F threshold:   0.100E-02
     Est. extremal eigenvalues:    0.531E+01   0.115E+00
     Est. condition number :    0.463E+02

 Order=           3
     NS sqrt iter    1 1.00000000   0.133E+01       0.021     2684.859
     NS sqrt iter    2 1.00000000   0.702E+00       0.034     3380.352
     NS sqrt iter    3 1.00000000   0.249E+00       0.034     3361.940
     NS sqrt iter    4 1.00000000   0.442E-01       0.034     3348.364
     NS sqrt iter    5 1.00000000   0.498E-03       0.034     3331.123
     NS sqrt iter    6 1.00000000   0.196E-08       0.029     2848.545
     Symmetrizing Results
     Final NS sqrt iter    6 1.00000000   0.170E-13

     Est. extremal eigenvalues     -0.83073     2.63280  converged:  T
     TRS4 it   1 1.00000000   0.282E+02       0.007     2091.762   0.100E-11
     TRS4 it   2 1.00000000   0.237E+02       0.013     2160.234   0.100E-11
     TRS4 it   3 1.00000000   0.157E+02       0.013     2187.548   0.100E-11
     TRS4 it   4 1.00000000   0.932E+01       0.013     2176.785   0.100E-11
     TRS4 it   5 1.00000000   0.407E+01       0.013     2180.909   0.100E-11
     TRS4 it   6 1.00000000   0.114E+01       0.013     2162.731   0.100E-11
     TRS4 it   7 1.00000000   0.168E+00       0.013     2179.289   0.100E-11
     TRS4 it   8 1.00000000   0.564E-02       0.013     2180.012   0.100E-11
     TRS4 it   9 1.00000000   0.872E-05       0.013     2179.309   0.100E-11
     TRS4 it  10 1.00000000   0.432E-10       0.013     2180.889   0.100E-11
     Final TRS4 iteration   10 1.00000000   0.432E-10
     Chemical potential (mu):       0.04132
 
 PAO| energy:  -190.12031099116712      penalty:   1.1885841651163374E-004
 PAO|LS| Need extra step
 PAO|LS| adapt:  T T F
 PAO|LS| adapt: scan_steps:    0.0000000000000000       0.40000000000000002        0.0000000000000000     
 PAO|LS| adapt: energies:   -186.03097547649747       -190.12031099116712        0.0000000000000000     
 PAO| ======================= Iteration:         5 =============================

     Lanczos converged:  T threshold:   0.100E-02
     Est. extremal eigenvalues:    0.470E+01   0.129E+00
     Est. condition number :    0.364E+02

 Order=           3
     NS sqrt iter    1 1.00000000   0.122E+01       0.021     2668.665
     NS sqrt iter    2 1.00000000   0.618E+00       0.034     3351.521
     NS sqrt iter    3 1.00000000   0.194E+00       0.034     3369.631
     NS sqrt iter    4 1.00000000   0.236E-01       0.034     3344.579
     NS sqrt iter    5 1.00000000   0.101E-03       0.034     3340.864
     NS sqrt iter    6 1.00000000   0.245E-10       0.018     2190.160
     Symmetrizing Results
     Final NS sqrt iter    6 1.00000000   0.203E-11

     Est. extremal eigenvalues     -0.83425     2.63288  converged:  T
     TRS4 it   1 1.00000000   0.288E+02       0.007     2105.270   0.100E-11
     TRS4 it   2 1.00000000   0.237E+02       0.013     2168.145   0.100E-11
     TRS4 it   3 1.00000000   0.154E+02       0.013     2158.573   0.100E-11
     TRS4 it   4 1.00000000   0.883E+01       0.013     2201.763   0.100E-11
     TRS4 it   5 1.00000000   0.355E+01       0.013     2167.881   0.100E-11
     TRS4 it   6 1.00000000   0.854E+00       0.013     2195.663   0.100E-11
     TRS4 it   7 1.00000000   0.922E-01       0.013     2166.328   0.100E-11
     TRS4 it   8 1.00000000   0.158E-02       0.013     2173.504   0.100E-11
     TRS4 it   9 1.00000000   0.644E-06       0.013     2194.733   0.100E-11
     TRS4 it  10 1.00000000   0.279E-12       0.013     2158.480   0.100E-11
     Final TRS4 iteration   10 1.00000000   0.279E-12
     Chemical potential (mu):       0.06379
 
 PAO| energy:  -189.76995630691428      penalty:   1.9017346641876918E-003
 PAO|LS| Need extra step
 PAO|LS| adapt:  T T T
 PAO|LS| adapt: scan_steps:    0.0000000000000000       0.40000000000000002       0.80000000000000004     
 PAO|LS| adapt: energies:   -186.03097547649747       -190.12031099116712       -189.76995630691428     
 PAO|LS| adapt: suggested step_size:   0.56843431243577613     
 PAO|LS| adapt: predicted energy  -190.51391890703076     
 PAO| ======================= Iteration:         6 =============================

     Lanczos converged:  F threshold:   0.100E-02
     Est. extremal eigenvalues:    0.502E+01   0.121E+00
     Est. condition number :    0.415E+02

 Order=           3
     NS sqrt iter    1 1.00000000   0.128E+01       0.021     2683.573
     NS sqrt iter    2 1.00000000   0.663E+00       0.033     3390.605
     NS sqrt iter    3 1.00000000   0.223E+00       0.034     3352.421
     NS sqrt iter    4 1.00000000   0.334E-01       0.034     3347.510
     NS sqrt iter    5 1.00000000   0.247E-03       0.034     3365.538
     NS sqrt iter    6 1.00000000   0.290E-09       0.028     2628.231
     Symmetrizing Results
     Final NS sqrt iter    6 1.00000000   0.609E-12

     Est. extremal eigenvalues     -0.83350     2.63378  converged:  T
     TRS4 it   1 1.00000000   0.285E+02       0.007     2090.868   0.100E-11
     TRS4 it   2 1.00000000   0.237E+02       0.013     2166.022   0.100E-11
     TRS4 it   3 1.00000000   0.156E+02       0.013     2188.583   0.100E-11
     TRS4 it   4 1.00000000   0.909E+01       0.013     2174.591   0.100E-11
     TRS4 it   5 1.00000000   0.382E+01       0.013     2173.357   0.100E-11
     TRS4 it   6 1.00000000   0.100E+01       0.013     2193.994   0.100E-11
     TRS4 it   7 1.00000000   0.127E+00       0.013     2187.626   0.100E-11
     TRS4 it   8 1.00000000   0.311E-02       0.013     2164.090   0.100E-11
     TRS4 it   9 1.00000000   0.247E-05       0.013     2183.375   0.100E-11
     TRS4 it  10 1.00000000   0.367E-11       0.013     2195.043   0.100E-11
     Final TRS4 iteration   10 1.00000000   0.367E-11
     Chemical potential (mu):       0.05189
 
 PAO| energy:  -190.48715534075694      penalty:   4.8474252008684189E-004
 PAO|CG| warming up with steepest descent
 PAO|CG| beta:    0.0000000000000000     
 PAO| norm of gradient:   2.0831506082237130     
 PAO| energy improvement:  -4.4561798642594681     
 PAO| step      6                 -190.487155341  0.407E-02  0.568E+00     2.548
 PAO|LS| adapt:  T F F
 PAO|LS| adapt: scan_steps:    0.0000000000000000        0.0000000000000000        0.0000000000000000     
 PAO|LS| adapt: energies:   -190.48715534075694        0.0000000000000000        0.0000000000000000     
 PAO| ======================= Iteration:         7 =============================

     Lanczos converged:  F threshold:   0.100E-02
     Est. extremal eigenvalues:    0.488E+01   0.129E+00
     Est. condition number :    0.379E+02

 Order=           3
     NS sqrt iter    1 1.00000000   0.125E+01       0.021     2687.892
     NS sqrt iter    2 1.00000000   0.639E+00       0.034     3335.716
     NS sqrt iter    3 1.00000000   0.207E+00       0.034     3336.284
     NS sqrt iter    4 1.00000000   0.271E-01       0.034     3354.010
     NS sqrt iter    5 1.00000000   0.139E-03       0.034     3349.752
     NS sqrt iter    6 1.00000000   0.563E-10       0.022     2346.715
     Symmetrizing Results
     Final NS sqrt iter    6 1.00000000   0.209E-11

     Est. extremal eigenvalues     -0.83357     2.62343  converged:  T
     TRS4 it   1 1.00000000   0.286E+02       0.007     2100.956   0.100E-11
     TRS4 it   2 1.00000000   0.237E+02       0.013     2187.133   0.100E-11
     TRS4 it   3 1.00000000   0.156E+02       0.013     2192.344   0.100E-11
     TRS4 it   4 1.00000000   0.921E+01       0.013     2186.722   0.100E-11
     TRS4 it   5 1.00000000   0.391E+01       0.013     2181.820   0.100E-11
     TRS4 it   6 1.00000000   0.102E+01       0.013     2183.718   0.100E-11
     TRS4 it   7 1.00000000   0.129E+00       0.013     2174.463   0.100E-11
     TRS4 it   8 1.00000000   0.313E-02       0.013     2193.588   0.100E-11
     TRS4 it   9 1.00000000   0.264E-05       0.013     2169.944   0.100E-11
     TRS4 it  10 1.00000000   0.526E-11       0.013     2180.611   0.100E-11
     Final TRS4 iteration   10 1.00000000   0.526E-11
     Chemical potential (mu):       0.05464
 
 PAO| energy:  -189.58300767663752      penalty:   6.7205290956413670E-004
 PAO|LS| adapt:  T F T
 PAO|LS| adapt: scan_steps:    0.0000000000000000        0.0000000000000000       0.56843431243577613     
 PAO|LS| adapt: energies:   -190.48715534075694        0.0000000000000000       -189.58300767663752     
 PAO| ======================= Iteration:         8 =============================

     Lanczos converged:  F threshold:   0.100E-02
     Est. extremal eigenvalues:    0.495E+01   0.125E+00
     Est. condition number :    0.397E+02

 Order=           3
     NS sqrt iter    1 1.00000000   0.126E+01       0.021     2704.232
     NS sqrt iter    2 1.00000000   0.651E+00       0.034     3343.954
     NS sqrt iter    3 1.00000000   0.215E+00       0.034     3345.931
     NS sqrt iter    4 1.00000000   0.302E-01       0.034     3355.165
     NS sqrt iter    5 1.00000000   0.186E-03       0.034     3359.355
     NS sqrt iter    6 1.00000000   0.130E-09       0.026     2455.936
     Symmetrizing Results
     Final NS sqrt iter    6 1.00000000   0.156E-11

     Est. extremal eigenvalues     -0.83469     2.62884  converged:  T
     TRS4 it   1 1.00000000   0.285E+02       0.007     2110.372   0.100E-11
     TRS4 it   2 1.00000000   0.237E+02       0.013     2181.071   0.100E-11
     TRS4 it   3 1.00000000   0.156E+02       0.013     2171.760   0.100E-11
     TRS4 it   4 1.00000000   0.912E+01       0.013     2200.469   0.100E-11
     TRS4 it   5 1.00000000   0.384E+01       0.013     2179.192   0.100E-11
     TRS4 it   6 1.00000000   0.100E+01       0.013     2203.065   0.100E-11
     TRS4 it   7 1.00000000   0.127E+00       0.013     2171.492   0.100E-11
     TRS4 it   8 1.00000000   0.309E-02       0.013     2171.611   0.100E-11
     TRS4 it   9 1.00000000   0.248E-05       0.013     2163.738   0.100E-11
     TRS4 it  10 1.00000000   0.371E-11       0.013     2194.605   0.100E-11
     Final TRS4 iteration   10 1.00000000   0.371E-11
     Chemical potential (mu):       0.05184
 
 PAO| energy:  -190.86370589667158      penalty:   5.1255063735160743E-004
 PAO|LS| adapt:  T T T
 PAO|LS| adapt: scan_steps:    0.0000000000000000       0.28421715621788807       0.56843431243577613     
 PAO|LS| adapt: energies:   -190.48715534075694       -190.86370589667158       -189.58300767663752     
 PAO|LS| adapt: suggested step_size:   0.20668676922153509     
 PAO|LS| adapt: predicted energy  -190.92536554385288     
 PAO| ======================= Iteration:         9 =============================

     Lanczos converged:  F threshold:   0.100E-02
     Est. extremal eigenvalues:    0.497E+01   0.124E+00
     Est. condition number :    0.402E+02

 Order=           3
     NS sqrt iter    1 1.00000000   0.127E+01       0.021     2694.174
     NS sqrt iter    2 1.00000000   0.654E+00       0.034     3339.200
     NS sqrt iter    3 1.00000000   0.217E+00       0.034     3340.481
     NS sqrt iter    4 1.00000000   0.310E-01       0.034     3320.047
     NS sqrt iter    5 1.00000000   0.201E-03       0.034     3300.596
     NS sqrt iter    6 1.00000000   0.162E-09       0.027     2536.754
     Symmetrizing Results
     Final NS sqrt iter    6 1.00000000   0.131E-11

     Est. extremal eigenvalues     -0.83460     2.63026  converged:  T
     TRS4 it   1 1.00000000   0.285E+02       0.007     2105.772   0.100E-11
     TRS4 it   2 1.00000000   0.237E+02       0.013     2167.404   0.100E-11
     TRS4 it   3 1.00000000   0.156E+02       0.013     2198.247   0.100E-11
     TRS4 it   4 1.00000000   0.910E+01       0.013     2197.935   0.100E-11
     TRS4 it   5 1.00000000   0.383E+01       0.013     2165.321   0.100E-11
     TRS4 it   6 1.00000000   0.100E+01       0.013     2195.092   0.100E-11
     TRS4 it   7 1.00000000   0.127E+00       0.013     2182.154   0.100E-11
     TRS4 it   8 1.00000000   0.309E-02       0.013     2185.117   0.100E-11
     TRS4 it   9 1.00000000   0.247E-05       0.013     2190.244   0.100E-11
     TRS4 it  10 1.00000000   0.364E-11       0.013     2183.782   0.100E-11
     Final TRS4 iteration   10 1.00000000   0.364E-11
     Chemical potential (mu):       0.05159
 
 PAO| energy:  -190.92977411660416      penalty:   4.9612574284160814E-004
 PAO|CG| trace_G_new   0.74449682715978416     
 PAO|CG| trace_G_prev    4.3395164565428264     
 PAO|CG| trace_G_mix   -4.3772958673219294E-002
 PAO|CG| trace_D    4.3395164565428264     
 PAO|CG| trace_D_Gnew   4.3772958673219294E-002
 PAO|CG| beta:   0.18164922145749768     
 PAO| norm of gradient:  0.86284229564839032     
 PAO| energy improvement: -0.44261877584722242     
 PAO| step      9                 -190.929774117  0.169E-02  0.207E+00     1.573
 PAO|LS| adapt:  T F F
 PAO|LS| adapt: scan_steps:    0.0000000000000000        0.0000000000000000        0.0000000000000000     
 PAO|LS| adapt: energies:   -190.92977411660416        0.0000000000000000        0.0000000000000000     
 PAO| ======================= Iteration:        10 =============================

     Lanczos converged:  F threshold:   0.100E-02
     Est. extremal eigenvalues:    0.492E+01   0.127E+00
     Est. condition number :    0.387E+02

 Order=           3
     NS sqrt iter    1 1.00000000   0.126E+01       0.021     2694.361
     NS sqrt iter    2 1.00000000   0.646E+00       0.034     3347.571
     NS sqrt iter    3 1.00000000   0.211E+00       0.034     3360.478
     NS sqrt iter    4 1.00000000   0.289E-01       0.034     3365.702
     NS sqrt iter    5 1.00000000   0.162E-03       0.034     3357.391
     NS sqrt iter    6 1.00000000   0.841E-10       0.024     2430.763
     Symmetrizing Results
     Final NS sqrt iter    6 1.00000000   0.196E-11

     Est. extremal eigenvalues     -0.83509     2.61554  converged:  T
     TRS4 it   1 1.00000000   0.285E+02       0.007     2118.506   0.100E-11
     TRS4 it   2 1.00000000   0.236E+02       0.013     2165.155   0.100E-11
     TRS4 it   3 1.00000000   0.156E+02       0.013     2174.184   0.100E-11
     TRS4 it   4 1.00000000   0.908E+01       0.013     2194.921   0.100E-11
     TRS4 it   5 1.00000000   0.381E+01       0.013     2190.308   0.100E-11
     TRS4 it   6 1.00000000   0.987E+00       0.013     2187.074   0.100E-11
     TRS4 it   7 1.00000000   0.123E+00       0.013     2188.893   0.100E-11
     TRS4 it   8 1.00000000   0.291E-02       0.013     2201.875   0.100E-11
     TRS4 it   9 1.00000000   0.220E-05       0.013     2181.684   0.100E-11
     TRS4 it  10 1.00000000   0.289E-11       0.013     2182.308   0.100E-11
     Final TRS4 iteration   10 1.00000000   0.289E-11
     Chemical potential (mu):       0.05244
 
 PAO| energy:  -191.03218200263962      penalty:   4.9857267094630055E-004
 PAO|LS| adapt:  T T F
 PAO|LS| adapt: scan_steps:    0.0000000000000000       0.20668676922153509        0.0000000000000000     
 PAO|LS| adapt: energies:   -190.92977411660416       -191.03218200263962        0.0000000000000000     
 PAO| ======================= Iteration:        11 =============================

     Lanczos converged:  T threshold:   0.100E-02
     Est. extremal eigenvalues:    0.487E+01   0.130E+00
     Est. condition number :    0.374E+02

 Order=           3
     NS sqrt iter    1 1.00000000   0.125E+01       0.021     2666.206
     NS sqrt iter    2 1.00000000   0.638E+00       0.034     3336.277
     NS sqrt iter    3 1.00000000   0.206E+00       0.034     3348.447
     NS sqrt iter    4 1.00000000   0.268E-01       0.034     3344.284
     NS sqrt iter    5 1.00000000   0.129E-03       0.034     3341.740
     NS sqrt iter    6 1.00000000   0.432E-10       0.021     2276.938
     Symmetrizing Results
     Final NS sqrt iter    6 1.00000000   0.221E-11

     Est. extremal eigenvalues     -0.83523     2.60085  converged:  T
     TRS4 it   1 1.00000000   0.285E+02       0.007     2095.144   0.100E-11
     TRS4 it   2 1.00000000   0.236E+02       0.013     2183.219   0.100E-11
     TRS4 it   3 1.00000000   0.155E+02       0.013     2197.755   0.100E-11
     TRS4 it   4 1.00000000   0.906E+01       0.013     2166.369   0.100E-11
     TRS4 it   5 1.00000000   0.378E+01       0.013     2202.775   0.100E-11
     TRS4 it   6 1.00000000   0.972E+00       0.013     2210.019   0.100E-11
     TRS4 it   7 1.00000000   0.119E+00       0.013     2172.838   0.100E-11
     TRS4 it   8 1.00000000   0.272E-02       0.013     2173.545   0.100E-11
     TRS4 it   9 1.00000000   0.194E-05       0.013     2188.024   0.100E-11
     TRS4 it  10 1.00000000   0.226E-11       0.013     2207.234   0.100E-11
     Final TRS4 iteration   10 1.00000000   0.226E-11
     Chemical potential (mu):       0.05337
 
 PAO| energy:  -191.03770782068045      penalty:   5.1122769215542255E-004
 PAO|LS| adapt:  T T F
 PAO|LS| adapt: scan_steps:    0.0000000000000000       0.41337353844307018        0.0000000000000000     
 PAO|LS| adapt: energies:   -190.92977411660416       -191.03770782068045        0.0000000000000000     
 PAO| ======================= Iteration:        12 =============================

     Lanczos converged:  T threshold:   0.100E-02
     Est. extremal eigenvalues:    0.478E+01   0.137E+00
     Est. condition number :    0.350E+02

 Order=           3
     NS sqrt iter    1 1.00000000   0.123E+01       0.021     2687.421
     NS sqrt iter    2 1.00000000   0.622E+00       0.034     3359.054
     NS sqrt iter    3 1.00000000   0.196E+00       0.034     3337.902
     NS sqrt iter    4 1.00000000   0.231E-01       0.034     3361.296
     NS sqrt iter    5 1.00000000   0.827E-04       0.034     3336.406
     NS sqrt iter    6 1.00000000   0.110E-10       0.015     2125.043
     Symmetrizing Results
     Final NS sqrt iter    6 1.00000000   0.159E-11

     Est. extremal eigenvalues     -0.83449     2.57235  converged:  T
     TRS4 it   1 1.00000000   0.284E+02       0.007     2105.865   0.100E-11
     TRS4 it   2 1.00000000   0.234E+02       0.013     2175.210   0.100E-11
     TRS4 it   3 1.00000000   0.155E+02       0.013     2195.026   0.100E-11
     TRS4 it   4 1.00000000   0.899E+01       0.013     2174.103   0.100E-11
     TRS4 it   5 1.00000000   0.372E+01       0.013     2165.079   0.100E-11
     TRS4 it   6 1.00000000   0.937E+00       0.013     2169.633   0.100E-11
     TRS4 it   7 1.00000000   0.110E+00       0.013     2201.974   0.100E-11
     TRS4 it   8 1.00000000   0.234E-02       0.013     2194.576   0.100E-11
     TRS4 it   9 1.00000000   0.144E-05       0.013     2171.156   0.100E-11
     TRS4 it  10 1.00000000   0.128E-11       0.013     2176.376   0.100E-11
     Final TRS4 iteration   10 1.00000000   0.128E-11
     Chemical potential (mu):       0.05547
 
 PAO| energy:  -190.77551818459304      penalty:   5.7463834329449486E-004
 PAO|LS| Need extra step
 PAO|LS| adapt:  T T T
 PAO|LS| adapt: scan_steps:    0.0000000000000000       0.41337353844307018       0.82674707688614035     
 PAO|LS| adapt: energies:   -190.92977411660416       -191.03770782068045       -190.77551818459304     
 PAO|LS| adapt: suggested step_size:   0.32723290163120383     
 PAO|LS| adapt: predicted energy  -191.04574395687430     
 PAO| ======================= Iteration:        13 =============================

     Lanczos converged:  T threshold:   0.100E-02
     Est. extremal eigenvalues:    0.489E+01   0.129E+00
     Est. condition number :    0.380E+02

 Order=           3
     NS sqrt iter    1 1.00000000   0.125E+01       0.021     2678.325
     NS sqrt iter    2 1.00000000   0.641E+00       0.034     3375.390
     NS sqrt iter    3 1.00000000   0.208E+00       0.034     3366.526
     NS sqrt iter    4 1.00000000   0.277E-01       0.034     3329.139
     NS sqrt iter    5 1.00000000   0.142E-03       0.034     3339.940
     NS sqrt iter    6 1.00000000   0.571E-10       0.022     2323.746
     Symmetrizing Results
     Final NS sqrt iter    6 1.00000000   0.210E-11

     Est. extremal eigenvalues     -0.83521     2.60696  converged:  T
     TRS4 it   1 1.00000000   0.285E+02       0.007     2106.773   0.100E-11
     TRS4 it   2 1.00000000   0.236E+02       0.013     2202.635   0.100E-11
     TRS4 it   3 1.00000000   0.155E+02       0.013     2188.400   0.100E-11
     TRS4 it   4 1.00000000   0.907E+01       0.013     2197.326   0.100E-11
     TRS4 it   5 1.00000000   0.379E+01       0.013     2199.018   0.100E-11
     TRS4 it   6 1.00000000   0.978E+00       0.013     2193.372   0.100E-11
     TRS4 it   7 1.00000000   0.121E+00       0.013     2182.996   0.100E-11
     TRS4 it   8 1.00000000   0.280E-02       0.013     2198.623   0.100E-11
     TRS4 it   9 1.00000000   0.205E-05       0.013     2172.865   0.100E-11
     TRS4 it  10 1.00000000   0.252E-11       0.013     2204.030   0.100E-11
     Final TRS4 iteration   10 1.00000000   0.252E-11
     Chemical potential (mu):       0.05297
 
 PAO| energy:  -191.04690682092507      penalty:   5.0462646566144093E-004
 PAO|CG| trace_G_new   0.29137376202480408     
 PAO|CG| trace_G_prev   0.74449682715978416     
 PAO|CG| trace_G_mix   -1.2517550323945388E-002
 PAO|CG| trace_D   0.87178277232705448     
 PAO|CG| trace_D_Gnew   1.2224441008127491E-002
 PAO|CG| beta:   0.40818348885122679     
 PAO| norm of gradient:  0.53979047974635874     
 PAO| energy improvement: -0.11713270432090894     
 PAO| step     13                 -191.046906821  0.105E-02  0.327E+00     2.003
 PAO|LS| adapt:  T F F
 PAO|LS| adapt: scan_steps:    0.0000000000000000        0.0000000000000000        0.0000000000000000     
 PAO|LS| adapt: energies:   -191.04690682092507        0.0000000000000000        0.0000000000000000     
 PAO| ======================= Iteration:        14 =============================

     Lanczos converged:  T threshold:   0.100E-02
     Est. extremal eigenvalues:    0.482E+01   0.132E+00
     Est. condition number :    0.367E+02

 Order=           3
     NS sqrt iter    1 1.00000000   0.124E+01       0.021     2671.273
     NS sqrt iter    2 1.00000000   0.631E+00       0.034     3367.441
     NS sqrt iter    3 1.00000000   0.202E+00       0.034     3360.669
     NS sqrt iter    4 1.00000000   0.255E-01       0.034     3344.559
     NS sqrt iter    5 1.00000000   0.114E-03       0.034     3339.461
     NS sqrt iter    6 1.00000000   0.296E-10       0.019     2207.794
     Symmetrizing Results
     Final NS sqrt iter    6 1.00000000   0.213E-11

     Est. extremal eigenvalues     -0.83563     2.60112  converged:  T
     TRS4 it   1 1.00000000   0.285E+02       0.007     2125.963   0.100E-11
     TRS4 it   2 1.00000000   0.236E+02       0.013     2199.622   0.100E-11
     TRS4 it   3 1.00000000   0.155E+02       0.013     2175.693   0.100E-11
     TRS4 it   4 1.00000000   0.901E+01       0.013     2182.948   0.100E-11
     TRS4 it   5 1.00000000   0.373E+01       0.013     2175.600   0.100E-11
     TRS4 it   6 1.00000000   0.948E+00       0.013     2161.682   0.100E-11
     TRS4 it   7 1.00000000   0.114E+00       0.013     2178.718   0.100E-11
     TRS4 it   8 1.00000000   0.247E-02       0.013     2179.469   0.100E-11
     TRS4 it   9 1.00000000   0.160E-05       0.013     2194.264   0.100E-11
     TRS4 it  10 1.00000000   0.157E-11       0.013     2167.759   0.100E-11
     Final TRS4 iteration   10 1.00000000   0.157E-11
     Chemical potential (mu):       0.05484
 
 PAO| energy:  -191.10208917570074      penalty:   5.0728451663732666E-004
 PAO|LS| adapt:  T T F
 PAO|LS| adapt: scan_steps:    0.0000000000000000       0.32723290163120383        0.0000000000000000     
 PAO|LS| adapt: energies:   -191.04690682092507       -191.10208917570074        0.0000000000000000     
 PAO| ======================= Iteration:        15 =============================

     Lanczos converged:  T threshold:   0.100E-02
     Est. extremal eigenvalues:    0.476E+01   0.134E+00
     Est. condition number :    0.355E+02

 Order=           3
     NS sqrt iter    1 1.00000000   0.123E+01       0.021     2675.329
     NS sqrt iter    2 1.00000000   0.621E+00       0.034     3355.714
     NS sqrt iter    3 1.00000000   0.196E+00       0.034     3361.908
     NS sqrt iter    4 1.00000000   0.236E-01       0.034     3363.319
     NS sqrt iter    5 1.00000000   0.912E-04       0.034     3361.041
     NS sqrt iter    6 1.00000000   0.155E-10       0.016     2128.103
     Symmetrizing Results
     Final NS sqrt iter    6 1.00000000   0.181E-11

     Est. extremal eigenvalues     -0.83569     2.59500  converged:  T
     TRS4 it   1 1.00000000   0.286E+02       0.007     2142.321   0.100E-11
     TRS4 it   2 1.00000000   0.235E+02       0.013     2173.434   0.100E-11
     TRS4 it   3 1.00000000   0.155E+02       0.013     2191.330   0.100E-11
     TRS4 it   4 1.00000000   0.895E+01       0.013     2187.286   0.100E-11
     TRS4 it   5 1.00000000   0.368E+01       0.013     2203.095   0.100E-11
     TRS4 it   6 1.00000000   0.918E+00       0.013     2194.009   0.100E-11
     TRS4 it   7 1.00000000   0.107E+00       0.013     2178.580   0.100E-11
     TRS4 it   8 1.00000000   0.219E-02       0.013     2160.485   0.100E-11
     TRS4 it   9 1.00000000   0.126E-05       0.013     2176.359   0.100E-11
     TRS4 it  10 1.00000000   0.963E-12       0.013     2157.019   0.100E-11
     Final TRS4 iteration   10 1.00000000   0.963E-12
     Chemical potential (mu):       0.05662
 
 PAO| energy:  -191.08136058628918      penalty:   5.2566812082194205E-004
 PAO|LS| adapt:  T T T
 PAO|LS| adapt: scan_steps:    0.0000000000000000       0.32723290163120383       0.65446580326240766     
 PAO|LS| adapt: energies:   -191.04690682092507       -191.10208917570074       -191.08136058628918     
 PAO|LS| adapt: suggested step_size:   0.40149364053341990     
 PAO|LS| adapt: predicted energy  -191.10404387070631     
 PAO| ======================= Iteration:        16 =============================

     Lanczos converged:  T threshold:   0.100E-02
     Est. extremal eigenvalues:    0.481E+01   0.132E+00
     Est. condition number :    0.364E+02

 Order=           3
     NS sqrt iter    1 1.00000000   0.124E+01       0.021     2693.926
     NS sqrt iter    2 1.00000000   0.628E+00       0.034     3356.889
     NS sqrt iter    3 1.00000000   0.201E+00       0.034     3329.039
     NS sqrt iter    4 1.00000000   0.251E-01       0.034     3344.492
     NS sqrt iter    5 1.00000000   0.108E-03       0.034     3342.637
     NS sqrt iter    6 1.00000000   0.256E-10       0.018     2185.455
     Symmetrizing Results
     Final NS sqrt iter    6 1.00000000   0.209E-11

     Est. extremal eigenvalues     -0.83568     2.59975  converged:  T
     TRS4 it   1 1.00000000   0.286E+02       0.007     2099.474   0.100E-11
     TRS4 it   2 1.00000000   0.236E+02       0.013     2179.402   0.100E-11
     TRS4 it   3 1.00000000   0.155E+02       0.013     2170.267   0.100E-11
     TRS4 it   4 1.00000000   0.900E+01       0.013     2173.255   0.100E-11
     TRS4 it   5 1.00000000   0.372E+01       0.013     2193.899   0.100E-11
     TRS4 it   6 1.00000000   0.941E+00       0.013     2160.269   0.100E-11
     TRS4 it   7 1.00000000   0.112E+00       0.013     2181.964   0.100E-11
     TRS4 it   8 1.00000000   0.240E-02       0.013     2164.174   0.100E-11
     TRS4 it   9 1.00000000   0.152E-05       0.013     2188.225   0.100E-11
     TRS4 it  10 1.00000000   0.136E-11       0.013     2185.880   0.100E-11
     Final TRS4 iteration   10 1.00000000   0.136E-11
     Chemical potential (mu):       0.05525
 
 PAO| energy:  -191.10398091579592      penalty:   5.1001923651176060E-004
 PAO|CG| trace_G_new   0.10958219335836439     
 PAO|CG| trace_G_prev   0.29137376202480408     
 PAO|CG| trace_G_mix    4.6829524128936487E-003
 PAO|CG| trace_D   0.42664513816310995     
 PAO|CG| trace_D_Gnew   7.5795853869517265E-004
 PAO|CG| beta:   0.36001608455239309     
 PAO| norm of gradient:  0.33103201258845705     
 PAO| energy improvement:  -5.7074094870841918E-002
 PAO| step     16                 -191.103980916  0.647E-03  0.401E+00     1.552
 PAO|LS| adapt:  T F F
 PAO|LS| adapt: scan_steps:    0.0000000000000000        0.0000000000000000        0.0000000000000000     
 PAO|LS| adapt: energies:   -191.10398091579592        0.0000000000000000        0.0000000000000000     
 PAO| ======================= Iteration:        17 =============================

     Lanczos converged:  T threshold:   0.100E-02
     Est. extremal eigenvalues:    0.477E+01   0.133E+00
     Est. condition number :    0.360E+02

 Order=           3
     NS sqrt iter    1 1.00000000   0.123E+01       0.021     2681.864
     NS sqrt iter    2 1.00000000   0.624E+00       0.034     3342.010
     NS sqrt iter    3 1.00000000   0.198E+00       0.034     3358.259
     NS sqrt iter    4 1.00000000   0.243E-01       0.034     3354.193
     NS sqrt iter    5 1.00000000   0.986E-04       0.034     3365.382
     NS sqrt iter    6 1.00000000   0.197E-10       0.017     2156.238
     Symmetrizing Results
     Final NS sqrt iter    6 1.00000000   0.197E-11

     Est. extremal eigenvalues     -0.83574     2.59785  converged:  T
     TRS4 it   1 1.00000000   0.286E+02       0.007     2104.750   0.100E-11
     TRS4 it   2 1.00000000   0.235E+02       0.013     2186.189   0.100E-11
     TRS4 it   3 1.00000000   0.155E+02       0.013     2191.085   0.100E-11
     TRS4 it   4 1.00000000   0.895E+01       0.013     2175.007   0.100E-11
     TRS4 it   5 1.00000000   0.368E+01       0.013     2170.603   0.100E-11
     TRS4 it   6 1.00000000   0.920E+00       0.013     2166.297   0.100E-11
     TRS4 it   7 1.00000000   0.108E+00       0.013     2213.345   0.100E-11
     TRS4 it   8 1.00000000   0.221E-02       0.013     2181.865   0.100E-11
     TRS4 it   9 1.00000000   0.129E-05       0.013     2178.035   0.100E-11
     TRS4 it  10 1.00000000   0.102E-11       0.013     2174.565   0.100E-11
     Final TRS4 iteration   10 1.00000000   0.102E-11
     Chemical potential (mu):       0.05640
 
 PAO| energy:  -191.10817383014353      penalty:   5.0338233859899782E-004
 PAO|LS| adapt:  T T F
 PAO|LS| adapt: scan_steps:    0.0000000000000000       0.40149364053341990        0.0000000000000000     
 PAO|LS| adapt: energies:   -191.10398091579592       -191.10817383014353        0.0000000000000000     
 PAO| ======================= Iteration:        18 =============================

     Lanczos converged:  T threshold:   0.100E-02
     Est. extremal eigenvalues:    0.474E+01   0.133E+00
     Est. condition number :    0.355E+02

 Order=           3
     NS sqrt iter    1 1.00000000   0.122E+01       0.021     2685.331
     NS sqrt iter    2 1.00000000   0.619E+00       0.034     3371.246
     NS sqrt iter    3 1.00000000   0.196E+00       0.034     3348.035
     NS sqrt iter    4 1.00000000   0.235E-01       0.034     3336.023
     NS sqrt iter    5 1.00000000   0.903E-04       0.034     3334.588
     NS sqrt iter    6 1.00000000   0.154E-10       0.016     2140.750
     Symmetrizing Results
     Final NS sqrt iter    6 1.00000000   0.182E-11

     Est. extremal eigenvalues     -0.83563     2.59591  converged:  T
     TRS4 it   1 1.00000000   0.286E+02       0.007     2100.866   0.100E-11
     TRS4 it   2 1.00000000   0.235E+02       0.013     2187.538   0.100E-11
     TRS4 it   3 1.00000000   0.154E+02       0.013     2177.320   0.100E-11
     TRS4 it   4 1.00000000   0.890E+01       0.013     2201.836   0.100E-11
     TRS4 it   5 1.00000000   0.364E+01       0.013     2190.635   0.100E-11
     TRS4 it   6 1.00000000   0.901E+00       0.013     2179.644   0.100E-11
     TRS4 it   7 1.00000000   0.103E+00       0.013     2183.025   0.100E-11
     TRS4 it   8 1.00000000   0.204E-02       0.013     2188.918   0.100E-11
     TRS4 it   9 1.00000000   0.111E-05       0.013     2163.099   0.100E-11
     TRS4 it  10 1.00000000   0.776E-12       0.013     2181.474   0.100E-11
     Final TRS4 iteration   10 1.00000000   0.776E-12
     Chemical potential (mu):       0.05763
 
 PAO| energy:  -191.03273571168751      penalty:   5.0487135186946179E-004
 PAO|LS| adapt:  T T T
 PAO|LS| adapt: scan_steps:    0.0000000000000000       0.40149364053341990       0.80298728106683981     
 PAO|LS| adapt: energies:   -191.10398091579592       -191.10817383014353       -191.03273571168751     
 PAO|LS| adapt: suggested step_size:   0.22188717706729316     
 PAO|LS| adapt: predicted energy  -191.11614163950398     
 PAO| ======================= Iteration:        19 =============================

     Lanczos converged:  T threshold:   0.100E-02
     Est. extremal eigenvalues:    0.479E+01   0.132E+00
     Est. condition number :    0.362E+02

 Order=           3
     NS sqrt iter    1 1.00000000   0.123E+01       0.021     2673.531
     NS sqrt iter    2 1.00000000   0.626E+00       0.034     3368.750
     NS sqrt iter    3 1.00000000   0.199E+00       0.034     3331.201
     NS sqrt iter    4 1.00000000   0.246E-01       0.034     3342.519
     NS sqrt iter    5 1.00000000   0.103E-03       0.034     3340.793
     NS sqrt iter    6 1.00000000   0.221E-10       0.018     2158.836
     Symmetrizing Results
     Final NS sqrt iter    6 1.00000000   0.201E-11

     Est. extremal eigenvalues     -0.83573     2.59871  converged:  T
     TRS4 it   1 1.00000000   0.286E+02       0.007     2125.779   0.100E-11
     TRS4 it   2 1.00000000   0.235E+02       0.013     2201.855   0.100E-11
     TRS4 it   3 1.00000000   0.155E+02       0.013     2183.291   0.100E-11
     TRS4 it   4 1.00000000   0.897E+01       0.013     2174.080   0.100E-11
     TRS4 it   5 1.00000000   0.370E+01       0.013     2170.839   0.100E-11
     TRS4 it   6 1.00000000   0.929E+00       0.013     2197.589   0.100E-11
     TRS4 it   7 1.00000000   0.110E+00       0.013     2181.293   0.100E-11
     TRS4 it   8 1.00000000   0.230E-02       0.013     2177.520   0.100E-11
     TRS4 it   9 1.00000000   0.139E-05       0.013     2197.431   0.100E-11
     TRS4 it  10 1.00000000   0.116E-11       0.013     2200.528   0.100E-11
     Final TRS4 iteration   10 1.00000000   0.116E-11
     Chemical potential (mu):       0.05588
 
 PAO| energy:  -191.11612148298266      penalty:   5.0536435455269114E-004
 PAO|CG| trace_G_new    2.2692125271886240E-002
 PAO|CG| trace_G_prev   0.10958219335836439     
 PAO|CG| trace_G_mix   -3.4455928936985352E-004
 PAO|CG| trace_D   0.16433458976915002     
 PAO|CG| trace_D_Gnew  -6.3166702174831326E-005
 PAO|CG| beta:   0.21022288252544552     
 PAO| norm of gradient:  0.15063905626326207     
 PAO| energy improvement:  -1.2140567186747830E-002
 PAO| step     19                 -191.116121483  0.294E-03  0.222E+00     1.549
 PAO|LS| adapt:  T F F
 PAO|LS| adapt: scan_steps:    0.0000000000000000        0.0000000000000000        0.0000000000000000     
 PAO|LS| adapt: energies:   -191.11612148298266        0.0000000000000000        0.0000000000000000     
 PAO| ======================= Iteration:        20 =============================

     Lanczos converged:  T threshold:   0.100E-02
     Est. extremal eigenvalues:    0.478E+01   0.132E+00
     Est. condition number :    0.361E+02

 Order=           3
     NS sqrt iter    1 1.00000000   0.123E+01       0.021     2690.385
     NS sqrt iter    2 1.00000000   0.625E+00       0.034     3330.909
     NS sqrt iter    3 1.00000000   0.199E+00       0.034     3353.046
     NS sqrt iter    4 1.00000000   0.246E-01       0.034     3354.157
     NS sqrt iter    5 1.00000000   0.103E-03       0.034     3349.245
     NS sqrt iter    6 1.00000000   0.220E-10       0.017     2165.360
     Symmetrizing Results
     Final NS sqrt iter    6 1.00000000   0.200E-11

     Est. extremal eigenvalues     -0.83574     2.59748  converged:  T
     TRS4 it   1 1.00000000   0.286E+02       0.007     2127.403   0.100E-11
     TRS4 it   2 1.00000000   0.235E+02       0.013     2180.085   0.100E-11
     TRS4 it   3 1.00000000   0.155E+02       0.013     2197.411   0.100E-11
     TRS4 it   4 1.00000000   0.896E+01       0.013     2188.804   0.100E-11
     TRS4 it   5 1.00000000   0.369E+01       0.013     2177.341   0.100E-11
     TRS4 it   6 1.00000000   0.925E+00       0.013     2172.357   0.100E-11
     TRS4 it   7 1.00000000   0.109E+00       0.013     2170.959   0.100E-11
     TRS4 it   8 1.00000000   0.226E-02       0.013     2183.842   0.100E-11
     TRS4 it   9 1.00000000   0.135E-05       0.013     2198.968   0.100E-11
     TRS4 it  10 1.00000000   0.111E-11       0.013     2157.598   0.100E-11
     Final TRS4 iteration   10 1.00000000   0.111E-11
     Chemical potential (mu):       0.05608
 
 PAO| energy:  -191.12017392885897      penalty:   4.9571073266361230E-004
 PAO|LS| adapt:  T T F
 PAO|LS| adapt: scan_steps:    0.0000000000000000       0.22188717706729316        0.0000000000000000     
 PAO|LS| adapt: energies:   -191.11612148298266       -191.12017392885897        0.0000000000000000     
 PAO| ======================= Iteration:        21 =============================

     Lanczos converged:  T threshold:   0.100E-02
     Est. extremal eigenvalues:    0.478E+01   0.132E+00
     Est. condition number :    0.361E+02

 Order=           3
     NS sqrt iter    1 1.00000000   0.123E+01       0.021     2699.389
     NS sqrt iter    2 1.00000000   0.625E+00       0.034     3325.970
     NS sqrt iter    3 1.00000000   0.199E+00       0.034     3358.893
     NS sqrt iter    4 1.00000000   0.246E-01       0.034     3328.482
     NS sqrt iter    5 1.00000000   0.102E-03       0.034     3347.222
     NS sqrt iter    6 1.00000000   0.219E-10       0.017     2160.275
     Symmetrizing Results
     Final NS sqrt iter    6 1.00000000   0.201E-11

     Est. extremal eigenvalues     -0.83574     2.59624  converged:  T
     TRS4 it   1 1.00000000   0.286E+02       0.007     2116.622   0.100E-11
     TRS4 it   2 1.00000000   0.235E+02       0.013     2190.930   0.100E-11
     TRS4 it   3 1.00000000   0.155E+02       0.013     2174.995   0.100E-11
     TRS4 it   4 1.00000000   0.895E+01       0.013     2174.161   0.100E-11
     TRS4 it   5 1.00000000   0.368E+01       0.013     2169.251   0.100E-11
     TRS4 it   6 1.00000000   0.921E+00       0.013     2192.902   0.100E-11
     TRS4 it   7 1.00000000   0.108E+00       0.013     2186.234   0.100E-11
     TRS4 it   8 1.00000000   0.222E-02       0.013     2170.520   0.100E-11
     TRS4 it   9 1.00000000   0.131E-05       0.013     2165.806   0.100E-11
     TRS4 it  10 1.00000000   0.102E-11       0.013     2191.888   0.100E-11
     Final TRS4 iteration   10 1.00000000   0.102E-11
     Chemical potential (mu):       0.05627
 
 PAO| energy:  -191.12224074159781      penalty:   4.8651523537534337E-004
 PAO|LS| adapt:  T T F
 PAO|LS| adapt: scan_steps:    0.0000000000000000       0.44377435413458632        0.0000000000000000     
 PAO|LS| adapt: energies:   -191.11612148298266       -191.12224074159781        0.0000000000000000     
 PAO| ======================= Iteration:        22 =============================

     Lanczos converged:  T threshold:   0.100E-02
     Est. extremal eigenvalues:    0.477E+01   0.132E+00
     Est. condition number :    0.361E+02

 Order=           3
     NS sqrt iter    1 1.00000000   0.123E+01       0.021     2681.424
     NS sqrt iter    2 1.00000000   0.624E+00       0.034     3358.338
     NS sqrt iter    3 1.00000000   0.199E+00       0.034     3342.895
     NS sqrt iter    4 1.00000000   0.246E-01       0.034     3350.354
     NS sqrt iter    5 1.00000000   0.102E-03       0.034     3331.170
     NS sqrt iter    6 1.00000000   0.218E-10       0.017     2185.670
     Symmetrizing Results
     Final NS sqrt iter    6 1.00000000   0.201E-11

     Est. extremal eigenvalues     -0.83575     2.59373  converged:  T
     TRS4 it   1 1.00000000   0.286E+02       0.007     2104.598   0.100E-11
     TRS4 it   2 1.00000000   0.235E+02       0.013     2165.315   0.100E-11
     TRS4 it   3 1.00000000   0.155E+02       0.013     2185.672   0.100E-11
     TRS4 it   4 1.00000000   0.892E+01       0.013     2186.085   0.100E-11
     TRS4 it   5 1.00000000   0.366E+01       0.013     2162.376   0.100E-11
     TRS4 it   6 1.00000000   0.912E+00       0.013     2175.818   0.100E-11
     TRS4 it   7 1.00000000   0.106E+00       0.013     2166.205   0.100E-11
     TRS4 it   8 1.00000000   0.215E-02       0.013     2178.575   0.100E-11
     TRS4 it   9 1.00000000   0.123E-05       0.013     2160.631   0.100E-11
     TRS4 it  10 1.00000000   0.913E-12       0.013     2172.021   0.100E-11
     Final TRS4 iteration   10 1.00000000   0.913E-12
     Chemical potential (mu):       0.05668
 
 PAO| energy:  -191.12033005930596      penalty:   4.6946948831682797E-004
 PAO|LS| Need extra step
 PAO|LS| adapt:  T T T
 PAO|LS| adapt: scan_steps:    0.0000000000000000       0.44377435413458632       0.88754870826917265     
 PAO|LS| adapt: energies:   -191.11612148298266       -191.12224074159781       -191.12033005930596     
 PAO|LS| adapt: suggested step_size:   0.56006775288606092     
 PAO|LS| adapt: predicted energy  -191.12251646147661     
 PAO| ======================= Iteration:        23 =============================

     Lanczos converged:  T threshold:   0.100E-02
     Est. extremal eigenvalues:    0.478E+01   0.132E+00
     Est. condition number :    0.361E+02

 Order=           3
     NS sqrt iter    1 1.00000000   0.123E+01       0.021     2681.762
     NS sqrt iter    2 1.00000000   0.625E+00       0.034     3370.207
     NS sqrt iter    3 1.00000000   0.199E+00       0.034     3340.863
     NS sqrt iter    4 1.00000000   0.246E-01       0.034     3359.536
     NS sqrt iter    5 1.00000000   0.102E-03       0.033     3386.776
     NS sqrt iter    6 1.00000000   0.219E-10       0.017     2172.891
     Symmetrizing Results
     Final NS sqrt iter    6 1.00000000   0.201E-11

     Est. extremal eigenvalues     -0.83575     2.59558  converged:  T
     TRS4 it   1 1.00000000   0.286E+02       0.007     2127.390   0.100E-11
     TRS4 it   2 1.00000000   0.235E+02       0.013     2184.677   0.100E-11
     TRS4 it   3 1.00000000   0.155E+02       0.013     2197.024   0.100E-11
     TRS4 it   4 1.00000000   0.894E+01       0.013     2187.111   0.100E-11
     TRS4 it   5 1.00000000   0.367E+01       0.013     2197.689   0.100E-11
     TRS4 it   6 1.00000000   0.919E+00       0.013     2187.264   0.100E-11
     TRS4 it   7 1.00000000   0.107E+00       0.013     2193.356   0.100E-11
     TRS4 it   8 1.00000000   0.220E-02       0.013     2172.460   0.100E-11
     TRS4 it   9 1.00000000   0.128E-05       0.013     2196.288   0.100E-11
     TRS4 it  10 1.00000000   0.101E-11       0.013     2186.764   0.100E-11
     Final TRS4 iteration   10 1.00000000   0.101E-11
     Chemical potential (mu):       0.05638
 
 PAO| energy:  -191.12252359397826      penalty:   4.8187609695992008E-004
 PAO|CG| trace_G_new    1.7656198740715237E-002
 PAO|CG| trace_G_prev    2.2692125271886240E-002
 PAO|CG| trace_G_mix    1.2136827392750270E-004
 PAO|CG| trace_D    2.9981230486236424E-002
 PAO|CG| trace_D_Gnew  -5.2349765248966716E-005
 PAO|CG| beta:   0.77272755445749330     
 PAO| norm of gradient:  0.13287662977632764     
 PAO| energy improvement:  -6.4021109955945121E-003
 PAO| step     23                 -191.122523594  0.260E-03  0.560E+00     2.011
 PAO|LS| adapt:  T F F
 PAO|LS| adapt: scan_steps:    0.0000000000000000        0.0000000000000000        0.0000000000000000     
 PAO|LS| adapt: energies:   -191.12252359397826        0.0000000000000000        0.0000000000000000     
 PAO| ======================= Iteration:        24 =============================

     Lanczos converged:  T threshold:   0.100E-02
     Est. extremal eigenvalues:    0.477E+01   0.132E+00
     Est. condition number :    0.362E+02

 Order=           3
     NS sqrt iter    1 1.00000000   0.122E+01       0.021     2700.600
     NS sqrt iter    2 1.00000000   0.624E+00       0.034     3343.807
     NS sqrt iter    3 1.00000000   0.199E+00       0.034     3333.421
     NS sqrt iter    4 1.00000000   0.246E-01       0.034     3361.567
     NS sqrt iter    5 1.00000000   0.103E-03       0.034     3349.514
     NS sqrt iter    6 1.00000000   0.223E-10       0.017     2204.109
     Symmetrizing Results
     Final NS sqrt iter    6 1.00000000   0.201E-11

     Est. extremal eigenvalues     -0.83575     2.59238  converged:  T
     TRS4 it   1 1.00000000   0.286E+02       0.007     2152.350   0.100E-11
     TRS4 it   2 1.00000000   0.235E+02       0.013     2192.084   0.100E-11
     TRS4 it   3 1.00000000   0.154E+02       0.013     2179.279   0.100E-11
     TRS4 it   4 1.00000000   0.891E+01       0.013     2183.559   0.100E-11
     TRS4 it   5 1.00000000   0.365E+01       0.013     2184.818   0.100E-11
     TRS4 it   6 1.00000000   0.909E+00       0.013     2202.598   0.100E-11
     TRS4 it   7 1.00000000   0.105E+00       0.013     2179.718   0.100E-11
     TRS4 it   8 1.00000000   0.212E-02       0.013     2201.948   0.100E-11
     TRS4 it   9 1.00000000   0.120E-05       0.013     2162.455   0.100E-11
     TRS4 it  10 1.00000000   0.906E-12       0.013     2200.629   0.100E-11
     Final TRS4 iteration   10 1.00000000   0.906E-12
     Chemical potential (mu):       0.05683
 
 PAO| energy:  -191.12571048593759      penalty:   4.4494858383894114E-004
 PAO|LS| adapt:  T T F
 PAO|LS| adapt: scan_steps:    0.0000000000000000       0.56006775288606092        0.0000000000000000     
 PAO|LS| adapt: energies:   -191.12252359397826       -191.12571048593759        0.0000000000000000     
 PAO| ======================= Iteration:        25 =============================

     Lanczos converged:  T threshold:   0.100E-02
     Est. extremal eigenvalues:    0.475E+01   0.131E+00
     Est. condition number :    0.363E+02

 Order=           3
     NS sqrt iter    1 1.00000000   0.122E+01       0.021     2688.333
     NS sqrt iter    2 1.00000000   0.623E+00       0.034     3369.206
     NS sqrt iter    3 1.00000000   0.199E+00       0.034     3352.560
     NS sqrt iter    4 1.00000000   0.246E-01       0.034     3351.073
     NS sqrt iter    5 1.00000000   0.103E-03       0.034     3365.460
     NS sqrt iter    6 1.00000000   0.229E-10       0.018     2165.972
     Symmetrizing Results
     Final NS sqrt iter    6 1.00000000   0.203E-11

     Est. extremal eigenvalues     -0.83574     2.58903  converged:  T
     TRS4 it   1 1.00000000   0.286E+02       0.007     2092.556   0.100E-11
     TRS4 it   2 1.00000000   0.235E+02       0.013     2190.881   0.100E-11
     TRS4 it   3 1.00000000   0.154E+02       0.013     2188.908   0.100E-11
     TRS4 it   4 1.00000000   0.889E+01       0.013     2188.728   0.100E-11
     TRS4 it   5 1.00000000   0.363E+01       0.013     2177.646   0.100E-11
     TRS4 it   6 1.00000000   0.900E+00       0.013     2151.984   0.100E-11
     TRS4 it   7 1.00000000   0.103E+00       0.013     2169.509   0.100E-11
     TRS4 it   8 1.00000000   0.205E-02       0.013     2196.102   0.100E-11
     TRS4 it   9 1.00000000   0.112E-05       0.013     2157.393   0.100E-11
     TRS4 it  10 1.00000000   0.753E-12       0.013     2173.590   0.100E-11
     Final TRS4 iteration   10 1.00000000   0.753E-12
     Chemical potential (mu):       0.05729
 
 PAO| energy:  -191.11523282098722      penalty:   4.1217283545967224E-004
 PAO|LS| adapt:  T T T
 PAO|LS| adapt: scan_steps:    0.0000000000000000       0.56006775288606092        1.1201355057721218     
 PAO|LS| adapt: energies:   -191.12252359397826       -191.12571048593759       -191.11523282098722     
 PAO|LS| adapt: suggested step_size:   0.41065468106536357     
 PAO|LS| adapt: predicted energy  -191.12619673817355     
 PAO| ======================= Iteration:        26 =============================

     Lanczos converged:  T threshold:   0.100E-02
     Est. extremal eigenvalues:    0.477E+01   0.132E+00
     Est. condition number :    0.362E+02

 Order=           3
     NS sqrt iter    1 1.00000000   0.123E+01       0.021     2659.534
     NS sqrt iter    2 1.00000000   0.624E+00       0.034     3371.154
     NS sqrt iter    3 1.00000000   0.199E+00       0.034     3318.692
     NS sqrt iter    4 1.00000000   0.246E-01       0.034     3350.326
     NS sqrt iter    5 1.00000000   0.103E-03       0.034     3371.534
     NS sqrt iter    6 1.00000000   0.222E-10       0.017     2160.377
     Symmetrizing Results
     Final NS sqrt iter    6 1.00000000   0.201E-11

     Est. extremal eigenvalues     -0.83575     2.59325  converged:  T
     TRS4 it   1 1.00000000   0.286E+02       0.007     2111.264   0.100E-11
     TRS4 it   2 1.00000000   0.235E+02       0.013     2194.175   0.100E-11
     TRS4 it   3 1.00000000   0.155E+02       0.013     2173.839   0.100E-11
     TRS4 it   4 1.00000000   0.892E+01       0.013     2182.340   0.100E-11
     TRS4 it   5 1.00000000   0.365E+01       0.013     2187.469   0.100E-11
     TRS4 it   6 1.00000000   0.912E+00       0.013     2184.216   0.100E-11
     TRS4 it   7 1.00000000   0.106E+00       0.013     2190.771   0.100E-11
     TRS4 it   8 1.00000000   0.214E-02       0.013     2191.434   0.100E-11
     TRS4 it   9 1.00000000   0.122E-05       0.013     2173.206   0.100E-11
     TRS4 it  10 1.00000000   0.906E-12       0.013     2187.841   0.100E-11
     Final TRS4 iteration   10 1.00000000   0.906E-12
     Chemical potential (mu):       0.05671
 
 PAO| energy:  -191.12618327053502      penalty:   4.5438573157703525E-004
 PAO|CG| trace_G_new    1.3339147703421234E-002
 PAO|CG| trace_G_prev    1.7656198740715237E-002
 PAO|CG| trace_G_mix    2.4095782898716036E-004
 PAO|CG| trace_D    3.5639131730957049E-002
 PAO|CG| trace_D_Gnew  -7.6069634056518017E-005
 PAO|CG| beta:   0.74184653598340033     
 PAO| norm of gradient:  0.11549522805476092     
 PAO| energy improvement:  -3.6596765567651346E-003
 PAO| step     26                 -191.126183271  0.226E-03  0.411E+00     1.538
 PAO|LS| adapt:  T F F
 PAO|LS| adapt: scan_steps:    0.0000000000000000        0.0000000000000000        0.0000000000000000     
 PAO|LS| adapt: energies:   -191.12618327053502        0.0000000000000000        0.0000000000000000     
 PAO| ======================= Iteration:        27 =============================

     Lanczos converged:  T threshold:   0.100E-02
     Est. extremal eigenvalues:    0.476E+01   0.131E+00
     Est. condition number :    0.363E+02

 Order=           3
     NS sqrt iter    1 1.00000000   0.122E+01       0.021     2682.080
     NS sqrt iter    2 1.00000000   0.623E+00       0.034     3342.351
     NS sqrt iter    3 1.00000000   0.198E+00       0.034     3345.922
     NS sqrt iter    4 1.00000000   0.246E-01       0.034     3336.950
     NS sqrt iter    5 1.00000000   0.103E-03       0.034     3350.192
     NS sqrt iter    6 1.00000000   0.228E-10       0.017     2183.932
     Symmetrizing Results
     Final NS sqrt iter    6 1.00000000   0.202E-11

     Est. extremal eigenvalues     -0.83577     2.59142  converged:  T
     TRS4 it   1 1.00000000   0.286E+02       0.007     2117.778   0.100E-11
     TRS4 it   2 1.00000000   0.235E+02       0.013     2174.134   0.100E-11
     TRS4 it   3 1.00000000   0.154E+02       0.013     2176.933   0.100E-11
     TRS4 it   4 1.00000000   0.890E+01       0.013     2201.759   0.100E-11
     TRS4 it   5 1.00000000   0.364E+01       0.013     2186.537   0.100E-11
     TRS4 it   6 1.00000000   0.904E+00       0.013     2205.451   0.100E-11
     TRS4 it   7 1.00000000   0.104E+00       0.013     2177.340   0.100E-11
     TRS4 it   8 1.00000000   0.208E-02       0.013     2184.429   0.100E-11
     TRS4 it   9 1.00000000   0.115E-05       0.013     2204.635   0.100E-11
     TRS4 it  10 1.00000000   0.759E-12       0.013     2221.563   0.100E-11
     Final TRS4 iteration   10 1.00000000   0.759E-12
     Chemical potential (mu):       0.05712
 
 PAO| energy:  -191.12901186763310      penalty:   4.2103601169330817E-004
 PAO|LS| adapt:  T T F
 PAO|LS| adapt: scan_steps:    0.0000000000000000       0.41065468106536357        0.0000000000000000     
 PAO|LS| adapt: energies:   -191.12618327053502       -191.12901186763310        0.0000000000000000     
 PAO| ======================= Iteration:        28 =============================

     Lanczos converged:  T threshold:   0.100E-02
     Est. extremal eigenvalues:    0.475E+01   0.131E+00
     Est. condition number :    0.364E+02

 Order=           3
     NS sqrt iter    1 1.00000000   0.122E+01       0.021     2675.878
     NS sqrt iter    2 1.00000000   0.622E+00       0.034     3349.060
     NS sqrt iter    3 1.00000000   0.198E+00       0.034     3347.106
     NS sqrt iter    4 1.00000000   0.245E-01       0.034     3349.540
     NS sqrt iter    5 1.00000000   0.103E-03       0.034     3364.976
     NS sqrt iter    6 1.00000000   0.234E-10       0.018     2165.523
     Symmetrizing Results
     Final NS sqrt iter    6 1.00000000   0.205E-11

     Est. extremal eigenvalues     -0.83577     2.58950  converged:  T
     TRS4 it   1 1.00000000   0.286E+02       0.007     2081.789   0.100E-11
     TRS4 it   2 1.00000000   0.235E+02       0.013     2177.183   0.100E-11
     TRS4 it   3 1.00000000   0.154E+02       0.013     2179.693   0.100E-11
     TRS4 it   4 1.00000000   0.888E+01       0.013     2188.390   0.100E-11
     TRS4 it   5 1.00000000   0.362E+01       0.013     2198.458   0.100E-11
     TRS4 it   6 1.00000000   0.896E+00       0.013     2181.280   0.100E-11
     TRS4 it   7 1.00000000   0.103E+00       0.013     2181.230   0.100E-11
     TRS4 it   8 1.00000000   0.201E-02       0.013     2190.244   0.100E-11
     TRS4 it   9 1.00000000   0.108E-05       0.013     2166.749   0.100E-11
     TRS4 it  10 1.00000000   0.695E-12       0.013     2184.011   0.100E-11
     Final TRS4 iteration   10 1.00000000   0.695E-12
     Chemical potential (mu):       0.05753
 
 PAO| energy:  -191.12645156374370      penalty:   3.9043663790250456E-004
 PAO|LS| adapt:  T T T
 PAO|LS| adapt: scan_steps:    0.0000000000000000       0.41065468106536357       0.82130936213072714     
 PAO|LS| adapt: energies:   -191.12618327053502       -191.12901186763310       -191.12645156374370     
 PAO|LS| adapt: suggested step_size:   0.42087716077852427     
 PAO|LS| adapt: predicted energy  -191.12901353729742     
 PAO| ======================= Iteration:        29 =============================

     Lanczos converged:  T threshold:   0.100E-02
     Est. extremal eigenvalues:    0.476E+01   0.131E+00
     Est. condition number :    0.363E+02

 Order=           3
     NS sqrt iter    1 1.00000000   0.122E+01       0.021     2679.955
     NS sqrt iter    2 1.00000000   0.623E+00       0.034     3346.886
     NS sqrt iter    3 1.00000000   0.198E+00       0.034     3374.777
     NS sqrt iter    4 1.00000000   0.246E-01       0.034     3363.129
     NS sqrt iter    5 1.00000000   0.103E-03       0.034     3331.514
     NS sqrt iter    6 1.00000000   0.228E-10       0.018     2174.524
     Symmetrizing Results
     Final NS sqrt iter    6 1.00000000   0.202E-11

     Est. extremal eigenvalues     -0.83577     2.59137  converged:  T
     TRS4 it   1 1.00000000   0.286E+02       0.007     2130.330   0.100E-11
     TRS4 it   2 1.00000000   0.235E+02       0.013     2176.031   0.100E-11
     TRS4 it   3 1.00000000   0.154E+02       0.013     2164.080   0.100E-11
     TRS4 it   4 1.00000000   0.890E+01       0.013     2200.496   0.100E-11
     TRS4 it   5 1.00000000   0.364E+01       0.013     2194.229   0.100E-11
     TRS4 it   6 1.00000000   0.904E+00       0.013     2170.833   0.100E-11
     TRS4 it   7 1.00000000   0.104E+00       0.013     2165.938   0.100E-11
     TRS4 it   8 1.00000000   0.207E-02       0.013     2180.088   0.100E-11
     TRS4 it   9 1.00000000   0.115E-05       0.013     2187.597   0.100E-11
[...]
     TRS4 it   3 1.00000000   0.156E+02       0.013     2153.503   0.100E-11
     TRS4 it   4 1.00000000   0.925E+01       0.013     2174.561   0.100E-11
     TRS4 it   5 1.00000000   0.413E+01       0.013     2169.448   0.100E-11
     TRS4 it   6 1.00000000   0.128E+01       0.013     2182.352   0.100E-11
     TRS4 it   7 1.00000000   0.229E+00       0.013     2176.049   0.100E-11
     TRS4 it   8 1.00000000   0.111E-01       0.013     2166.398   0.100E-11
     TRS4 it   9 1.00000000   0.359E-04       0.013     2172.647   0.100E-11
     TRS4 it  10 1.00000000   0.669E-09       0.013     2180.436   0.100E-11
     TRS4 it  11 1.00000000   0.142E-13       0.013     2174.414   0.100E-11
     Final TRS4 iteration   11 1.00000000   0.142E-13
     Chemical potential (mu):       0.02478
 
 PAO| energy:  -190.73963436635566      penalty:   1.7868648396711639E-008
 PAO| Writing restart file.
     Est. extremal eigenvalues     -0.83611     2.58940  converged:  T
     TRS4 it   1 1.00000000   0.289E+02       0.007     2109.390   0.100E-11
     TRS4 it   2 1.00000000   0.237E+02       0.013     2196.973   0.100E-11
     TRS4 it   3 1.00000000   0.156E+02       0.013     2169.777   0.100E-11
     TRS4 it   4 1.00000000   0.925E+01       0.013     2177.043   0.100E-11
     TRS4 it   5 1.00000000   0.413E+01       0.013     2214.400   0.100E-11
     TRS4 it   6 1.00000000   0.128E+01       0.013     2189.214   0.100E-11
     TRS4 it   7 1.00000000   0.229E+00       0.013     2179.716   0.100E-11
     TRS4 it   8 1.00000000   0.111E-01       0.013     2207.396   0.100E-11
     TRS4 it   9 1.00000000   0.359E-04       0.013     2174.621   0.100E-11
     TRS4 it  10 1.00000000   0.669E-09       0.013     2178.738   0.100E-11
     TRS4 it  11 1.00000000   0.142E-13       0.013     2185.796   0.100E-11
     Final TRS4 iteration   11 1.00000000   0.142E-13
     Chemical potential (mu):       0.02478

 SCF     1     -1103.043891658     -1103.043891658    1.769689

*********************************************************
 Using MIXING_FRACTION=0.450 to mix KS matrix:  iscf=  2
 KS_nw=0.450*KS + 0.550*KS_old
*********************************************************
     Est. extremal eigenvalues     -0.83611     2.58940  converged:  T
     TRS4 it   1 1.00000000   0.289E+02       0.007     2108.811   0.100E-11
     TRS4 it   2 1.00000000   0.237E+02       0.013     2161.243   0.100E-11
     TRS4 it   3 1.00000000   0.156E+02       0.013     2209.298   0.100E-11
     TRS4 it   4 1.00000000   0.925E+01       0.013     2202.033   0.100E-11
     TRS4 it   5 1.00000000   0.413E+01       0.013     2187.797   0.100E-11
     TRS4 it   6 1.00000000   0.128E+01       0.013     2188.395   0.100E-11
     TRS4 it   7 1.00000000   0.229E+00       0.013     2203.433   0.100E-11
     TRS4 it   8 1.00000000   0.111E-01       0.013     2174.794   0.100E-11
     TRS4 it   9 1.00000000   0.359E-04       0.013     2194.400   0.100E-11
     TRS4 it  10 1.00000000   0.669E-09       0.013     2177.810   0.100E-11
     TRS4 it  11 1.00000000   0.355E-14       0.013     2200.768   0.100E-11
     Final TRS4 iteration   11 1.00000000   0.355E-14
     Chemical potential (mu):       0.02478

 SCF     2     -1103.043891658        -0.000000000    1.771389


 SCF run converged in     2 steps.

 PAO| Storing density matrix for ASPC guess in slot:           1

 ENERGY| Total FORCE_EVAL ( QS ) energy [a.u.]:            -1103.043891658182929

 -------------------------------------------------------------------------------
 -                                                                             -
 -                                DBCSR STATISTICS                             -
 -                                                                             -
 -------------------------------------------------------------------------------
 COUNTER                                    TOTAL       BLAS       SMM       ACC
 flops     5 x     5 x     4             23116800       0.0%    100.0%      0.0%     
 flops    13 x     5 x     4             29818880       0.0%    100.0%      0.0%     
 flops     5 x    13 x     4             29818880       0.0%    100.0%      0.0%     
 flops    13 x    13 x     4             39370240       0.0%    100.0%      0.0%     
 flops     4 x     4 x     5           6366167040       0.0%    100.0%      0.0%     
 flops     5 x     4 x     5           7841382400       0.0%    100.0%      0.0%     
 flops     4 x     4 x    13           8276017152       0.0%    100.0%      0.0%     
 flops    13 x     4 x     5          10193797120       0.0%    100.0%      0.0%     
 flops     5 x     4 x    13          10193797120       0.0%    100.0%      0.0%     
 flops    13 x     4 x    13          13251936256       0.0%    100.0%      0.0%     
 flops     5 x     4 x     4         393789957120       0.0%    100.0%      0.0%     
 flops    13 x     4 x     4         520436832864       0.0%    100.0%      0.0%     
 flops     4 x     4 x     4       29107181957632       0.0%    100.0%      0.0%     
 flops inhomo. stacks                           0       0.0%      0.0%      0.0%
 flops total                        30.077654E+12       0.0%    100.0%      0.0%
 flops max/rank                    948.834782E+09       0.0%    100.0%      0.0%
 matmuls inhomo. stacks                         0       0.0%      0.0%      0.0%
 matmuls total                       231260254115       0.0%    100.0%      0.0%
 number of processed stacks             236260590       0.0%    100.0%      0.0%
 average stack size                                     0.0     978.8       0.0
 marketing flops                    52.276815E+12
 -------------------------------------------------------------------------------
 # multiplications                          49059
 max memory usage/rank             619.184128E+06
 # max total images/rank                        2
 # max 3D layers                                1
 # MPI messages exchanged                20408544
 MPI messages size (bytes):
  total size                         2.414450E+12
  min size                           0.000000E+00
  max size                         541.696000E+03
  average size                     118.305844E+03
 MPI breakdown and total messages size (bytes):
             size <=      128              872640                     6144
       128 < size <=     8192              327027               1309746304
      8192 < size <=    32768               50064               1185423616
     32768 < size <=   131072             8762799             646150678528
    131072 < size <=  4194304            10396014            1766220026624
   4194304 < size <= 16777216                   0                        0
  16777216 < size                               0                        0
 -------------------------------------------------------------------------------

 *** WARNING in dbcsr_mm.F:301 :: Using a non-square number of MPI ranks ***
 *** might lead to poor performance. Used ranks: 32 Suggested: 36 64     ***

 -------------------------------------------------------------------------------
 -                                                                             -
 -                      DBCSR MESSAGE PASSING PERFORMANCE                      -
 -                                                                             -
 -------------------------------------------------------------------------------
 ROUTINE             CALLS      AVE VOLUME [Bytes]
 MP_Bcast               14                     12.
 MP_Allreduce       295298                     37.
 MP_Alltoall        126682                  14598.
 MP_ISend          1641780                  55053.
 MP_IRecv          1605834                  56350.
 -------------------------------------------------------------------------------

 -------------------------------------------------------------------------------
 -                                                                             -
 -                                DBM STATISTICS                               -
 -                                                                             -
 -------------------------------------------------------------------------------
    M  x    N  x    K                                          COUNT     PERCENT
 -------------------------------------------------------------------------------

 -------------------------------------------------------------------------------
 -                                                                             -
 -                                GRID STATISTICS                              -
 -                                                                             -
 -------------------------------------------------------------------------------
 LP    KERNEL             BACKEND                              COUNT     PERCENT
 2     collocate ortho    CPU                               11474652      28.83%
 2     integrate ortho    CPU                               11474652      28.83%
 3     collocate ortho    CPU                                7375522      18.53%
 3     integrate ortho    CPU                                7375522      18.53%
 4     collocate ortho    CPU                                1048740       2.63%
 4     integrate ortho    CPU                                1048740       2.63%
 0     collocate general  CPU                                   6144       0.02%
 -------------------------------------------------------------------------------

 MEMORY| Estimated peak process memory [MiB]                                 591

 -------------------------------------------------------------------------------
 -                                                                             -
 -                         MESSAGE PASSING PERFORMANCE                         -
 -                                                                             -
 -------------------------------------------------------------------------------

 ROUTINE             CALLS      AVE VOLUME [Bytes]
 MP_Group                5
 MP_Bcast           349154                   2002.
 MP_Allreduce       867834                    514.
 MP_Sync                 5
 MP_Alltoall           369                  21272.
 MP_SendRecv          1302                  18832.
 MP_ISendRecv         1302                  18832.
 MP_Wait              3696
 MP_ISend             2166                 108220.
 MP_IRecv             2166                 108236.
 -------------------------------------------------------------------------------


 -------------------------------------------------------------------------------
 -                                                                             -
 -                           R E F E R E N C E S                               -
 -                                                                             -
 -------------------------------------------------------------------------------
 
 CP2K version 2024.3 (Development Version), the CP2K developers group (2024).
 CP2K is freely available from https://www.cp2k.org/ .
 
 T. D. Kuehne, M. Iannuzzi, M. Del Ben, V. V. Rybkin, P. Seewald, F. Stein, T. 
 Laino, R. Z. Khaliullin, O. Schuett, F. Schiffmann, D. Golze, J. Wilhelm, S. 
 Chulkov, M. H. Bani-Hashemian, V. Weber, U. Borstnik, M. Taillefumier, A. S. 
 Jakobovits, A. Lazzaro, H. Pabst, T. Mueller, R. Schade, M. Guidon, S. 
 Andermatt, N. Holmberg, G. K. Schenter, A. Hehn, A. Bussy, F. Belleflamme, G. 
 Tabacchi, A. Gloess, M. Lass, I. Bethune, C. J. Mundy, C. Plessl, M. Watkins, 
 J. VandeVondele, M. Krack, J. Hutter.
 J. Chem. Phys. 152, 194103 (2020).
 CP2K: An electronic structure and molecular dynamics software package - 
 Quickstep: Efficient and accurate electronic structure calculations.
 https://doi.org/10.1063/5.0007045

 O. Schuett, J. VandeVondele.
 J. Chem. Theory Comput. 14, 4168-4175 (2018).
 Machine Learning Adaptive Basis Sets for Efficient Large Scale Density 
 Functional Theory Simulation.
 https://doi.org/10.1021/acs.jctc.8b00378

 O. Schuett, P. Messmer, J. Hutter, J. VandeVondele.
 Electronic Structure Calculations on Graphics Processing Units, 173-190 (2016).
 GPU-Accelerated Sparse Matrix-Matrix Multiplication for Linear Scaling Density 
 Functional Theory.
 https://doi.org/10.1002/9781118670712.ch8

 A. Heinecke, G. Henry, M. Hutchinson, H. Pabst.
 Proceedings of Intl. Supercomputing Conference, 981-991 (2016).
 LIBXSMM: Accelerating Small Matrix Multiplications by Runtime Code Generation.
 https://doi.org/10.1109/SC.2016.83

 J. Hutter, M. Iannuzzi, F. Schiffmann, J. VandeVondele.
 WIREs Comput Mol Sci. 4, 15-25 (2014).
 CP2K: atomistic simulations of condensed matter systems.
 https://doi.org/10.1002/wcms.1159

 U. Borstnik, J. VandeVondele, V. Weber, J. Hutter.
 Parallel Comput. 40, 47-58 (2014).
 Sparse matrix multiplication: The distributed block-compressed sparse row 
 library.
 https://doi.org/10.1016/j.parco.2014.03.012

 A. Marek, V. Blum, R. Johanni, V. Havu, B. Lang, T. Auckenthaler, A. Heinecke, 
 H. Bungartz, H. Lederer.
 J. Phys. Condens. Matter 26, 213201 (2014).
 The ELPA library: scalable parallel eigenvalue solutions for electronic 
 structure theory and computational science.
 https://doi.org/10.1088/0953-8984/26/21/213201

 J. VandeVondele, U. Borstnik, J. Hutter.
 J. Chem. Theory Comput. 8, 3565-3573 (2012).
 Linear Scaling Self-Consistent Field Calculations with Millions of Atoms in the 
 Condensed Phase.
 https://doi.org/10.1021/ct200897x

 J. VandeVondele, J. Hutter.
 J. Chem. Phys. 127, 114105 (2007).
 Gaussian basis sets for accurate calculations on molecular systems in gas and 
 condensed phases.
 https://doi.org/10.1063/1.2770708

 J. VandeVondele, M. Krack, F. Mohamed, M. Parrinello, T. Chassaing, J. Hutter.
 Comput. Phys. Commun. 167, 103-128 (2005).
 QUICKSTEP: Fast and accurate density functional calculations using a mixed 
 Gaussian and plane waves approach.
 https://doi.org/10.1016/j.cpc.2004.12.014

 M. Krack.
 Theor. Chem. Acc. 114, 145-152 (2005).
 Pseudopotentials for H to Kr optimized for gradient-corrected 
 exchange-correlation functionals.
 https://doi.org/10.1007/s00214-005-0655-y

 M. Frigo, S. G. Johnson.
 Proc. IEEE 93, 216-231 (2005).
 The design and implementation of FFTW3.
 https://doi.org/10.1109/JPROC.2004.840301

 A. M. N. Niklasson, C. J. Tymczak, M. Challacombe.
 J. Chem. Phys. 118, 8611-8620 (2003).
 Trace resetting density matrix purification in O(N) self-consistent-field 
 theory.
 https://doi.org/10.1063/1.1559913

 C. Hartwigsen, S. Goedecker, J. Hutter.
 Phys. Rev. B 58, 3641-3662 (1998).
 Relativistic separable dual-space Gaussian pseudopotentials from H to Rn.
 https://doi.org/10.1103/PhysRevB.58.3641

 G. Lippert, J. Hutter, M. Parrinello.
 Mol. Phys. 92, 477-487 (1997).
 A hybrid Gaussian and plane wave density functional scheme.
 https://doi.org/10.1080/002689797170220

 S. Goedecker, M. Teter, J. Hutter.
 Phys. Rev. B 54, 1703-1710 (1996).
 Separable dual-space Gaussian pseudopotentials.
 https://doi.org/10.1103/PhysRevB.54.1703

 J. P. Perdew, K. Burke, M. Ernzerhof.
 Phys. Rev. Lett. 77, 3865-3868 (1996).
 Generalized gradient approximation made simple.
 https://doi.org/10.1103/PhysRevLett.77.3865


 -------------------------------------------------------------------------------
 -                                                                             -
 -                                T I M I N G                                  -
 -                                                                             -
 -------------------------------------------------------------------------------
 SUBROUTINE                       CALLS  ASD         SELF TIME        TOTAL TIME
                                MAXIMUM       AVERAGE  MAXIMUM  AVERAGE  MAXIMUM
 CP2K                                 1  1.0    0.012    0.014  434.493  434.494
 qs_energies                          1  2.0    0.000    0.000  434.347  434.348
 ls_scf                               1  3.0    0.000    0.000  433.244  433.245
 pao_update                           6  4.0    0.006    0.023  407.035  407.037
 pao_calc_energy                    800  5.0    0.003    0.018  364.867  364.869
 dbcsr_multiply_generic           49059  8.4    1.358    1.471  342.117  342.362
 multiply_cannon                  49059  9.4    2.527    2.867  276.503  281.718
 multiply_cannon_loop             49059 10.4    1.829    2.069  266.171  269.909
 ls_scf_init_matrix_S               806  7.0    0.008    0.010  193.054  193.115
 pao_rebuild_S                      800  6.0    0.002    0.003  191.597  191.657
 matrix_sqrt_Newton_Schulz          806  8.0    0.164    0.275  177.911  177.988
 multiply_cannon_multrec         392472 11.4  172.781  174.726  173.581  175.553
 pao_dm_trs4                        800  6.0    0.006    0.007  172.904  172.924
 density_matrix_trs4                813  7.0    0.204    0.351  166.876  166.935
 mp_waitall_1                   3141306 12.6   89.532   98.391   89.532   98.391
 multiply_cannon_metrocomm3      392472 11.4    0.678    0.723   71.923   76.906
 arnoldi_extremal                  1619  8.5    0.013    0.015   57.319   57.368
 arnoldi_normal_ev                 1619  9.5    0.035    0.059   57.303   57.352
 make_m2s                         98118  9.4    0.532    0.713   50.510   51.524
 build_subspace                    5630 10.4    0.343    0.367   50.391   50.429
 make_images                      98118 10.4    7.167    7.345   49.187   50.256
 dbcsr_matrix_vector_mult        172138 11.4    0.734    1.106   47.494   47.804
 pao_calc_AB                       1059  5.8    0.002    0.002   41.717   41.720
 pao_calc_AB_equi                  1059  6.8    0.039    0.097   41.716   41.718
 pao_calc_grad_lnv_wrt_AB           258  7.0    0.019    0.022   41.319   41.346
 dbcsr_matrix_vector_mult_local  172138 12.4   40.446   40.765   40.638   40.957
 make_images_data                 98118 11.4    0.847    1.012   21.698   24.071
 ls_scf_main                          6  4.0    0.000    0.001   23.043   23.044
 hybrid_alltoall_any              99726 12.4    0.890    1.812   16.988   20.648
 ls_scf_dm_to_ks                     13  5.0    0.000    0.000   20.294   20.296
 matrix_qs_to_ls                   1619  7.5    0.016    0.020   17.172   17.278
 mp_sum_l                        200500  9.5    7.702   15.815    7.702   15.815
 calculate_norms                 732688 11.4   11.336   12.285   11.336   12.285
 qs_ks_update_qs_env                 14  6.0    0.000    0.000   12.195   12.197
 rebuild_ks_matrix                   14  7.0    0.000    0.000   12.185   12.187
 qs_ks_build_kohn_sham_matrix        14  8.0    0.002    0.003   12.185   12.187
 make_images_pack                 98118 11.4   10.841   11.286   10.974   11.421
 dbcsr_multiply_generic_mpsum_f   36027  9.5    0.026    0.032    4.599   10.982
 qs_rho_update_rho_low               14  6.0    0.000    0.000    9.573    9.574
 calculate_rho_elec                  14  7.0    0.005    0.005    9.572    9.574
 sum_up_and_integrate                14  9.0    0.000    0.000    9.226    9.228
 integrate_v_rspace                  14 10.0    0.000    0.000    9.213    9.215
 -------------------------------------------------------------------------------

 The number of warnings for this run is : 1
 
 -------------------------------------------------------------------------------
  **** **** ******  **  PROGRAM ENDED AT                 2024-09-23 23:23:05.876
 ***** ** ***  *** **   PROGRAM RAN ON                                    moritz
 **    ****   ******    PROGRAM RAN BY                                       ole
 ***** **    ** ** **   PROGRAM PROCESS ID                                164108
  **** **  *******  **  PROGRAM STOPPED IN /home/ole/git/pao_ml_equivar/64H2O_MD
                                           /Frame0800
