 DBCSR| CPU Multiplication driver                                           XSMM (U)
 DBCSR| Multrec recursion limit                                              512 (U)
 DBCSR| Multiplication stack size                                           1000 (D)
 DBCSR| Maximum elements for images                                    UNLIMITED (U)
 DBCSR| Multiplicative factor virtual images                                   1 (U)
 DBCSR| Use multiplication densification                                       T (D)
 DBCSR| Multiplication size stacks                                             3 (U)
 DBCSR| Use memory pool for CPU allocation                                     F (U)
 DBCSR| Number of 3D layers                                               SINGLE (U)
 DBCSR| Use MPI memory allocation                                              F (U)
 DBCSR| Use RMA algorithm                                                      F (U)
 DBCSR| Use Communication thread                                               T (U)
 DBCSR| Communication thread load                                             87 (D)
 DBCSR| MPI: My process id                                                     0
 DBCSR| MPI: Number of processes                                              32
 DBCSR| OMP: Current number of threads                                         1
 DBCSR| OMP: Max number of threads                                             1
 DBCSR| Split modifier for TAS multiplication algorithm                  1.0E+00 (U)


  **** **** ******  **  PROGRAM STARTED AT               2024-09-24 04:07:38.366
 ***** ** ***  *** **   PROGRAM STARTED ON                                moritz
 **    ****   ******    PROGRAM STARTED BY                                   ole
 ***** **    ** ** **   PROGRAM PROCESS ID                                168325
  **** **  *******  **  PROGRAM STARTED IN /home/ole/git/pao_ml_equivar/64H2O_MD
                                           /Frame4700

 CP2K| version string:                 CP2K version 2024.3 (Development Version)
 CP2K| source code revision number:                                  git:3f890bb
 CP2K| cp2kflags: omp libint fftw3 libxc libgrpp pexsi elpa parallel scalapack c
 CP2K|            osma quip deepmd xsmm plumed2 spglib libdftd4 sirius libvori l
 CP2K|            libbqb libvdwxc hdf5
 CP2K| is freely available from                            https://www.cp2k.org/
 CP2K| Program compiled at                          Mo 23 Sep 2024 17:17:04 CEST
 CP2K| Program compiled on                                                moritz
 CP2K| Program compiled for                                                local
 CP2K| Data directory path                               /home/ole/git/cp2k/data
 CP2K| Input file name                                           64H2O_pao44.inp

 GLOBAL| Force Environment number                                              1
 GLOBAL| Basis set file name                                        BASIS_MOLOPT
 GLOBAL| Potential file name                                      GTH_POTENTIALS
 GLOBAL| MM Potential file name                                     MM_POTENTIAL
 GLOBAL| Coordinate file name                                         coords.xyz
 GLOBAL| Method name                                                        CP2K
 GLOBAL| Project name                                                64H2O_pao44
 GLOBAL| Run type                                                         ENERGY
 GLOBAL| FFT library                                                       FFTW3
 GLOBAL| Diagonalization library                                            ELPA
 GLOBAL| DGEMM library                                                      BLAS
 GLOBAL| Minimum number of eigenvectors for ELPA usage                        16
 GLOBAL| Orthonormality check for eigenvectors                          DISABLED
 GLOBAL| Matrix multiplication library                                     COSMA
 GLOBAL| All-to-all communication in single precision                          F
 GLOBAL| FFTs using library dependent lengths                                  F
 GLOBAL| Grid backend                                                       AUTO
 GLOBAL| Global print level                                                  LOW
 GLOBAL| MPI I/O enabled                                                       T
 GLOBAL| Total number of message passing processes                            32
 GLOBAL| Number of threads for this process                                    1
 GLOBAL| This output is from process                                           0
 GLOBAL| Stack size for threads created by OpenMP (OMP_STACKSIZE)        default
 GLOBAL| CPU model name           AMD Ryzen Threadripper 3970X 32-Core Processor
 GLOBAL| CPUID                                                              1002

 MEMORY| system memory details [Kb]
 MEMORY|                        rank 0           min           max       average
 MEMORY| MemTotal            131752136     131752136     131752136     131752136
 MEMORY| MemFree             114260000     114260000     114260000     114260000
 MEMORY| Buffers               2016596       2016596       2016596       2016596
 MEMORY| Cached                8687588       8687584       8687588       8687584
 MEMORY| Slab                  1642340       1642340       1642340       1642340
 MEMORY| SReclaimable          1145264       1145264       1145264       1145264
 MEMORY| MemLikelyFree       126109448     126109444     126109448     126109444


 GENERATE|  Preliminary Number of Bonds generated:                             0
 GENERATE|  Achieved consistency in connectivity generation.

 *******************************************************************************
 *******************************************************************************
 **                                                                           **
 **     #####                         ##              ##                      **
 **    ##   ##            ##          ##              ##                      **
 **   ##     ##                       ##            ######                    **
 **   ##     ##  ##   ##  ##   #####  ##  ##   ####   ##    #####    #####    **
 **   ##     ##  ##   ##  ##  ##      ## ##   ##      ##   ##   ##  ##   ##   **
 **   ##  ## ##  ##   ##  ##  ##      ####     ###    ##   ######   ######    **
 **    ##  ###   ##   ##  ##  ##      ## ##      ##   ##   ##       ##        **
 **     #######   #####   ##   #####  ##  ##  ####    ##    #####   ##        **
 **           ##                                                    ##        **
 **                                                                           **
 **                                                ... make the atoms dance   **
 **                                                                           **
 **            Copyright (C) by CP2K developers group (2000-2024)             **
 **                      J. Chem. Phys. 152, 194103 (2020)                    **
 **                                                                           **
 *******************************************************************************


 TOTAL NUMBERS AND MAXIMUM NUMBERS

  Total number of            - Atomic kinds:                                   2
                             - Atoms:                                        192
                             - Shell sets:                                   192
                             - Shells:                                       704
                             - Primitive Cartesian functions:               1344
                             - Cartesian basis functions:                   1536
                             - Spherical basis functions:                   1472

  Maximum angular momentum of- Orbital basis functions:                        2
                             - Local part of the GTH pseudopotential:          2
                             - Non-local part of the GTH pseudopotential:      0

 ------------------------------ Linear scaling SCF -----------------------------
 eps_scf:                                                              0.100E-07
 eps_filter:                                                           0.100E-11
 mixing_fraction:                                                      0.450E+00
 max_scf:                                                                     25
 fixed chemical potential (mu)                                                 F
 has unit metric:                                                              F
 Computing inv(S):                                                             T
 Computing sqrt(S):                                                            T
 Computing S preconditioner                                                    F
 S sqrt method:                                                     NEWTONSCHULZ
 S sqrt order:                                                                 3
 Extrapolation order:                                                          1
 S preconditioner type                                                      NONE
 Polarized Atomic Orbitals (PAO)                                               T
 Purification method                                   Trace resetting 4th order
 Cluster type                                                             ATOMIC
 Computing Chebyshev                                                       FALSE
 Using PAO                                                                     T
 -------------------------------------------------------------------------------

 
 PAO|                                  EPS_PAO                           0.5E-06
 PAO|                                  MIXING                            0.5E+00
 PAO|                                  MAX_PAO                              1500
 PAO|                                  MAX_CYCLES                           1000
 PAO|                                  PARAMETERIZATION              EQUIVARIANT
 PAO|                                  PRECONDITION                            F
 PAO|                                  REGULARIZATION                    0.0E+00
 PAO|                                  EPS_PGF                           0.1E-09
 PAO|                                  PENALTY_DISTANCE                  0.1E+00
 PAO|                                  PENALTY_STRENGTH                  0.5E-02
 PAO|                                  LINPOT_PRECONDITION_DELTA         0.0E+00
 PAO|                                  LINPOT_INITGUESS_DELT             0.0E+00
 PAO|                                  LINPOT_REGULARIZATION_DELTA       0.0E+00
 PAO|                                  LINPOT_REGULARIZATION_STRENGTH    0.0E+00
 PAO|                                  OPTIMIZER                              CG
 PAO|                                  CG_INIT_STEPS                           2
 PAO|                                  CG_RESET_LIMIT                    0.1E+00
 PAO|                                  CHECK_UNITARY_TOL                -0.1E+01
 PAO|                                  CHECK_GRADIENT_TOL               -0.1E+01
 PAO|                                  NUM_GRADIENT_ORDER                      2
 PAO|                                  NUM_GRADIENT_EPS                  0.1E-07
 PAO|                                  PRINT%RESTART%WRITE_CYCLES            100
 PAO|                                  RESTART_FILE 
 PAO|                                  PREOPT_DM_FILE 64H2O_ref_LS_DM_SPIN_1_RESTART.dm
 PAO|                                  MACHINE_LEARNING%METHOD       GAUSSIAN_PR
 PAO|                                  MACHINE_LEARNING%PRIOR               ZERO
 PAO|                                  MACHINE_LEARNING%DESCRIPTOR     POTENTIAL
 PAO|                                  MACHINE_LEARNING%TOLERANCE        0.1E-01
 PAO|                                  MACHINE_LEARNING%GP_NOISE_VAR     0.1E+00
 PAO|                                  MACHINE_LEARNING%GP_SCALE         0.5E-01
 

 Calculating atomic Fock matrix for atomic kind: O

 Electronic structure
    Total number of core electrons                                          2.00
    Total number of valence electrons                                       6.00
    Total number of electrons                                               8.00
    Multiplicity                                                   not specified
    S   [  2.00] 2.00
    P      4.00


 *******************************************************************************
                  Iteration          Convergence                     Energy [au]
 *******************************************************************************
                          1        0.708315                     -15.576645311500
                          2        0.608879                     -15.587933561584
                          3        0.102828E-01                 -15.656849565404
                          4        0.113889E-02                 -15.656866888140
                          5        0.434197E-03                 -15.656867072159
                          6        0.263771E-03                 -15.656867091904
                          7        0.478536E-06                 -15.656867103452

 Energy components [Hartree]           Total Energy ::          -15.656867103452
                                        Band Energy ::           -3.000198112285
                                     Kinetic Energy ::           11.759971203220
                                   Potential Energy ::          -27.416838306672
                                      Virial (-V/T) ::            2.331369510426
                                        Core Energy ::          -26.140716385623
                                          XC Energy ::           -3.154051012914
                                     Coulomb Energy ::           13.637900295084
                       Total Pseudopotential Energy ::          -37.935781716540
                       Local Pseudopotential Energy ::          -39.218907440693
                    Nonlocal Pseudopotential Energy ::            1.283125724153
                                        Confinement ::            0.350941276976

 Orbital energies  State     L     Occupation   Energy[a.u.]          Energy[eV]

                       1     0          2.000      -0.864471          -23.523463

                       1     1          4.000      -0.317814           -8.648154


 Total Electron Density at R=0:                                         0.000068

 Calculating atomic Fock matrix for atomic kind: H

 Electronic structure
    Total number of core electrons                                          0.00
    Total number of valence electrons                                       1.00
    Total number of electrons                                               1.00
    Multiplicity                                                   not specified
    S      1.00


 *******************************************************************************
                  Iteration          Convergence                     Energy [au]
 *******************************************************************************
                          1        0.437545E-02                  -0.424159432110
                          2        0.531356E-03                  -0.424178438213
                          3        0.259176E-06                  -0.424178722480

 Energy components [Hartree]           Total Energy ::           -0.424178722480
                                        Band Energy ::           -0.199015229016
                                     Kinetic Energy ::            0.464007633961
                                   Potential Energy ::           -0.888186356441
                                      Virial (-V/T) ::            1.914163240935
                                        Core Energy ::           -0.479160803564
                                          XC Energy ::           -0.244352904054
                                     Coulomb Energy ::            0.299334985138
                       Total Pseudopotential Energy ::           -0.962295316385
                       Local Pseudopotential Energy ::           -0.962295316385
                    Nonlocal Pseudopotential Energy ::            0.000000000000
                                        Confinement ::            0.191268788606

 Orbital energies  State     L     Occupation   Energy[a.u.]          Energy[eV]

                       1     0          1.000      -0.199015           -5.415480


 Total Electron Density at R=0:                                         0.242907
 PAO| Made initial guess for matrix_X with norm:   27.712812921102035     

     Lanczos converged:  T threshold:   0.100E-02
     Est. extremal eigenvalues:    0.605E+01   0.935E-01
     Est. condition number :    0.647E+02

 Order=           3
     NS sqrt iter    1 1.00000000   0.148E+01       0.021     2668.890
     NS sqrt iter    2 1.00000000   0.804E+00       0.034     3350.554
     NS sqrt iter    3 1.00000000   0.322E+00       0.034     3365.072
     NS sqrt iter    4 1.00000000   0.879E-01       0.034     3348.344
     NS sqrt iter    5 1.00000000   0.288E-02       0.034     3366.509
     NS sqrt iter    6 1.00000000   0.188E-06       0.029     2912.620
     Symmetrizing Results
     Final NS sqrt iter    6 1.00000000   0.693E-13

 PAO| Read restart DM 64H2O_ref_LS_DM_SPIN_1_RESTART.dm with checksum:    6134.2354461941868     
 PAO| Quickstep energy from restart density:  -1103.1458591397313     
 PAO| ======================= Iteration:         1 =============================

     Lanczos converged:  T threshold:   0.100E-02
     Est. extremal eigenvalues:    0.605E+01   0.935E-01
     Est. condition number :    0.647E+02

 Order=           3
     NS sqrt iter    1 1.00000000   0.148E+01       0.021     2692.308
     NS sqrt iter    2 1.00000000   0.804E+00       0.034     3356.274
     NS sqrt iter    3 1.00000000   0.322E+00       0.034     3342.066
     NS sqrt iter    4 1.00000000   0.879E-01       0.034     3379.948
     NS sqrt iter    5 1.00000000   0.288E-02       0.034     3353.014
     NS sqrt iter    6 1.00000000   0.188E-06       0.029     2910.990
     Symmetrizing Results
     Final NS sqrt iter    6 1.00000000   0.693E-13

     Est. extremal eigenvalues     -0.81487     2.59166  converged:  T
     TRS4 it   1 1.00000000   0.272E+02       0.007     2096.181   0.100E-11
     TRS4 it   2 1.00000000   0.235E+02       0.013     2175.961   0.100E-11
     TRS4 it   3 1.00000000   0.160E+02       0.013     2166.659   0.100E-11
     TRS4 it   4 1.00000000   0.100E+02       0.013     2173.757   0.100E-11
     TRS4 it   5 1.00000000   0.483E+01       0.013     2196.414   0.100E-11
     TRS4 it   6 1.00000000   0.161E+01       0.013     2185.846   0.100E-11
     TRS4 it   7 1.00000000   0.319E+00       0.013     2186.661   0.100E-11
     TRS4 it   8 1.00000000   0.229E-01       0.013     2185.331   0.100E-11
     TRS4 it   9 1.00000000   0.204E-03       0.013     2144.600   0.100E-11
     TRS4 it  10 1.00000000   0.163E-07       0.014     2104.983   0.100E-11
     TRS4 it  11 1.00000000   0.000E+00       0.013     2188.001   0.100E-11
     Final TRS4 iteration   11 1.00000000   0.000E+00
     Chemical potential (mu):       0.00917
 
 PAO| energy:  -185.86232056866135      penalty:   1.5376624675987691E-031
 PAO|CG| warming up with steepest descent
 PAO|CG| beta:    0.0000000000000000     
 PAO| norm of gradient:   3.9817637821104253     
 PAO|LS| adapt:  T F F
 PAO|LS| adapt: scan_steps:    0.0000000000000000        0.0000000000000000        0.0000000000000000     
 PAO|LS| adapt: energies:   -185.86232056866135        0.0000000000000000        0.0000000000000000     
 PAO| ======================= Iteration:         2 =============================

     Lanczos converged:  F threshold:   0.100E-02
     Est. extremal eigenvalues:    0.584E+01   0.100E+00
     Est. condition number :    0.584E+02

 Order=           3
     NS sqrt iter    1 1.00000000   0.143E+01       0.021     2674.295
     NS sqrt iter    2 1.00000000   0.775E+00       0.034     3370.809
     NS sqrt iter    3 1.00000000   0.302E+00       0.034     3366.293
     NS sqrt iter    4 1.00000000   0.736E-01       0.034     3377.066
     NS sqrt iter    5 1.00000000   0.177E-02       0.034     3358.386
     NS sqrt iter    6 1.00000000   0.513E-07       0.029     2910.917
     Symmetrizing Results
     Final NS sqrt iter    6 1.00000000   0.797E-14

     Est. extremal eigenvalues     -0.81830     2.58863  converged:  T
     TRS4 it   1 1.00000000   0.274E+02       0.007     2131.629   0.100E-11
     TRS4 it   2 1.00000000   0.235E+02       0.013     2209.437   0.100E-11
     TRS4 it   3 1.00000000   0.159E+02       0.013     2206.399   0.100E-11
     TRS4 it   4 1.00000000   0.980E+01       0.013     2190.701   0.100E-11
     TRS4 it   5 1.00000000   0.462E+01       0.013     2162.609   0.100E-11
     TRS4 it   6 1.00000000   0.148E+01       0.013     2181.044   0.100E-11
     TRS4 it   7 1.00000000   0.273E+00       0.013     2195.571   0.100E-11
     TRS4 it   8 1.00000000   0.164E-01       0.013     2179.090   0.100E-11
     TRS4 it   9 1.00000000   0.946E-04       0.013     2188.620   0.100E-11
     TRS4 it  10 1.00000000   0.403E-08       0.013     2211.938   0.100E-11
     TRS4 it  11 1.00000000   0.124E-13       0.013     2198.577   0.100E-11
     Final TRS4 iteration   11 1.00000000   0.124E-13
     Chemical potential (mu):       0.01490
 
 PAO| energy:  -187.31753994863166      penalty:   4.7161516310333507E-007
 PAO|LS| adapt:  T T F
 PAO|LS| adapt: scan_steps:    0.0000000000000000       0.10000000000000001        0.0000000000000000     
 PAO|LS| adapt: energies:   -185.86232056866135       -187.31753994863166        0.0000000000000000     
 PAO| ======================= Iteration:         3 =============================

     Lanczos converged:  F threshold:   0.100E-02
     Est. extremal eigenvalues:    0.563E+01   0.106E+00
     Est. condition number :    0.531E+02

 Order=           3
     NS sqrt iter    1 1.00000000   0.139E+01       0.021     2695.952
     NS sqrt iter    2 1.00000000   0.747E+00       0.034     3357.891
     NS sqrt iter    3 1.00000000   0.282E+00       0.034     3343.416
     NS sqrt iter    4 1.00000000   0.614E-01       0.034     3367.141
     NS sqrt iter    5 1.00000000   0.111E-02       0.034     3348.281
     NS sqrt iter    6 1.00000000   0.148E-07       0.029     2885.806
     Symmetrizing Results
     Final NS sqrt iter    6 1.00000000   0.376E-14

     Est. extremal eigenvalues     -0.82157     2.59057  converged:  T
     TRS4 it   1 1.00000000   0.277E+02       0.007     2093.970   0.100E-11
     TRS4 it   2 1.00000000   0.235E+02       0.013     2181.104   0.100E-11
     TRS4 it   3 1.00000000   0.158E+02       0.013     2200.236   0.100E-11
     TRS4 it   4 1.00000000   0.961E+01       0.013     2202.311   0.100E-11
     TRS4 it   5 1.00000000   0.442E+01       0.013     2222.735   0.100E-11
     TRS4 it   6 1.00000000   0.135E+01       0.013     2197.170   0.100E-11
     TRS4 it   7 1.00000000   0.232E+00       0.013     2180.102   0.100E-11
     TRS4 it   8 1.00000000   0.114E-01       0.013     2168.953   0.100E-11
     TRS4 it   9 1.00000000   0.409E-04       0.013     2202.881   0.100E-11
     TRS4 it  10 1.00000000   0.872E-09       0.013     2193.892   0.100E-11
     TRS4 it  11 1.00000000   0.355E-14       0.013     2189.856   0.100E-11
     Final TRS4 iteration   11 1.00000000   0.355E-14
     Chemical potential (mu):       0.02143
 
 PAO| energy:  -188.49587233168995      penalty:   7.5458426096812336E-006
 PAO|LS| adapt:  T T F
 PAO|LS| adapt: scan_steps:    0.0000000000000000       0.20000000000000001        0.0000000000000000     
 PAO|LS| adapt: energies:   -185.86232056866135       -188.49587233168995        0.0000000000000000     
 PAO| ======================= Iteration:         4 =============================

     Lanczos converged:  F threshold:   0.100E-02
     Est. extremal eigenvalues:    0.523E+01   0.116E+00
     Est. condition number :    0.450E+02

 Order=           3
     NS sqrt iter    1 1.00000000   0.131E+01       0.021     2679.265
     NS sqrt iter    2 1.00000000   0.692E+00       0.034     3370.138
     NS sqrt iter    3 1.00000000   0.245E+00       0.034     3346.058
     NS sqrt iter    4 1.00000000   0.427E-01       0.034     3336.782
     NS sqrt iter    5 1.00000000   0.443E-03       0.034     3348.335
     NS sqrt iter    6 1.00000000   0.128E-08       0.029     2817.102
     Symmetrizing Results
     Final NS sqrt iter    6 1.00000000   0.194E-13

     Est. extremal eigenvalues     -0.82696     2.59792  converged:  T
     TRS4 it   1 1.00000000   0.281E+02       0.007     2132.032   0.100E-11
     TRS4 it   2 1.00000000   0.235E+02       0.013     2206.308   0.100E-11
     TRS4 it   3 1.00000000   0.156E+02       0.013     2187.602   0.100E-11
     TRS4 it   4 1.00000000   0.928E+01       0.013     2159.578   0.100E-11
     TRS4 it   5 1.00000000   0.406E+01       0.013     2178.955   0.100E-11
     TRS4 it   6 1.00000000   0.114E+01       0.013     2177.681   0.100E-11
     TRS4 it   7 1.00000000   0.165E+00       0.013     2185.930   0.100E-11
     TRS4 it   8 1.00000000   0.532E-02       0.013     2174.187   0.100E-11
     TRS4 it   9 1.00000000   0.712E-05       0.013     2192.686   0.100E-11
     TRS4 it  10 1.00000000   0.302E-10       0.013     2187.651   0.100E-11
     Final TRS4 iteration   10 1.00000000   0.302E-10
     Chemical potential (mu):       0.04016
 
 PAO| energy:  -189.97947068537991      penalty:   1.2073348175512344E-004
 PAO|LS| Need extra step
 PAO|LS| adapt:  T T F
 PAO|LS| adapt: scan_steps:    0.0000000000000000       0.40000000000000002        0.0000000000000000     
 PAO|LS| adapt: energies:   -185.86232056866135       -189.97947068537991        0.0000000000000000     
 PAO| ======================= Iteration:         5 =============================

     Lanczos converged:  T threshold:   0.100E-02
     Est. extremal eigenvalues:    0.458E+01   0.131E+00
     Est. condition number :    0.349E+02

 Order=           3
     NS sqrt iter    1 1.00000000   0.119E+01       0.021     2654.086
     NS sqrt iter    2 1.00000000   0.602E+00       0.034     3346.451
     NS sqrt iter    3 1.00000000   0.188E+00       0.034     3338.067
     NS sqrt iter    4 1.00000000   0.219E-01       0.034     3348.238
     NS sqrt iter    5 1.00000000   0.799E-04       0.034     3358.101
     NS sqrt iter    6 1.00000000   0.111E-10       0.016     2146.023
     Symmetrizing Results
     Final NS sqrt iter    6 1.00000000   0.173E-11

     Est. extremal eigenvalues     -0.83010     2.60043  converged:  T
     TRS4 it   1 1.00000000   0.287E+02       0.007     2113.378   0.100E-11
     TRS4 it   2 1.00000000   0.235E+02       0.013     2195.256   0.100E-11
     TRS4 it   3 1.00000000   0.154E+02       0.013     2186.938   0.100E-11
     TRS4 it   4 1.00000000   0.879E+01       0.013     2210.592   0.100E-11
     TRS4 it   5 1.00000000   0.353E+01       0.013     2204.729   0.100E-11
     TRS4 it   6 1.00000000   0.844E+00       0.013     2183.376   0.100E-11
     TRS4 it   7 1.00000000   0.895E-01       0.013     2176.214   0.100E-11
     TRS4 it   8 1.00000000   0.144E-02       0.013     2200.697   0.100E-11
     TRS4 it   9 1.00000000   0.481E-06       0.013     2184.065   0.100E-11
     TRS4 it  10 1.00000000   0.179E-12       0.013     2184.487   0.100E-11
     Final TRS4 iteration   10 1.00000000   0.179E-12
     Chemical potential (mu):       0.06283
 
 PAO| energy:  -189.58121322770401      penalty:   1.9317357080837576E-003
 PAO|LS| Need extra step
 PAO|LS| adapt:  T T T
 PAO|LS| adapt: scan_steps:    0.0000000000000000       0.40000000000000002       0.80000000000000004     
 PAO|LS| adapt: energies:   -185.86232056866135       -189.97947068537991       -189.58121322770401     
 PAO|LS| adapt: suggested step_size:   0.56472013202668170     
 PAO|LS| adapt: predicted energy  -190.36233099149902     
 PAO| ======================= Iteration:         6 =============================

     Lanczos converged:  T threshold:   0.100E-02
     Est. extremal eigenvalues:    0.493E+01   0.123E+00
     Est. condition number :    0.402E+02

 Order=           3
     NS sqrt iter    1 1.00000000   0.125E+01       0.021     2661.690
     NS sqrt iter    2 1.00000000   0.651E+00       0.034     3343.957
     NS sqrt iter    3 1.00000000   0.218E+00       0.034     3357.329
     NS sqrt iter    4 1.00000000   0.320E-01       0.034     3361.482
     NS sqrt iter    5 1.00000000   0.214E-03       0.034     3353.263
     NS sqrt iter    6 1.00000000   0.174E-09       0.027     2566.397
     Symmetrizing Results
     Final NS sqrt iter    6 1.00000000   0.102E-11

     Est. extremal eigenvalues     -0.82967     2.60110  converged:  T
     TRS4 it   1 1.00000000   0.284E+02       0.007     2130.095   0.100E-11
     TRS4 it   2 1.00000000   0.235E+02       0.013     2215.616   0.100E-11
     TRS4 it   3 1.00000000   0.155E+02       0.013     2174.614   0.100E-11
     TRS4 it   4 1.00000000   0.906E+01       0.013     2187.881   0.100E-11
     TRS4 it   5 1.00000000   0.381E+01       0.013     2195.378   0.100E-11
     TRS4 it   6 1.00000000   0.996E+00       0.013     2160.221   0.100E-11
     TRS4 it   7 1.00000000   0.126E+00       0.013     2216.235   0.100E-11
     TRS4 it   8 1.00000000   0.293E-02       0.013     2169.545   0.100E-11
     TRS4 it   9 1.00000000   0.198E-05       0.013     2172.292   0.100E-11
     TRS4 it  10 1.00000000   0.225E-11       0.013     2183.319   0.100E-11
     Final TRS4 iteration   10 1.00000000   0.225E-11
     Chemical potential (mu):       0.05072
 
 PAO| energy:  -190.33598372611928      penalty:   4.7964601601252493E-004
 PAO|CG| warming up with steepest descent
 PAO|CG| beta:    0.0000000000000000     
 PAO| norm of gradient:   2.0937214016374184     
 PAO| energy improvement:  -4.4736631574579349     
 PAO| step      6                 -190.335983726  0.409E-02  0.565E+00     2.482
 PAO|LS| adapt:  T F F
 PAO|LS| adapt: scan_steps:    0.0000000000000000        0.0000000000000000        0.0000000000000000     
 PAO|LS| adapt: energies:   -190.33598372611928        0.0000000000000000        0.0000000000000000     
 PAO| ======================= Iteration:         7 =============================

     Lanczos converged:  T threshold:   0.100E-02
     Est. extremal eigenvalues:    0.477E+01   0.131E+00
     Est. condition number :    0.366E+02

 Order=           3
     NS sqrt iter    1 1.00000000   0.122E+01       0.021     2692.546
     NS sqrt iter    2 1.00000000   0.625E+00       0.034     3344.889
     NS sqrt iter    3 1.00000000   0.201E+00       0.034     3376.901
     NS sqrt iter    4 1.00000000   0.256E-01       0.034     3356.338
     NS sqrt iter    5 1.00000000   0.116E-03       0.034     3342.941
     NS sqrt iter    6 1.00000000   0.302E-10       0.020     2218.740
     Symmetrizing Results
     Final NS sqrt iter    6 1.00000000   0.224E-11

     Est. extremal eigenvalues     -0.82978     2.59112  converged:  T
     TRS4 it   1 1.00000000   0.285E+02       0.007     2124.431   0.100E-11
     TRS4 it   2 1.00000000   0.236E+02       0.013     2217.309   0.100E-11
     TRS4 it   3 1.00000000   0.156E+02       0.013     2182.086   0.100E-11
     TRS4 it   4 1.00000000   0.918E+01       0.013     2204.310   0.100E-11
     TRS4 it   5 1.00000000   0.390E+01       0.013     2204.112   0.100E-11
     TRS4 it   6 1.00000000   0.102E+01       0.013     2189.499   0.100E-11
     TRS4 it   7 1.00000000   0.126E+00       0.013     2181.427   0.100E-11
     TRS4 it   8 1.00000000   0.291E-02       0.013     2167.371   0.100E-11
     TRS4 it   9 1.00000000   0.199E-05       0.013     2201.357   0.100E-11
     TRS4 it  10 1.00000000   0.230E-11       0.013     2205.954   0.100E-11
     Final TRS4 iteration   10 1.00000000   0.230E-11
     Chemical potential (mu):       0.05303
 
 PAO| energy:  -189.43026894909863      penalty:   6.7511277720030819E-004
 PAO|LS| adapt:  T F T
 PAO|LS| adapt: scan_steps:    0.0000000000000000        0.0000000000000000       0.56472013202668170     
 PAO|LS| adapt: energies:   -190.33598372611928        0.0000000000000000       -189.43026894909863     
 PAO| ======================= Iteration:         8 =============================

     Lanczos converged:  T threshold:   0.100E-02
     Est. extremal eigenvalues:    0.485E+01   0.127E+00
     Est. condition number :    0.383E+02

 Order=           3
     NS sqrt iter    1 1.00000000   0.124E+01       0.021     2693.210
     NS sqrt iter    2 1.00000000   0.638E+00       0.034     3348.266
     NS sqrt iter    3 1.00000000   0.210E+00       0.034     3356.971
     NS sqrt iter    4 1.00000000   0.287E-01       0.034     3322.883
     NS sqrt iter    5 1.00000000   0.158E-03       0.034     3349.596
     NS sqrt iter    6 1.00000000   0.736E-10       0.024     2406.266
     Symmetrizing Results
     Final NS sqrt iter    6 1.00000000   0.196E-11

     Est. extremal eigenvalues     -0.83106     2.59656  converged:  T
     TRS4 it   1 1.00000000   0.285E+02       0.007     2129.065   0.100E-11
     TRS4 it   2 1.00000000   0.236E+02       0.013     2187.690   0.100E-11
     TRS4 it   3 1.00000000   0.155E+02       0.013     2178.885   0.100E-11
     TRS4 it   4 1.00000000   0.909E+01       0.013     2159.995   0.100E-11
     TRS4 it   5 1.00000000   0.383E+01       0.013     2178.006   0.100E-11
     TRS4 it   6 1.00000000   0.998E+00       0.013     2197.665   0.100E-11
     TRS4 it   7 1.00000000   0.125E+00       0.013     2170.629   0.100E-11
     TRS4 it   8 1.00000000   0.290E-02       0.013     2183.194   0.100E-11
     TRS4 it   9 1.00000000   0.197E-05       0.013     2193.576   0.100E-11
     TRS4 it  10 1.00000000   0.218E-11       0.013     2188.051   0.100E-11
     Final TRS4 iteration   10 1.00000000   0.218E-11
     Chemical potential (mu):       0.05082
 
 PAO| energy:  -190.71498695064221      penalty:   5.0895594162336886E-004
 PAO|LS| adapt:  T T T
 PAO|LS| adapt: scan_steps:    0.0000000000000000       0.28236006601334085       0.56472013202668170     
 PAO|LS| adapt: energies:   -190.33598372611928       -190.71498695064221       -189.43026894909863     
 PAO|LS| adapt: suggested step_size:   0.20550293387425003     
 PAO|LS| adapt: predicted energy  -190.77661981650800     
 PAO| ======================= Iteration:         9 =============================

     Lanczos converged:  T threshold:   0.100E-02
     Est. extremal eigenvalues:    0.487E+01   0.125E+00
     Est. condition number :    0.388E+02

 Order=           3
     NS sqrt iter    1 1.00000000   0.124E+01       0.021     2664.551
     NS sqrt iter    2 1.00000000   0.641E+00       0.034     3364.428
     NS sqrt iter    3 1.00000000   0.212E+00       0.034     3350.436
     NS sqrt iter    4 1.00000000   0.295E-01       0.034     3334.308
     NS sqrt iter    5 1.00000000   0.172E-03       0.034     3331.598
     NS sqrt iter    6 1.00000000   0.933E-10       0.025     2472.355
     Symmetrizing Results
     Final NS sqrt iter    6 1.00000000   0.177E-11

     Est. extremal eigenvalues     -0.83096     2.59791  converged:  T
     TRS4 it   1 1.00000000   0.284E+02       0.007     2132.879   0.100E-11
     TRS4 it   2 1.00000000   0.236E+02       0.013     2179.270   0.100E-11
     TRS4 it   3 1.00000000   0.155E+02       0.013     2195.119   0.100E-11
     TRS4 it   4 1.00000000   0.908E+01       0.013     2186.893   0.100E-11
     TRS4 it   5 1.00000000   0.382E+01       0.013     2171.502   0.100E-11
     TRS4 it   6 1.00000000   0.996E+00       0.013     2194.451   0.100E-11
     TRS4 it   7 1.00000000   0.125E+00       0.013     2210.598   0.100E-11
     TRS4 it   8 1.00000000   0.291E-02       0.013     2174.008   0.100E-11
     TRS4 it   9 1.00000000   0.197E-05       0.013     2195.637   0.100E-11
     TRS4 it  10 1.00000000   0.222E-11       0.013     2198.937   0.100E-11
     Final TRS4 iteration   10 1.00000000   0.222E-11
     Chemical potential (mu):       0.05059
 
 PAO| energy:  -190.78085389900679      penalty:   4.9183824645663643E-004
 PAO|CG| trace_G_new   0.73839413349982852     
 PAO|CG| trace_G_prev    4.3836693076745554     
 PAO|CG| trace_G_mix   -4.2329102109788373E-002
 PAO|CG| trace_D    4.3836693076745554     
 PAO|CG| trace_D_Gnew   4.2329102109788373E-002
 PAO|CG| beta:   0.17809811388892702     
 PAO| norm of gradient:  0.85929862882459462     
 PAO| energy improvement: -0.44487017288750508     
 PAO| step      9                 -190.780853899  0.168E-02  0.206E+00     1.505
 PAO|LS| adapt:  T F F
 PAO|LS| adapt: scan_steps:    0.0000000000000000        0.0000000000000000        0.0000000000000000     
 PAO|LS| adapt: energies:   -190.78085389900679        0.0000000000000000        0.0000000000000000     
 PAO| ======================= Iteration:        10 =============================

     Lanczos converged:  T threshold:   0.100E-02
     Est. extremal eigenvalues:    0.482E+01   0.129E+00
     Est. condition number :    0.374E+02

 Order=           3
     NS sqrt iter    1 1.00000000   0.123E+01       0.021     2689.703
     NS sqrt iter    2 1.00000000   0.633E+00       0.034     3363.614
     NS sqrt iter    3 1.00000000   0.206E+00       0.034     3332.102
     NS sqrt iter    4 1.00000000   0.273E-01       0.034     3366.289
     NS sqrt iter    5 1.00000000   0.137E-03       0.034     3328.264
     NS sqrt iter    6 1.00000000   0.468E-10       0.022     2300.922
     Symmetrizing Results
     Final NS sqrt iter    6 1.00000000   0.221E-11

     Est. extremal eigenvalues     -0.83152     2.58482  converged:  T
     TRS4 it   1 1.00000000   0.284E+02       0.007     2137.415   0.100E-11
     TRS4 it   2 1.00000000   0.235E+02       0.013     2205.689   0.100E-11
     TRS4 it   3 1.00000000   0.155E+02       0.013     2201.003   0.100E-11
     TRS4 it   4 1.00000000   0.906E+01       0.013     2183.867   0.100E-11
     TRS4 it   5 1.00000000   0.380E+01       0.013     2181.646   0.100E-11
     TRS4 it   6 1.00000000   0.983E+00       0.013     2185.319   0.100E-11
     TRS4 it   7 1.00000000   0.121E+00       0.013     2208.920   0.100E-11
     TRS4 it   8 1.00000000   0.274E-02       0.013     2185.432   0.100E-11
     TRS4 it   9 1.00000000   0.176E-05       0.013     2171.971   0.100E-11
     TRS4 it  10 1.00000000   0.176E-11       0.013     2201.288   0.100E-11
     Final TRS4 iteration   10 1.00000000   0.176E-11
     Chemical potential (mu):       0.05149
 
 PAO| energy:  -190.88212465968721      penalty:   4.9447292754022315E-004
 PAO|LS| adapt:  T T F
 PAO|LS| adapt: scan_steps:    0.0000000000000000       0.20550293387425003        0.0000000000000000     
 PAO|LS| adapt: energies:   -190.78085389900679       -190.88212465968721        0.0000000000000000     
 PAO| ======================= Iteration:        11 =============================

     Lanczos converged:  T threshold:   0.100E-02
     Est. extremal eigenvalues:    0.477E+01   0.132E+00
     Est. condition number :    0.360E+02

 Order=           3
     NS sqrt iter    1 1.00000000   0.122E+01       0.021     2680.471
     NS sqrt iter    2 1.00000000   0.624E+00       0.034     3350.753
     NS sqrt iter    3 1.00000000   0.201E+00       0.034     3356.829
     NS sqrt iter    4 1.00000000   0.253E-01       0.034     3361.650
     NS sqrt iter    5 1.00000000   0.108E-03       0.034     3344.748
     NS sqrt iter    6 1.00000000   0.231E-10       0.018     2168.232
     Symmetrizing Results
     Final NS sqrt iter    6 1.00000000   0.221E-11

     Est. extremal eigenvalues     -0.83161     2.57111  converged:  T
     TRS4 it   1 1.00000000   0.284E+02       0.007     2128.524   0.100E-11
     TRS4 it   2 1.00000000   0.234E+02       0.013     2180.117   0.100E-11
     TRS4 it   3 1.00000000   0.155E+02       0.013     2192.952   0.100E-11
     TRS4 it   4 1.00000000   0.903E+01       0.013     2147.110   0.100E-11
     TRS4 it   5 1.00000000   0.377E+01       0.013     2181.484   0.100E-11
     TRS4 it   6 1.00000000   0.967E+00       0.013     2199.518   0.100E-11
     TRS4 it   7 1.00000000   0.117E+00       0.013     2195.052   0.100E-11
     TRS4 it   8 1.00000000   0.256E-02       0.013     2186.412   0.100E-11
     TRS4 it   9 1.00000000   0.154E-05       0.013     2178.191   0.100E-11
     TRS4 it  10 1.00000000   0.135E-11       0.013     2197.641   0.100E-11
     Final TRS4 iteration   10 1.00000000   0.135E-11
     Chemical potential (mu):       0.05244
 
 PAO| energy:  -190.88825234774060      penalty:   5.0710099723781524E-004
 PAO|LS| adapt:  T T F
 PAO|LS| adapt: scan_steps:    0.0000000000000000       0.41100586774850006        0.0000000000000000     
 PAO|LS| adapt: energies:   -190.78085389900679       -190.88825234774060        0.0000000000000000     
 PAO| ======================= Iteration:        12 =============================

     Lanczos converged:  T threshold:   0.100E-02
     Est. extremal eigenvalues:    0.467E+01   0.139E+00
     Est. condition number :    0.335E+02

 Order=           3
     NS sqrt iter    1 1.00000000   0.120E+01       0.021     2684.255
     NS sqrt iter    2 1.00000000   0.608E+00       0.034     3350.859
     NS sqrt iter    3 1.00000000   0.190E+00       0.034     3348.631
     NS sqrt iter    4 1.00000000   0.216E-01       0.034     3344.837
     NS sqrt iter    5 1.00000000   0.675E-04       0.034     3344.859
     NS sqrt iter    6 1.00000000   0.517E-11       0.014     2147.162
     Symmetrizing Results
     Final NS sqrt iter    6 1.00000000   0.123E-11

     Est. extremal eigenvalues     -0.83053     2.54262  converged:  T
     TRS4 it   1 1.00000000   0.284E+02       0.007     2128.428   0.100E-11
     TRS4 it   2 1.00000000   0.232E+02       0.013     2206.322   0.100E-11
     TRS4 it   3 1.00000000   0.154E+02       0.013     2225.801   0.100E-11
     TRS4 it   4 1.00000000   0.896E+01       0.013     2197.920   0.100E-11
     TRS4 it   5 1.00000000   0.371E+01       0.013     2190.109   0.100E-11
     TRS4 it   6 1.00000000   0.931E+00       0.013     2181.818   0.100E-11
     TRS4 it   7 1.00000000   0.108E+00       0.013     2170.930   0.100E-11
     TRS4 it   8 1.00000000   0.218E-02       0.013     2185.140   0.100E-11
     TRS4 it   9 1.00000000   0.114E-05       0.013     2187.232   0.100E-11
     TRS4 it  10 1.00000000   0.764E-12       0.013     2197.524   0.100E-11
     Final TRS4 iteration   10 1.00000000   0.764E-12
     Chemical potential (mu):       0.05449
 
 PAO| energy:  -190.63207400639487      penalty:   5.6973672934140156E-004
 PAO|LS| Need extra step
 PAO|LS| adapt:  T T T
 PAO|LS| adapt: scan_steps:    0.0000000000000000       0.41100586774850006       0.82201173549700013     
 PAO|LS| adapt: energies:   -190.78085389900679       -190.88825234774060       -190.63207400639487     
 PAO|LS| adapt: suggested step_size:   0.32691165363061220     
 PAO|LS| adapt: predicted energy  -190.89586265767016     
 PAO| ======================= Iteration:        13 =============================

     Lanczos converged:  T threshold:   0.100E-02
     Est. extremal eigenvalues:    0.479E+01   0.131E+00
     Est. condition number :    0.366E+02

 Order=           3
     NS sqrt iter    1 1.00000000   0.123E+01       0.021     2663.325
     NS sqrt iter    2 1.00000000   0.628E+00       0.034     3355.895
     NS sqrt iter    3 1.00000000   0.203E+00       0.034     3354.990
     NS sqrt iter    4 1.00000000   0.261E-01       0.034     3354.090
     NS sqrt iter    5 1.00000000   0.119E-03       0.034     3347.696
     NS sqrt iter    6 1.00000000   0.309E-10       0.019     2240.072
     Symmetrizing Results
     Final NS sqrt iter    6 1.00000000   0.224E-11

     Est. extremal eigenvalues     -0.83163     2.57678  converged:  T
     TRS4 it   1 1.00000000   0.284E+02       0.007     2120.581   0.100E-11
     TRS4 it   2 1.00000000   0.234E+02       0.013     2186.438   0.100E-11
     TRS4 it   3 1.00000000   0.155E+02       0.013     2193.402   0.100E-11
     TRS4 it   4 1.00000000   0.904E+01       0.013     2181.234   0.100E-11
     TRS4 it   5 1.00000000   0.379E+01       0.013     2196.446   0.100E-11
     TRS4 it   6 1.00000000   0.974E+00       0.013     2198.032   0.100E-11
     TRS4 it   7 1.00000000   0.119E+00       0.013     2196.120   0.100E-11
     TRS4 it   8 1.00000000   0.263E-02       0.013     2175.189   0.100E-11
     TRS4 it   9 1.00000000   0.163E-05       0.013     2186.051   0.100E-11
     TRS4 it  10 1.00000000   0.149E-11       0.013     2186.322   0.100E-11
     Final TRS4 iteration   10 1.00000000   0.149E-11
     Chemical potential (mu):       0.05205
 
 PAO| energy:  -190.89697966261576      penalty:   5.0064016338715678E-004
 PAO|CG| trace_G_new   0.28451689259364588     
 PAO|CG| trace_G_prev   0.73839413349982852     
 PAO|CG| trace_G_mix   -1.2449037967061807E-002
 PAO|CG| trace_D   0.86236200273443131     
 PAO|CG| trace_D_Gnew   1.2072861799702551E-002
 PAO|CG| beta:   0.40217807413116002     
 PAO| norm of gradient:  0.53340124914893650     
 PAO| energy improvement: -0.11612576360897719     
 PAO| step     13                 -190.896979663  0.104E-02  0.327E+00     1.891
 PAO|LS| adapt:  T F F
 PAO|LS| adapt: scan_steps:    0.0000000000000000        0.0000000000000000        0.0000000000000000     
 PAO|LS| adapt: energies:   -190.89697966261576        0.0000000000000000        0.0000000000000000     
 PAO| ======================= Iteration:        14 =============================

     Lanczos converged:  T threshold:   0.100E-02
     Est. extremal eigenvalues:    0.472E+01   0.134E+00
     Est. condition number :    0.353E+02

 Order=           3
     NS sqrt iter    1 1.00000000   0.121E+01       0.021     2683.960
     NS sqrt iter    2 1.00000000   0.617E+00       0.034     3360.730
     NS sqrt iter    3 1.00000000   0.197E+00       0.034     3356.028
     NS sqrt iter    4 1.00000000   0.240E-01       0.034     3346.954
     NS sqrt iter    5 1.00000000   0.946E-04       0.034     3355.412
     NS sqrt iter    6 1.00000000   0.157E-10       0.016     2157.684
     Symmetrizing Results
     Final NS sqrt iter    6 1.00000000   0.191E-11

     Est. extremal eigenvalues     -0.83206     2.57197  converged:  T
     TRS4 it   1 1.00000000   0.285E+02       0.007     2121.058   0.100E-11
     TRS4 it   2 1.00000000   0.234E+02       0.013     2201.402   0.100E-11
     TRS4 it   3 1.00000000   0.155E+02       0.013     2190.352   0.100E-11
     TRS4 it   4 1.00000000   0.899E+01       0.013     2182.179   0.100E-11
     TRS4 it   5 1.00000000   0.373E+01       0.013     2189.669   0.100E-11
     TRS4 it   6 1.00000000   0.944E+00       0.013     2194.373   0.100E-11
     TRS4 it   7 1.00000000   0.112E+00       0.013     2187.670   0.100E-11
     TRS4 it   8 1.00000000   0.232E-02       0.013     2184.142   0.100E-11
     TRS4 it   9 1.00000000   0.127E-05       0.013     2173.271   0.100E-11
     TRS4 it  10 1.00000000   0.943E-12       0.013     2208.825   0.100E-11
     Final TRS4 iteration   10 1.00000000   0.943E-12
     Chemical potential (mu):       0.05396
 
 PAO| energy:  -190.95020691132362      penalty:   5.0312857081676737E-004
 PAO|LS| adapt:  T T F
 PAO|LS| adapt: scan_steps:    0.0000000000000000       0.32691165363061220        0.0000000000000000     
 PAO|LS| adapt: energies:   -190.89697966261576       -190.95020691132362        0.0000000000000000     
 PAO| ======================= Iteration:        15 =============================

     Lanczos converged:  T threshold:   0.100E-02
     Est. extremal eigenvalues:    0.465E+01   0.136E+00
     Est. condition number :    0.342E+02

 Order=           3
     NS sqrt iter    1 1.00000000   0.120E+01       0.021     2654.495
     NS sqrt iter    2 1.00000000   0.606E+00       0.034     3360.719
     NS sqrt iter    3 1.00000000   0.190E+00       0.034     3347.708
     NS sqrt iter    4 1.00000000   0.221E-01       0.034     3359.321
     NS sqrt iter    5 1.00000000   0.754E-04       0.034     3326.974
     NS sqrt iter    6 1.00000000   0.791E-11       0.015     2129.669
     Symmetrizing Results
     Final NS sqrt iter    6 1.00000000   0.148E-11

     Est. extremal eigenvalues     -0.83209     2.56673  converged:  T
     TRS4 it   1 1.00000000   0.285E+02       0.007     2094.857   0.100E-11
     TRS4 it   2 1.00000000   0.234E+02       0.013     2192.154   0.100E-11
     TRS4 it   3 1.00000000   0.154E+02       0.013     2180.350   0.100E-11
     TRS4 it   4 1.00000000   0.892E+01       0.013     2188.021   0.100E-11
     TRS4 it   5 1.00000000   0.367E+01       0.013     2163.412   0.100E-11
     TRS4 it   6 1.00000000   0.914E+00       0.013     2172.773   0.100E-11
     TRS4 it   7 1.00000000   0.105E+00       0.013     2152.275   0.100E-11
     TRS4 it   8 1.00000000   0.204E-02       0.013     2204.380   0.100E-11
     TRS4 it   9 1.00000000   0.992E-06       0.013     2167.813   0.100E-11
     TRS4 it  10 1.00000000   0.563E-12       0.013     2180.631   0.100E-11
     Final TRS4 iteration   10 1.00000000   0.563E-12
     Chemical potential (mu):       0.05575
 
 PAO| energy:  -190.92817508713716      penalty:   5.2088911429587145E-004
 PAO|LS| adapt:  T T T
 PAO|LS| adapt: scan_steps:    0.0000000000000000       0.32691165363061220       0.65382330726122440     
 PAO|LS| adapt: energies:   -190.89697966261576       -190.95020691132362       -190.92817508713716     
 PAO|LS| adapt: suggested step_size:   0.39466526408447222     
 PAO|LS| adapt: predicted energy  -190.95182325217405     
 PAO| ======================= Iteration:        16 =============================

     Lanczos converged:  T threshold:   0.100E-02
     Est. extremal eigenvalues:    0.470E+01   0.134E+00
     Est. condition number :    0.351E+02

 Order=           3
     NS sqrt iter    1 1.00000000   0.121E+01       0.021     2696.107
     NS sqrt iter    2 1.00000000   0.615E+00       0.034     3333.129
     NS sqrt iter    3 1.00000000   0.195E+00       0.034     3329.230
     NS sqrt iter    4 1.00000000   0.236E-01       0.034     3335.459
     NS sqrt iter    5 1.00000000   0.902E-04       0.034     3361.916
     NS sqrt iter    6 1.00000000   0.136E-10       0.016     2129.012
     Symmetrizing Results
     Final NS sqrt iter    6 1.00000000   0.182E-11

     Est. extremal eigenvalues     -0.83210     2.57091  converged:  T
     TRS4 it   1 1.00000000   0.285E+02       0.007     2133.070   0.100E-11
     TRS4 it   2 1.00000000   0.234E+02       0.013     2204.500   0.100E-11
     TRS4 it   3 1.00000000   0.155E+02       0.013     2208.177   0.100E-11
     TRS4 it   4 1.00000000   0.897E+01       0.013     2197.265   0.100E-11
     TRS4 it   5 1.00000000   0.372E+01       0.013     2198.590   0.100E-11
     TRS4 it   6 1.00000000   0.938E+00       0.013     2190.847   0.100E-11
     TRS4 it   7 1.00000000   0.110E+00       0.013     2185.147   0.100E-11
     TRS4 it   8 1.00000000   0.226E-02       0.013     2195.680   0.100E-11
     TRS4 it   9 1.00000000   0.120E-05       0.013     2208.736   0.100E-11
     TRS4 it  10 1.00000000   0.867E-12       0.013     2198.402   0.100E-11
     Final TRS4 iteration   10 1.00000000   0.867E-12
     Chemical potential (mu):       0.05434
 
 PAO| energy:  -190.95176590731614      penalty:   5.0550187906385252E-004
 PAO|CG| trace_G_new   0.10826778431264511     
 PAO|CG| trace_G_prev   0.28451689259364588     
 PAO|CG| trace_G_mix    4.5725173370700697E-003
 PAO|CG| trace_D   0.41429065416263305     
 PAO|CG| trace_D_Gnew   7.7297628205695438E-004
 PAO|CG| beta:   0.36446084459271533     
 PAO| norm of gradient:  0.32904070312446926     
 PAO| energy improvement:  -5.4786244700380848E-002
 PAO| step     16                 -190.951765907  0.643E-03  0.395E+00     1.451
 PAO|LS| adapt:  T F F
 PAO|LS| adapt: scan_steps:    0.0000000000000000        0.0000000000000000        0.0000000000000000     
 PAO|LS| adapt: energies:   -190.95176590731614        0.0000000000000000        0.0000000000000000     
 PAO| ======================= Iteration:        17 =============================

     Lanczos converged:  T threshold:   0.100E-02
     Est. extremal eigenvalues:    0.467E+01   0.135E+00
     Est. condition number :    0.347E+02

 Order=           3
     NS sqrt iter    1 1.00000000   0.120E+01       0.021     2665.444
     NS sqrt iter    2 1.00000000   0.610E+00       0.034     3336.158
     NS sqrt iter    3 1.00000000   0.193E+00       0.034     3369.705
     NS sqrt iter    4 1.00000000   0.228E-01       0.034     3338.578
     NS sqrt iter    5 1.00000000   0.822E-04       0.034     3354.034
     NS sqrt iter    6 1.00000000   0.104E-10       0.015     2132.685
     Symmetrizing Results
     Final NS sqrt iter    6 1.00000000   0.166E-11

     Est. extremal eigenvalues     -0.83216     2.57027  converged:  T
     TRS4 it   1 1.00000000   0.285E+02       0.007     2125.272   0.100E-11
     TRS4 it   2 1.00000000   0.234E+02       0.013     2190.942   0.100E-11
     TRS4 it   3 1.00000000   0.154E+02       0.013     2180.202   0.100E-11
     TRS4 it   4 1.00000000   0.893E+01       0.013     2238.774   0.100E-11
     TRS4 it   5 1.00000000   0.367E+01       0.013     2180.850   0.100E-11
     TRS4 it   6 1.00000000   0.917E+00       0.013     2204.252   0.100E-11
     TRS4 it   7 1.00000000   0.106E+00       0.013     2193.438   0.100E-11
     TRS4 it   8 1.00000000   0.208E-02       0.013     2184.841   0.100E-11
     TRS4 it   9 1.00000000   0.102E-05       0.013     2188.839   0.100E-11
     TRS4 it  10 1.00000000   0.638E-12       0.013     2199.598   0.100E-11
     Final TRS4 iteration   10 1.00000000   0.638E-12
     Chemical potential (mu):       0.05551
 
 PAO| energy:  -190.95603909672377      penalty:   4.9881491323574016E-004
 PAO|LS| adapt:  T T F
 PAO|LS| adapt: scan_steps:    0.0000000000000000       0.39466526408447222        0.0000000000000000     
 PAO|LS| adapt: energies:   -190.95176590731614       -190.95603909672377        0.0000000000000000     
 PAO| ======================= Iteration:        18 =============================

     Lanczos converged:  T threshold:   0.100E-02
     Est. extremal eigenvalues:    0.463E+01   0.135E+00
     Est. condition number :    0.343E+02

 Order=           3
     NS sqrt iter    1 1.00000000   0.119E+01       0.021     2681.974
     NS sqrt iter    2 1.00000000   0.605E+00       0.034     3359.164
     NS sqrt iter    3 1.00000000   0.190E+00       0.034     3356.822
     NS sqrt iter    4 1.00000000   0.221E-01       0.034     3353.617
     NS sqrt iter    5 1.00000000   0.751E-04       0.034     3351.237
     NS sqrt iter    6 1.00000000   0.804E-11       0.015     2119.676
     Symmetrizing Results
     Final NS sqrt iter    6 1.00000000   0.149E-11

     Est. extremal eigenvalues     -0.83201     2.56952  converged:  T
     TRS4 it   1 1.00000000   0.285E+02       0.007     2132.773   0.100E-11
     TRS4 it   2 1.00000000   0.234E+02       0.013     2188.906   0.100E-11
     TRS4 it   3 1.00000000   0.154E+02       0.013     2188.077   0.100E-11
     TRS4 it   4 1.00000000   0.888E+01       0.013     2204.275   0.100E-11
     TRS4 it   5 1.00000000   0.363E+01       0.013     2190.074   0.100E-11
     TRS4 it   6 1.00000000   0.898E+00       0.013     2200.464   0.100E-11
     TRS4 it   7 1.00000000   0.102E+00       0.013     2162.710   0.100E-11
     TRS4 it   8 1.00000000   0.191E-02       0.013     2190.116   0.100E-11
     TRS4 it   9 1.00000000   0.866E-06       0.013     2200.428   0.100E-11
     TRS4 it  10 1.00000000   0.441E-12       0.013     2193.226   0.100E-11
     Final TRS4 iteration   10 1.00000000   0.441E-12
     Chemical potential (mu):       0.05674
 
 PAO| energy:  -190.88345267961333      penalty:   5.0005706387837366E-004
 PAO|LS| adapt:  T T T
 PAO|LS| adapt: scan_steps:    0.0000000000000000       0.39466526408447222       0.78933052816894445     
 PAO|LS| adapt: energies:   -190.95176590731614       -190.95603909672377       -190.88345267961333     
 PAO|LS| adapt: suggested step_size:   0.21927496953842840     
 PAO|LS| adapt: predicted energy  -190.96362874180946     
 PAO| ======================= Iteration:        19 =============================

     Lanczos converged:  T threshold:   0.100E-02
     Est. extremal eigenvalues:    0.468E+01   0.134E+00
     Est. condition number :    0.348E+02

 Order=           3
     NS sqrt iter    1 1.00000000   0.120E+01       0.021     2697.340
     NS sqrt iter    2 1.00000000   0.612E+00       0.034     3361.880
     NS sqrt iter    3 1.00000000   0.194E+00       0.034     3336.892
     NS sqrt iter    4 1.00000000   0.232E-01       0.034     3347.203
     NS sqrt iter    5 1.00000000   0.857E-04       0.034     3344.833
     NS sqrt iter    6 1.00000000   0.117E-10       0.016     2144.630
     Symmetrizing Results
     Final NS sqrt iter    6 1.00000000   0.174E-11

     Est. extremal eigenvalues     -0.83216     2.57057  converged:  T
     TRS4 it   1 1.00000000   0.285E+02       0.007     2140.308   0.100E-11
     TRS4 it   2 1.00000000   0.234E+02       0.013     2204.751   0.100E-11
     TRS4 it   3 1.00000000   0.154E+02       0.013     2189.016   0.100E-11
     TRS4 it   4 1.00000000   0.895E+01       0.013     2188.093   0.100E-11
     TRS4 it   5 1.00000000   0.369E+01       0.013     2204.698   0.100E-11
     TRS4 it   6 1.00000000   0.926E+00       0.013     2182.594   0.100E-11
     TRS4 it   7 1.00000000   0.108E+00       0.013     2189.565   0.100E-11
     TRS4 it   8 1.00000000   0.215E-02       0.013     2189.029   0.100E-11
     TRS4 it   9 1.00000000   0.110E-05       0.013     2187.994   0.100E-11
     TRS4 it  10 1.00000000   0.709E-12       0.013     2186.382   0.100E-11
     Final TRS4 iteration   10 1.00000000   0.709E-12
     Chemical potential (mu):       0.05498
 
 PAO| energy:  -190.96361537093941      penalty:   5.0082643042616542E-004
 PAO|CG| trace_G_new    2.1079047371319697E-002
 PAO|CG| trace_G_prev   0.10826778431264511     
 PAO|CG| trace_G_mix   -3.7378077583905900E-004
 PAO|CG| trace_D   0.16273528002193866     
 PAO|CG| trace_D_Gnew  -4.6584599492936751E-005
 PAO|CG| beta:   0.19814599775321329     
 PAO| norm of gradient:  0.14518625062766685     
 PAO| energy improvement:  -1.1849463623264000E-002
 PAO| step     19                 -190.963615371  0.284E-03  0.219E+00     1.448
 PAO|LS| adapt:  T F F
 PAO|LS| adapt: scan_steps:    0.0000000000000000        0.0000000000000000        0.0000000000000000     
 PAO|LS| adapt: energies:   -190.96361537093941        0.0000000000000000        0.0000000000000000     
 PAO| ======================= Iteration:        20 =============================

     Lanczos converged:  T threshold:   0.100E-02
     Est. extremal eigenvalues:    0.468E+01   0.134E+00
     Est. condition number :    0.348E+02

 Order=           3
     NS sqrt iter    1 1.00000000   0.120E+01       0.021     2651.563
     NS sqrt iter    2 1.00000000   0.612E+00       0.034     3354.713
     NS sqrt iter    3 1.00000000   0.194E+00       0.034     3355.551
     NS sqrt iter    4 1.00000000   0.232E-01       0.034     3342.290
     NS sqrt iter    5 1.00000000   0.856E-04       0.034     3376.275
     NS sqrt iter    6 1.00000000   0.117E-10       0.016     2135.115
     Symmetrizing Results
     Final NS sqrt iter    6 1.00000000   0.174E-11

     Est. extremal eigenvalues     -0.83216     2.56949  converged:  T
     TRS4 it   1 1.00000000   0.285E+02       0.007     2096.728   0.100E-11
     TRS4 it   2 1.00000000   0.234E+02       0.013     2196.987   0.100E-11
     TRS4 it   3 1.00000000   0.154E+02       0.013     2187.885   0.100E-11
     TRS4 it   4 1.00000000   0.894E+01       0.013     2193.414   0.100E-11
     TRS4 it   5 1.00000000   0.368E+01       0.013     2197.458   0.100E-11
     TRS4 it   6 1.00000000   0.922E+00       0.013     2206.289   0.100E-11
     TRS4 it   7 1.00000000   0.107E+00       0.013     2217.854   0.100E-11
     TRS4 it   8 1.00000000   0.212E-02       0.013     2169.843   0.100E-11
     TRS4 it   9 1.00000000   0.106E-05       0.013     2190.382   0.100E-11
     TRS4 it  10 1.00000000   0.691E-12       0.013     2199.936   0.100E-11
     Final TRS4 iteration   10 1.00000000   0.691E-12
     Chemical potential (mu):       0.05519
 
 PAO| energy:  -190.96734208166049      penalty:   4.9137169091395365E-004
 PAO|LS| adapt:  T T F
 PAO|LS| adapt: scan_steps:    0.0000000000000000       0.21927496953842840        0.0000000000000000     
 PAO|LS| adapt: energies:   -190.96361537093941       -190.96734208166049        0.0000000000000000     
 PAO| ======================= Iteration:        21 =============================

     Lanczos converged:  T threshold:   0.100E-02
     Est. extremal eigenvalues:    0.468E+01   0.134E+00
     Est. condition number :    0.348E+02

 Order=           3
     NS sqrt iter    1 1.00000000   0.120E+01       0.021     2678.015
     NS sqrt iter    2 1.00000000   0.611E+00       0.034     3352.807
     NS sqrt iter    3 1.00000000   0.194E+00       0.034     3352.983
     NS sqrt iter    4 1.00000000   0.232E-01       0.034     3353.827
     NS sqrt iter    5 1.00000000   0.855E-04       0.034     3362.491
     NS sqrt iter    6 1.00000000   0.116E-10       0.016     2109.801
     Symmetrizing Results
     Final NS sqrt iter    6 1.00000000   0.173E-11

     Est. extremal eigenvalues     -0.83216     2.56840  converged:  T
     TRS4 it   1 1.00000000   0.285E+02       0.007     2103.136   0.100E-11
     TRS4 it   2 1.00000000   0.234E+02       0.013     2179.150   0.100E-11
     TRS4 it   3 1.00000000   0.154E+02       0.013     2198.534   0.100E-11
     TRS4 it   4 1.00000000   0.892E+01       0.013     2184.759   0.100E-11
     TRS4 it   5 1.00000000   0.367E+01       0.013     2205.313   0.100E-11
     TRS4 it   6 1.00000000   0.918E+00       0.013     2204.546   0.100E-11
     TRS4 it   7 1.00000000   0.106E+00       0.013     2200.508   0.100E-11
     TRS4 it   8 1.00000000   0.209E-02       0.013     2210.730   0.100E-11
     TRS4 it   9 1.00000000   0.103E-05       0.013     2195.007   0.100E-11
     TRS4 it  10 1.00000000   0.650E-12       0.013     2194.180   0.100E-11
     Final TRS4 iteration   10 1.00000000   0.650E-12
     Chemical potential (mu):       0.05541
 
 PAO| energy:  -190.96926070744837      penalty:   4.8232513696855979E-004
 PAO|LS| adapt:  T T F
 PAO|LS| adapt: scan_steps:    0.0000000000000000       0.43854993907685680        0.0000000000000000     
 PAO|LS| adapt: energies:   -190.96361537093941       -190.96926070744837        0.0000000000000000     
 PAO| ======================= Iteration:        22 =============================

     Lanczos converged:  T threshold:   0.100E-02
     Est. extremal eigenvalues:    0.467E+01   0.134E+00
     Est. condition number :    0.348E+02

 Order=           3
     NS sqrt iter    1 1.00000000   0.120E+01       0.021     2662.517
     NS sqrt iter    2 1.00000000   0.611E+00       0.034     3357.808
     NS sqrt iter    3 1.00000000   0.194E+00       0.034     3338.383
     NS sqrt iter    4 1.00000000   0.232E-01       0.034     3296.170
     NS sqrt iter    5 1.00000000   0.853E-04       0.034     3349.645
     NS sqrt iter    6 1.00000000   0.116E-10       0.015     2143.790
     Symmetrizing Results
     Final NS sqrt iter    6 1.00000000   0.174E-11

     Est. extremal eigenvalues     -0.83216     2.56618  converged:  T
     TRS4 it   1 1.00000000   0.285E+02       0.007     2111.171   0.100E-11
     TRS4 it   2 1.00000000   0.234E+02       0.013     2195.648   0.100E-11
     TRS4 it   3 1.00000000   0.154E+02       0.013     2172.652   0.100E-11
     TRS4 it   4 1.00000000   0.890E+01       0.013     2199.568   0.100E-11
     TRS4 it   5 1.00000000   0.365E+01       0.013     2186.206   0.100E-11
     TRS4 it   6 1.00000000   0.909E+00       0.013     2193.515   0.100E-11
     TRS4 it   7 1.00000000   0.105E+00       0.013     2181.494   0.100E-11
     TRS4 it   8 1.00000000   0.202E-02       0.013     2187.668   0.100E-11
     TRS4 it   9 1.00000000   0.964E-06       0.013     2173.912   0.100E-11
     TRS4 it  10 1.00000000   0.531E-12       0.013     2193.947   0.100E-11
     Final TRS4 iteration   10 1.00000000   0.531E-12
     Chemical potential (mu):       0.05583
 
 PAO| energy:  -190.96759373584908      penalty:   4.6543148076358490E-004
 PAO|LS| Need extra step
 PAO|LS| adapt:  T T T
 PAO|LS| adapt: scan_steps:    0.0000000000000000       0.43854993907685680       0.87709987815371360     
 PAO|LS| adapt: energies:   -190.96361537093941       -190.96926070744837       -190.96759373584908     
 PAO|LS| adapt: suggested step_size:   0.55784959541874812     
 PAO|LS| adapt: predicted energy  -190.96953126817834     
 PAO| ======================= Iteration:        23 =============================

     Lanczos converged:  T threshold:   0.100E-02
     Est. extremal eigenvalues:    0.467E+01   0.134E+00
     Est. condition number :    0.348E+02

 Order=           3
     NS sqrt iter    1 1.00000000   0.120E+01       0.021     2675.091
     NS sqrt iter    2 1.00000000   0.611E+00       0.034     3351.417
     NS sqrt iter    3 1.00000000   0.194E+00       0.034     3345.632
     NS sqrt iter    4 1.00000000   0.232E-01       0.034     3336.126
     NS sqrt iter    5 1.00000000   0.854E-04       0.034     3352.353
     NS sqrt iter    6 1.00000000   0.116E-10       0.016     2128.607
     Symmetrizing Results
     Final NS sqrt iter    6 1.00000000   0.174E-11

     Est. extremal eigenvalues     -0.83216     2.56780  converged:  T
     TRS4 it   1 1.00000000   0.285E+02       0.007     2128.212   0.100E-11
     TRS4 it   2 1.00000000   0.234E+02       0.013     2172.493   0.100E-11
     TRS4 it   3 1.00000000   0.154E+02       0.013     2192.566   0.100E-11
     TRS4 it   4 1.00000000   0.892E+01       0.013     2208.992   0.100E-11
     TRS4 it   5 1.00000000   0.367E+01       0.013     2184.040   0.100E-11
     TRS4 it   6 1.00000000   0.915E+00       0.013     2192.062   0.100E-11
     TRS4 it   7 1.00000000   0.106E+00       0.013     2206.012   0.100E-11
     TRS4 it   8 1.00000000   0.207E-02       0.013     2206.216   0.100E-11
     TRS4 it   9 1.00000000   0.101E-05       0.013     2191.796   0.100E-11
     TRS4 it  10 1.00000000   0.602E-12       0.013     2193.728   0.100E-11
     Final TRS4 iteration   10 1.00000000   0.602E-12
     Chemical potential (mu):       0.05552
 
 PAO| energy:  -190.96953799886833      penalty:   4.7757226111291514E-004
 PAO|CG| trace_G_new    1.5446404387984407E-002
 PAO|CG| trace_G_prev    2.1079047371319697E-002
 PAO|CG| trace_G_mix    1.1614494664939135E-004
 PAO|CG| trace_D    2.7486794420110861E-002
 PAO|CG| trace_D_Gnew  -4.7447267616182993E-005
 PAO|CG| beta:   0.72727477533892149     
 PAO| norm of gradient:  0.12428356443224665     
 PAO| energy improvement:  -5.9226279289248396E-003
 PAO| step     23                 -190.969537999  0.243E-03  0.558E+00     1.881
 PAO|LS| adapt:  T F F
 PAO|LS| adapt: scan_steps:    0.0000000000000000        0.0000000000000000        0.0000000000000000     
 PAO|LS| adapt: energies:   -190.96953799886833        0.0000000000000000        0.0000000000000000     
 PAO| ======================= Iteration:        24 =============================

     Lanczos converged:  T threshold:   0.100E-02
     Est. extremal eigenvalues:    0.466E+01   0.134E+00
     Est. condition number :    0.349E+02

 Order=           3
     NS sqrt iter    1 1.00000000   0.120E+01       0.021     2691.630
     NS sqrt iter    2 1.00000000   0.610E+00       0.034     3347.214
     NS sqrt iter    3 1.00000000   0.194E+00       0.034     3333.040
     NS sqrt iter    4 1.00000000   0.232E-01       0.034     3343.251
     NS sqrt iter    5 1.00000000   0.854E-04       0.034     3341.164
     NS sqrt iter    6 1.00000000   0.116E-10       0.015     2146.965
     Symmetrizing Results
     Final NS sqrt iter    6 1.00000000   0.173E-11

     Est. extremal eigenvalues     -0.83216     2.56456  converged:  T
     TRS4 it   1 1.00000000   0.285E+02       0.007     2145.620   0.100E-11
     TRS4 it   2 1.00000000   0.233E+02       0.013     2186.097   0.100E-11
     TRS4 it   3 1.00000000   0.154E+02       0.013     2212.915   0.100E-11
     TRS4 it   4 1.00000000   0.889E+01       0.013     2201.145   0.100E-11
     TRS4 it   5 1.00000000   0.365E+01       0.013     2194.774   0.100E-11
     TRS4 it   6 1.00000000   0.906E+00       0.013     2191.932   0.100E-11
     TRS4 it   7 1.00000000   0.104E+00       0.013     2183.120   0.100E-11
     TRS4 it   8 1.00000000   0.199E-02       0.013     2200.678   0.100E-11
     TRS4 it   9 1.00000000   0.940E-06       0.013     2194.261   0.100E-11
     TRS4 it  10 1.00000000   0.540E-12       0.013     2217.397   0.100E-11
     Final TRS4 iteration   10 1.00000000   0.540E-12
     Chemical potential (mu):       0.05599
 
 PAO| energy:  -190.97233787420285      penalty:   4.4169153229131359E-004
 PAO|LS| adapt:  T T F
 PAO|LS| adapt: scan_steps:    0.0000000000000000       0.55784959541874812        0.0000000000000000     
 PAO|LS| adapt: energies:   -190.96953799886833       -190.97233787420285        0.0000000000000000     
 PAO| ======================= Iteration:        25 =============================

     Lanczos converged:  T threshold:   0.100E-02
     Est. extremal eigenvalues:    0.465E+01   0.133E+00
     Est. condition number :    0.349E+02

 Order=           3
     NS sqrt iter    1 1.00000000   0.119E+01       0.021     2695.854
     NS sqrt iter    2 1.00000000   0.609E+00       0.034     3334.300
     NS sqrt iter    3 1.00000000   0.193E+00       0.034     3351.885
     NS sqrt iter    4 1.00000000   0.231E-01       0.034     3317.668
     NS sqrt iter    5 1.00000000   0.855E-04       0.034     3338.982
     NS sqrt iter    6 1.00000000   0.117E-10       0.015     2141.044
     Symmetrizing Results
     Final NS sqrt iter    6 1.00000000   0.173E-11

     Est. extremal eigenvalues     -0.83215     2.56120  converged:  T
     TRS4 it   1 1.00000000   0.285E+02       0.007     2124.707   0.100E-11
     TRS4 it   2 1.00000000   0.233E+02       0.013     2177.393   0.100E-11
     TRS4 it   3 1.00000000   0.154E+02       0.013     2208.150   0.100E-11
     TRS4 it   4 1.00000000   0.887E+01       0.013     2209.928   0.100E-11
     TRS4 it   5 1.00000000   0.362E+01       0.013     2181.589   0.100E-11
     TRS4 it   6 1.00000000   0.897E+00       0.013     2206.811   0.100E-11
     TRS4 it   7 1.00000000   0.102E+00       0.013     2185.660   0.100E-11
     TRS4 it   8 1.00000000   0.192E-02       0.013     2153.853   0.100E-11
     TRS4 it   9 1.00000000   0.875E-06       0.013     2194.187   0.100E-11
     TRS4 it  10 1.00000000   0.453E-12       0.013     2185.571   0.100E-11
     Final TRS4 iteration   10 1.00000000   0.453E-12
     Chemical potential (mu):       0.05645
 
 PAO| energy:  -190.96328549689014      penalty:   4.0936711528914829E-004
 PAO|LS| adapt:  T T T
 PAO|LS| adapt: scan_steps:    0.0000000000000000       0.55784959541874812        1.1156991908374962     
 PAO|LS| adapt: energies:   -190.96953799886833       -190.97233787420285       -190.96328549689014     
 PAO|LS| adapt: suggested step_size:   0.41070644032803610     
 PAO|LS| adapt: predicted energy  -190.97275017748129     
 PAO| ======================= Iteration:        26 =============================

     Lanczos converged:  T threshold:   0.100E-02
     Est. extremal eigenvalues:    0.467E+01   0.134E+00
     Est. condition number :    0.349E+02

 Order=           3
     NS sqrt iter    1 1.00000000   0.120E+01       0.021     2692.195
     NS sqrt iter    2 1.00000000   0.610E+00       0.034     3351.795
     NS sqrt iter    3 1.00000000   0.194E+00       0.034     3346.832
     NS sqrt iter    4 1.00000000   0.232E-01       0.034     3348.524
     NS sqrt iter    5 1.00000000   0.854E-04       0.034     3340.776
     NS sqrt iter    6 1.00000000   0.116E-10       0.016     2134.572
     Symmetrizing Results
     Final NS sqrt iter    6 1.00000000   0.174E-11

     Est. extremal eigenvalues     -0.83217     2.56543  converged:  T
     TRS4 it   1 1.00000000   0.285E+02       0.007     2117.290   0.100E-11
     TRS4 it   2 1.00000000   0.234E+02       0.013     2169.772   0.100E-11
     TRS4 it   3 1.00000000   0.154E+02       0.013     2181.989   0.100E-11
     TRS4 it   4 1.00000000   0.890E+01       0.013     2185.981   0.100E-11
     TRS4 it   5 1.00000000   0.365E+01       0.013     2184.192   0.100E-11
     TRS4 it   6 1.00000000   0.909E+00       0.013     2200.738   0.100E-11
     TRS4 it   7 1.00000000   0.104E+00       0.013     2194.261   0.100E-11
     TRS4 it   8 1.00000000   0.201E-02       0.013     2178.967   0.100E-11
     TRS4 it   9 1.00000000   0.958E-06       0.013     2197.382   0.100E-11
     TRS4 it  10 1.00000000   0.581E-12       0.013     2176.467   0.100E-11
     Final TRS4 iteration   10 1.00000000   0.581E-12
     Chemical potential (mu):       0.05587
 
 PAO| energy:  -190.97273910449331      penalty:   4.5080399632297958E-004
 PAO|CG| trace_G_new    1.1963749070629756E-002
 PAO|CG| trace_G_prev    1.5446404387984407E-002
 PAO|CG| trace_G_mix    2.0551064495165404E-004
 PAO|CG| trace_D    3.0053970449126395E-002
 PAO|CG| trace_D_Gnew  -6.3924068077379651E-005
 PAO|CG| beta:   0.76122818814873905     
 PAO| norm of gradient:  0.10937892425248000     
 PAO| energy improvement:  -3.2011056249814374E-003
 PAO| step     26                 -190.972739104  0.214E-03  0.411E+00     1.450
 PAO|LS| adapt:  T F F
 PAO|LS| adapt: scan_steps:    0.0000000000000000        0.0000000000000000        0.0000000000000000     
 PAO|LS| adapt: energies:   -190.97273910449331        0.0000000000000000        0.0000000000000000     
 PAO| ======================= Iteration:        27 =============================

     Lanczos converged:  T threshold:   0.100E-02
     Est. extremal eigenvalues:    0.465E+01   0.133E+00
     Est. condition number :    0.349E+02

 Order=           3
     NS sqrt iter    1 1.00000000   0.119E+01       0.021     2661.126
     NS sqrt iter    2 1.00000000   0.609E+00       0.034     3358.900
     NS sqrt iter    3 1.00000000   0.193E+00       0.034     3367.569
     NS sqrt iter    4 1.00000000   0.231E-01       0.034     3347.406
     NS sqrt iter    5 1.00000000   0.851E-04       0.034     3352.461
     NS sqrt iter    6 1.00000000   0.116E-10       0.016     2126.200
     Symmetrizing Results
     Final NS sqrt iter    6 1.00000000   0.171E-11

     Est. extremal eigenvalues     -0.83217     2.56327  converged:  T
     TRS4 it   1 1.00000000   0.285E+02       0.007     2110.226   0.100E-11
     TRS4 it   2 1.00000000   0.233E+02       0.013     2166.933   0.100E-11
     TRS4 it   3 1.00000000   0.154E+02       0.013     2162.751   0.100E-11
     TRS4 it   4 1.00000000   0.888E+01       0.013     2156.561   0.100E-11
     TRS4 it   5 1.00000000   0.363E+01       0.013     2190.272   0.100E-11
     TRS4 it   6 1.00000000   0.901E+00       0.013     2196.081   0.100E-11
     TRS4 it   7 1.00000000   0.103E+00       0.013     2178.706   0.100E-11
     TRS4 it   8 1.00000000   0.195E-02       0.013     2166.211   0.100E-11
     TRS4 it   9 1.00000000   0.899E-06       0.013     2191.954   0.100E-11
     TRS4 it  10 1.00000000   0.476E-12       0.013     2187.209   0.100E-11
     Final TRS4 iteration   10 1.00000000   0.476E-12
     Chemical potential (mu):       0.05629
 
 PAO| energy:  -190.97507806600007      penalty:   4.1739271916088800E-004
 PAO|LS| adapt:  T T F
 PAO|LS| adapt: scan_steps:    0.0000000000000000       0.41070644032803610        0.0000000000000000     
 PAO|LS| adapt: energies:   -190.97273910449331       -190.97507806600007        0.0000000000000000     
 PAO| ======================= Iteration:        28 =============================

     Lanczos converged:  T threshold:   0.100E-02
     Est. extremal eigenvalues:    0.464E+01   0.133E+00
     Est. condition number :    0.349E+02

 Order=           3
     NS sqrt iter    1 1.00000000   0.119E+01       0.021     2684.190
     NS sqrt iter    2 1.00000000   0.607E+00       0.034     3332.896
     NS sqrt iter    3 1.00000000   0.192E+00       0.034     3332.758
     NS sqrt iter    4 1.00000000   0.230E-01       0.034     3339.884
     NS sqrt iter    5 1.00000000   0.849E-04       0.034     3326.355
     NS sqrt iter    6 1.00000000   0.117E-10       0.015     2161.264
     Symmetrizing Results
     Final NS sqrt iter    6 1.00000000   0.171E-11

     Est. extremal eigenvalues     -0.83218     2.56100  converged:  T
     TRS4 it   1 1.00000000   0.285E+02       0.007     2096.345   0.100E-11
     TRS4 it   2 1.00000000   0.233E+02       0.013     2157.691   0.100E-11
     TRS4 it   3 1.00000000   0.154E+02       0.013     2171.694   0.100E-11
     TRS4 it   4 1.00000000   0.886E+01       0.013     2195.026   0.100E-11
     TRS4 it   5 1.00000000   0.362E+01       0.013     2180.680   0.100E-11
     TRS4 it   6 1.00000000   0.893E+00       0.013     2152.330   0.100E-11
     TRS4 it   7 1.00000000   0.101E+00       0.013     2194.894   0.100E-11
     TRS4 it   8 1.00000000   0.188E-02       0.013     2194.848   0.100E-11
     TRS4 it   9 1.00000000   0.844E-06       0.013     2195.675   0.100E-11
     TRS4 it  10 1.00000000   0.442E-12       0.013     2182.164   0.100E-11
     Final TRS4 iteration   10 1.00000000   0.442E-12
     Chemical potential (mu):       0.05671
 
 PAO| energy:  -190.97218375036411      penalty:   3.8654258837810663E-004
 PAO|LS| adapt:  T T T
 PAO|LS| adapt: scan_steps:    0.0000000000000000       0.41070644032803610       0.82141288065607221     
 PAO|LS| adapt: energies:   -190.97273910449331       -190.97507806600007       -190.97218375036411     
 PAO|LS| adapt: suggested step_size:   0.38891440530798288     
 PAO|LS| adapt: predicted energy  -190.97508543275612     
 PAO| ======================= Iteration:        29 =============================

     Lanczos converged:  T threshold:   0.100E-02
     Est. extremal eigenvalues:    0.465E+01   0.133E+00
     Est. condition number :    0.349E+02

 Order=           3
     NS sqrt iter    1 1.00000000   0.119E+01       0.021     2691.855
     NS sqrt iter    2 1.00000000   0.609E+00       0.034     3347.934
     NS sqrt iter    3 1.00000000   0.193E+00       0.034     3362.354
     NS sqrt iter    4 1.00000000   0.231E-01       0.034     3326.313
     NS sqrt iter    5 1.00000000   0.851E-04       0.034     3341.753
     NS sqrt iter    6 1.00000000   0.116E-10       0.016     2130.262
     Symmetrizing Results
     Final NS sqrt iter    6 1.00000000   0.171E-11

     Est. extremal eigenvalues     -0.83217     2.56339  converged:  T
     TRS4 it   1 1.00000000   0.285E+02       0.007     2139.124   0.100E-11
     TRS4 it   2 1.00000000   0.233E+02       0.013     2183.889   0.100E-11
     TRS4 it   3 1.00000000   0.154E+02       0.013     2187.490   0.100E-11
     TRS4 it   4 1.00000000   0.888E+01       0.013     2188.795   0.100E-11
     TRS4 it   5 1.00000000   0.364E+01       0.013     2192.203   0.100E-11
     TRS4 it   6 1.00000000   0.901E+00       0.013     2199.132   0.100E-11
     TRS4 it   7 1.00000000   0.103E+00       0.013     2179.829   0.100E-11
     TRS4 it   8 1.00000000   0.195E-02       0.013     2190.974   0.100E-11
     TRS4 it   9 1.00000000   0.902E-06       0.013     2189.474   0.100E-11
[...]
     TRS4 it   6 1.00000000   0.129E+01       0.013     2164.302   0.100E-11
     TRS4 it   7 1.00000000   0.229E+00       0.013     2201.048   0.100E-11
     TRS4 it   8 1.00000000   0.112E-01       0.013     2180.564   0.100E-11
     TRS4 it   9 1.00000000   0.302E-04       0.013     2205.674   0.100E-11
     TRS4 it  10 1.00000000   0.450E-09       0.013     2196.419   0.100E-11
     TRS4 it  11 1.00000000   0.178E-14       0.013     2228.950   0.100E-11
     Final TRS4 iteration   11 1.00000000   0.178E-14
     Chemical potential (mu):       0.02586
 
 PAO| energy:  -190.58955546596457      penalty:   1.4404196669512005E-008
 PAO| Writing restart file.
     Est. extremal eigenvalues     -0.83183     2.56162  converged:  T
     TRS4 it   1 1.00000000   0.288E+02       0.007     2145.989   0.100E-11
     TRS4 it   2 1.00000000   0.236E+02       0.013     2180.290   0.100E-11
     TRS4 it   3 1.00000000   0.156E+02       0.013     2187.981   0.100E-11
     TRS4 it   4 1.00000000   0.927E+01       0.013     2176.550   0.100E-11
     TRS4 it   5 1.00000000   0.416E+01       0.013     2181.875   0.100E-11
     TRS4 it   6 1.00000000   0.129E+01       0.013     2157.763   0.100E-11
     TRS4 it   7 1.00000000   0.229E+00       0.013     2181.693   0.100E-11
     TRS4 it   8 1.00000000   0.112E-01       0.013     2180.728   0.100E-11
     TRS4 it   9 1.00000000   0.302E-04       0.013     2196.039   0.100E-11
     TRS4 it  10 1.00000000   0.450E-09       0.013     2172.332   0.100E-11
     TRS4 it  11 1.00000000   0.178E-14       0.013     2186.656   0.100E-11
     Final TRS4 iteration   11 1.00000000   0.178E-14
     Chemical potential (mu):       0.02586

 SCF     1     -1103.055239849     -1103.055239849    1.769523

*********************************************************
 Using MIXING_FRACTION=0.450 to mix KS matrix:  iscf=  2
 KS_nw=0.450*KS + 0.550*KS_old
*********************************************************
     Est. extremal eigenvalues     -0.83183     2.56162  converged:  T
     TRS4 it   1 1.00000000   0.288E+02       0.007     2158.162   0.100E-11
     TRS4 it   2 1.00000000   0.236E+02       0.013     2188.984   0.100E-11
     TRS4 it   3 1.00000000   0.156E+02       0.013     2185.969   0.100E-11
     TRS4 it   4 1.00000000   0.927E+01       0.013     2189.384   0.100E-11
     TRS4 it   5 1.00000000   0.416E+01       0.013     2169.295   0.100E-11
     TRS4 it   6 1.00000000   0.129E+01       0.013     2189.632   0.100E-11
     TRS4 it   7 1.00000000   0.229E+00       0.013     2160.721   0.100E-11
     TRS4 it   8 1.00000000   0.112E-01       0.013     2178.810   0.100E-11
     TRS4 it   9 1.00000000   0.302E-04       0.013     2187.582   0.100E-11
     TRS4 it  10 1.00000000   0.450E-09       0.013     2173.555   0.100E-11
     TRS4 it  11 1.00000000   0.160E-13       0.013     2151.354   0.100E-11
     Final TRS4 iteration   11 1.00000000   0.160E-13
     Chemical potential (mu):       0.02586

 SCF     2     -1103.055239849        -0.000000000    1.767781


 SCF run converged in     2 steps.

 PAO| Storing density matrix for ASPC guess in slot:           1

 ENERGY| Total FORCE_EVAL ( QS ) energy [a.u.]:            -1103.055239849490818

 -------------------------------------------------------------------------------
 -                                                                             -
 -                                DBCSR STATISTICS                             -
 -                                                                             -
 -------------------------------------------------------------------------------
 COUNTER                                    TOTAL       BLAS       SMM       ACC
 flops     5 x     5 x     4             26419200       0.0%    100.0%      0.0%     
 flops    13 x     5 x     4             34078720       0.0%    100.0%      0.0%     
 flops     5 x    13 x     4             34078720       0.0%    100.0%      0.0%     
 flops    13 x    13 x     4             44994560       0.0%    100.0%      0.0%     
 flops     4 x     4 x     5           6566707200       0.0%    100.0%      0.0%     
 flops     5 x     4 x     5           8077312000       0.0%    100.0%      0.0%     
 flops     4 x     4 x    13           8536719360       0.0%    100.0%      0.0%     
 flops    13 x     4 x     5          10500505600       0.0%    100.0%      0.0%     
 flops     5 x     4 x    13          10500505600       0.0%    100.0%      0.0%     
 flops    13 x     4 x    13          13650657280       0.0%    100.0%      0.0%     
 flops     5 x     4 x     4         404005838080       0.0%    100.0%      0.0%     
 flops    13 x     4 x     4         533231976992       0.0%    100.0%      0.0%     
 flops     4 x     4 x     4       29867124777600       0.0%    100.0%      0.0%     
 flops inhomo. stacks                           0       0.0%      0.0%      0.0%
 flops total                        30.862335E+12       0.0%    100.0%      0.0%
 flops max/rank                    975.334654E+09       0.0%    100.0%      0.0%
 matmuls inhomo. stacks                         0       0.0%      0.0%      0.0%
 matmuls total                       237296485538       0.0%    100.0%      0.0%
 number of processed stacks             242447018       0.0%    100.0%      0.0%
 average stack size                                     0.0     978.8       0.0
 marketing flops                    53.881149E+12
 -------------------------------------------------------------------------------
 # multiplications                          50564
 max memory usage/rank             620.240896E+06
 # max total images/rank                        2
 # max 3D layers                                1
 # MPI messages exchanged                21034624
 MPI messages size (bytes):
  total size                         2.479389E+12
  min size                           0.000000E+00
  max size                         541.696000E+03
  average size                     117.871781E+03
 MPI breakdown and total messages size (bytes):
             size <=      128              899976                        0
       128 < size <=     8192              342324               1375762944
      8192 < size <=    32768              121984               2427514240
     32768 < size <=   131072             8956758             655941214592
    131072 < size <=  4194304            10713582            1820047880960
   4194304 < size <= 16777216                   0                        0
  16777216 < size                               0                        0
 -------------------------------------------------------------------------------

 *** WARNING in dbcsr_mm.F:301 :: Using a non-square number of MPI ranks ***
 *** might lead to poor performance. Used ranks: 32 Suggested: 36 64     ***

 -------------------------------------------------------------------------------
 -                                                                             -
 -                      DBCSR MESSAGE PASSING PERFORMANCE                      -
 -                                                                             -
 -------------------------------------------------------------------------------
 ROUTINE             CALLS      AVE VOLUME [Bytes]
 MP_Bcast               14                     12.
 MP_Allreduce       304360                     37.
 MP_Alltoall        130553                  14599.
 MP_ISend          1692126                  54831.
 MP_IRecv          1655086                  56137.
 -------------------------------------------------------------------------------

 -------------------------------------------------------------------------------
 -                                                                             -
 -                                DBM STATISTICS                               -
 -                                                                             -
 -------------------------------------------------------------------------------
    M  x    N  x    K                                          COUNT     PERCENT
 -------------------------------------------------------------------------------

 -------------------------------------------------------------------------------
 -                                                                             -
 -                                GRID STATISTICS                              -
 -                                                                             -
 -------------------------------------------------------------------------------
 LP    KERNEL             BACKEND                              COUNT     PERCENT
 2     collocate ortho    CPU                               13103792      28.82%
 2     integrate ortho    CPU                               13103792      28.82%
 3     collocate ortho    CPU                                8430080      18.54%
 3     integrate ortho    CPU                                8430080      18.54%
 4     collocate ortho    CPU                                1196432       2.63%
 4     integrate ortho    CPU                                1196432       2.63%
 0     collocate general  CPU                                   6144       0.01%
 -------------------------------------------------------------------------------

 MEMORY| Estimated peak process memory [MiB]                                 593

 -------------------------------------------------------------------------------
 -                                                                             -
 -                         MESSAGE PASSING PERFORMANCE                         -
 -                                                                             -
 -------------------------------------------------------------------------------

 ROUTINE             CALLS      AVE VOLUME [Bytes]
 MP_Group                5
 MP_Bcast           367387                   1947.
 MP_Allreduce       913221                    514.
 MP_Sync                 5
 MP_Alltoall           419                3953580.
 MP_SendRecv          1488                  18832.
 MP_ISendRecv         1488                  18832.
 MP_Wait              4218
 MP_ISend             2470                 108139.
 MP_IRecv             2470                 108153.
 -------------------------------------------------------------------------------


 -------------------------------------------------------------------------------
 -                                                                             -
 -                           R E F E R E N C E S                               -
 -                                                                             -
 -------------------------------------------------------------------------------
 
 CP2K version 2024.3 (Development Version), the CP2K developers group (2024).
 CP2K is freely available from https://www.cp2k.org/ .
 
 T. D. Kuehne, M. Iannuzzi, M. Del Ben, V. V. Rybkin, P. Seewald, F. Stein, T. 
 Laino, R. Z. Khaliullin, O. Schuett, F. Schiffmann, D. Golze, J. Wilhelm, S. 
 Chulkov, M. H. Bani-Hashemian, V. Weber, U. Borstnik, M. Taillefumier, A. S. 
 Jakobovits, A. Lazzaro, H. Pabst, T. Mueller, R. Schade, M. Guidon, S. 
 Andermatt, N. Holmberg, G. K. Schenter, A. Hehn, A. Bussy, F. Belleflamme, G. 
 Tabacchi, A. Gloess, M. Lass, I. Bethune, C. J. Mundy, C. Plessl, M. Watkins, 
 J. VandeVondele, M. Krack, J. Hutter.
 J. Chem. Phys. 152, 194103 (2020).
 CP2K: An electronic structure and molecular dynamics software package - 
 Quickstep: Efficient and accurate electronic structure calculations.
 https://doi.org/10.1063/5.0007045

 O. Schuett, J. VandeVondele.
 J. Chem. Theory Comput. 14, 4168-4175 (2018).
 Machine Learning Adaptive Basis Sets for Efficient Large Scale Density 
 Functional Theory Simulation.
 https://doi.org/10.1021/acs.jctc.8b00378

 O. Schuett, P. Messmer, J. Hutter, J. VandeVondele.
 Electronic Structure Calculations on Graphics Processing Units, 173-190 (2016).
 GPU-Accelerated Sparse Matrix-Matrix Multiplication for Linear Scaling Density 
 Functional Theory.
 https://doi.org/10.1002/9781118670712.ch8

 A. Heinecke, G. Henry, M. Hutchinson, H. Pabst.
 Proceedings of Intl. Supercomputing Conference, 981-991 (2016).
 LIBXSMM: Accelerating Small Matrix Multiplications by Runtime Code Generation.
 https://doi.org/10.1109/SC.2016.83

 J. Hutter, M. Iannuzzi, F. Schiffmann, J. VandeVondele.
 WIREs Comput Mol Sci. 4, 15-25 (2014).
 CP2K: atomistic simulations of condensed matter systems.
 https://doi.org/10.1002/wcms.1159

 U. Borstnik, J. VandeVondele, V. Weber, J. Hutter.
 Parallel Comput. 40, 47-58 (2014).
 Sparse matrix multiplication: The distributed block-compressed sparse row 
 library.
 https://doi.org/10.1016/j.parco.2014.03.012

 A. Marek, V. Blum, R. Johanni, V. Havu, B. Lang, T. Auckenthaler, A. Heinecke, 
 H. Bungartz, H. Lederer.
 J. Phys. Condens. Matter 26, 213201 (2014).
 The ELPA library: scalable parallel eigenvalue solutions for electronic 
 structure theory and computational science.
 https://doi.org/10.1088/0953-8984/26/21/213201

 J. VandeVondele, U. Borstnik, J. Hutter.
 J. Chem. Theory Comput. 8, 3565-3573 (2012).
 Linear Scaling Self-Consistent Field Calculations with Millions of Atoms in the 
 Condensed Phase.
 https://doi.org/10.1021/ct200897x

 J. VandeVondele, J. Hutter.
 J. Chem. Phys. 127, 114105 (2007).
 Gaussian basis sets for accurate calculations on molecular systems in gas and 
 condensed phases.
 https://doi.org/10.1063/1.2770708

 J. VandeVondele, M. Krack, F. Mohamed, M. Parrinello, T. Chassaing, J. Hutter.
 Comput. Phys. Commun. 167, 103-128 (2005).
 QUICKSTEP: Fast and accurate density functional calculations using a mixed 
 Gaussian and plane waves approach.
 https://doi.org/10.1016/j.cpc.2004.12.014

 M. Krack.
 Theor. Chem. Acc. 114, 145-152 (2005).
 Pseudopotentials for H to Kr optimized for gradient-corrected 
 exchange-correlation functionals.
 https://doi.org/10.1007/s00214-005-0655-y

 M. Frigo, S. G. Johnson.
 Proc. IEEE 93, 216-231 (2005).
 The design and implementation of FFTW3.
 https://doi.org/10.1109/JPROC.2004.840301

 A. M. N. Niklasson, C. J. Tymczak, M. Challacombe.
 J. Chem. Phys. 118, 8611-8620 (2003).
 Trace resetting density matrix purification in O(N) self-consistent-field 
 theory.
 https://doi.org/10.1063/1.1559913

 C. Hartwigsen, S. Goedecker, J. Hutter.
 Phys. Rev. B 58, 3641-3662 (1998).
 Relativistic separable dual-space Gaussian pseudopotentials from H to Rn.
 https://doi.org/10.1103/PhysRevB.58.3641

 G. Lippert, J. Hutter, M. Parrinello.
 Mol. Phys. 92, 477-487 (1997).
 A hybrid Gaussian and plane wave density functional scheme.
 https://doi.org/10.1080/002689797170220

 S. Goedecker, M. Teter, J. Hutter.
 Phys. Rev. B 54, 1703-1710 (1996).
 Separable dual-space Gaussian pseudopotentials.
 https://doi.org/10.1103/PhysRevB.54.1703

 J. P. Perdew, K. Burke, M. Ernzerhof.
 Phys. Rev. Lett. 77, 3865-3868 (1996).
 Generalized gradient approximation made simple.
 https://doi.org/10.1103/PhysRevLett.77.3865


 -------------------------------------------------------------------------------
 -                                                                             -
 -                                T I M I N G                                  -
 -                                                                             -
 -------------------------------------------------------------------------------
 SUBROUTINE                       CALLS  ASD         SELF TIME        TOTAL TIME
                                MAXIMUM       AVERAGE  MAXIMUM  AVERAGE  MAXIMUM
 CP2K                                 1  1.0    0.012    0.015  449.413  449.415
 qs_energies                          1  2.0    0.000    0.000  449.256  449.257
 ls_scf                               1  3.0    0.000    0.000  448.216  448.217
 pao_update                           7  4.0    0.006    0.025  418.140  418.142
 pao_calc_energy                    824  5.0    0.003    0.018  374.908  374.911
 dbcsr_multiply_generic           50564  8.4    1.395    1.489  350.536  350.798
 multiply_cannon                  50564  9.4    2.620    2.943  283.512  288.582
 multiply_cannon_loop             50564 10.4    1.857    2.105  272.880  276.073
 ls_scf_init_matrix_S               831  7.0    0.008    0.010  213.272  213.321
 pao_rebuild_S                      824  6.0    0.003    0.003  211.460  211.509
 matrix_sqrt_Newton_Schulz          831  8.0    0.168    0.280  197.695  197.805
 multiply_cannon_multrec         404512 11.4  177.607  179.616  178.433  180.412
 pao_dm_trs4                        824  6.0    0.006    0.007  163.076  163.102
 density_matrix_trs4                839  7.0    0.216    0.363  157.216  157.277
 mp_waitall_1                   3237844 12.6   91.721   96.681   91.721   96.681
 multiply_cannon_metrocomm3      404512 11.4    0.692    0.746   73.445   77.520
 arnoldi_extremal                  1670  8.5    0.013    0.016   60.435   60.541
 arnoldi_normal_ev                 1670  9.5    0.036    0.062   60.419   60.521
 build_subspace                    5926 10.7    0.363    0.389   53.152   53.192
 make_m2s                        101128  9.4    0.550    0.650   51.998   53.038
 make_images                     101128 10.4    7.370    7.542   50.628   51.699
 dbcsr_matrix_vector_mult        181120 11.7    0.778    1.171   50.075   50.469
 dbcsr_matrix_vector_mult_local  181120 12.7   42.663   43.058   42.866   43.281
 pao_calc_AB                       1090  5.8    0.002    0.002   42.762   42.764
 pao_calc_AB_equi                  1090  6.8    0.041    0.100   42.761   42.763
 pao_calc_grad_lnv_wrt_AB           265  7.0    0.019    0.022   42.351   42.382
 ls_scf_main                          7  4.0    0.000    0.001   26.554   26.555
 make_images_data                101128 11.4    0.874    1.100   22.428   24.550
 ls_scf_dm_to_ks                     15  5.0    0.000    0.000   23.431   23.432
 hybrid_alltoall_any             102785 12.3    0.907    1.752   17.610   21.097
 matrix_qs_to_ls                   1670  7.5    0.016    0.022   17.581   17.721
 qs_ks_update_qs_env                 16  6.0    0.000    0.000   13.942   13.944
 rebuild_ks_matrix                   16  7.0    0.000    0.000   13.930   13.932
 qs_ks_build_kohn_sham_matrix        16  8.0    0.003    0.003   13.930   13.932
 calculate_norms                 755072 11.4   11.590   12.458   11.590   12.458
 mp_sum_l                        206654  9.5    7.415   12.087    7.415   12.087
 make_images_pack                101128 11.4   11.152   11.456   11.289   11.593
 qs_rho_update_rho_low               16  6.0    0.000    0.000   10.953   10.955
 calculate_rho_elec                  16  7.0    0.005    0.006   10.952   10.954
 sum_up_and_integrate                16  9.0    0.000    0.001   10.553   10.555
 integrate_v_rspace                  16 10.0    0.000    0.001   10.538   10.541
 grid_collocate_task_list            16  8.0    9.712    9.854    9.712    9.854
 grid_integrate_task_list            16 11.0    9.276    9.425    9.276    9.425
 make_images_sizes               101128 11.4    0.058    0.069    4.662    9.060
 mp_alltoall_i44                 101128 12.4    4.604    9.000    4.604    9.000
 -------------------------------------------------------------------------------

 The number of warnings for this run is : 1
 
 -------------------------------------------------------------------------------
  **** **** ******  **  PROGRAM ENDED AT                 2024-09-24 04:15:08.411
 ***** ** ***  *** **   PROGRAM RAN ON                                    moritz
 **    ****   ******    PROGRAM RAN BY                                       ole
 ***** **    ** ** **   PROGRAM PROCESS ID                                168325
  **** **  *******  **  PROGRAM STOPPED IN /home/ole/git/pao_ml_equivar/64H2O_MD
                                           /Frame4700
