     192
 i =     4700, time =     7050.000, E =     -1100.0676589319
  O         6.2305940331       -3.4634814041        3.4914516170
  H         6.1328198001       -4.4739605418        3.5384904799
  H         6.9438294048       -3.1132831996        4.1171583113
  O        -5.2997246289        2.4221351528        5.7650086875
  H        -4.9717246827        2.5254772327        4.8434722727
  H        -4.4024335129        2.2604874660        6.2191266090
  O         5.7379333113        4.3328837684        6.8818719135
  H         4.9286303049        4.3044469242        6.3284203550
  H         6.3919306488        3.8008195120        6.4681712799
  O        -2.5717945921       -0.1589500006       -3.7233384265
  H        -2.1941869808        0.4228511158       -3.0427947481
  H        -1.9141641315       -0.8714182219       -3.8762581015
  O        -3.1951778413        4.5820163063        4.3386960092
  H        -4.0940210659        4.3343171279        4.0856498697
  H        -3.0860300239        5.3069237623        3.7280727396
  O         8.8616241611       -0.1565701070        3.4129129229
  H         8.4527770765       -0.6365276775        4.1737099609
  H         8.3450307551       -0.4885361751        2.6710088157
  O         4.7578745737       -5.6347834162        0.2978302573
  H         4.5015836512       -4.7197090029        0.0077415868
  H         4.1015105200       -6.2611790515       -0.1504910468
  O        -0.7579943485       -2.9849365383       -0.9305986908
  H        -1.6854745468       -3.3582215812       -0.9232933530
  H        -0.9153363896       -2.0589467701       -0.7342167284
  O         3.5305597224       -2.5750643380        3.4833845877
  H         4.3596722053       -3.0650497726        3.4751044859
  H         3.2052910961       -2.6076398884        2.5574072662
  O         3.2339192343        3.7627695758        5.9624858074
  H         3.1736779371        2.7897562075        5.9678533703
  H         2.9660132920        4.0336430860        6.8189225535
  O         4.9492507558       -5.2617871868       -3.4441413212
  H         4.8772765873       -4.6657649829       -2.6896356955
  H         4.1795582065       -4.8689522933       -3.8846989449
  O         2.5691712953       -2.1779343941        1.0161869430
  H         1.8041235846       -2.7509967813        0.9158142741
  H         3.1470312526       -2.3693648659        0.2374158949
  O         2.1850177990       -4.4237501622       -4.3499354112
  H         1.7641585606       -5.2800625165       -4.3552774425
  H         2.4120083891       -4.2756036664       -5.2914735188
  O         4.1859698379        4.2730846689       -2.9012046685
  H         4.5538737161        3.3751555454       -3.0668625689
  H         4.8812110778        4.9249973431       -3.1966281845
  O         2.8582453258       -0.2137696394        4.8303464515
  H         3.0010078519       -1.1250015392        4.4588217884
  H         3.0076088461        0.3903812725        4.0892660539
  O        -0.2549519102        2.9704059753        6.9750341770
  H         0.2044062177        2.3273657483        6.4357978905
  H        -1.1358779965        2.5618311184        6.8281188786
  O        -1.0641190508       -4.0350239161        2.4519388289
  H        -0.3628194602       -4.3312053114        1.8469627460
  H        -0.8442219588       -4.3724345414        3.3150825334
  O        -1.5996553212        2.9670194864        2.5580098820
  H        -1.0483535316        2.2757901549        3.0147304652
  H        -2.2242004971        3.4106446683        3.1670816663
  O         1.1584570192        0.1104196859       -5.5196853749
  H         1.8365145391       -0.0023919068       -6.1941691250
  H         1.6783438123        0.1922229001       -4.6780487287
  O        -0.7170041147       -0.1539360395        0.3767495857
  H        -0.8586529862       -0.7153995619        1.1559391264
  H         0.0861841525        0.3484473642        0.5098130779
  O        -4.2370527919        2.5342345099       -3.0476088490
  H        -4.3087986385        3.4719009856       -2.7198943727
  H        -3.7164393805        2.1093842817       -2.3631732758
  O         5.4955235134        6.4362094257        3.1475007515
  H         5.3596276494        6.5804412812        2.1868245518
  H         4.6323978582        6.3382192113        3.6329766543
  O         4.9449841515       -0.7836096723       -4.3322427875
  H         5.1139962767       -0.6194416122       -5.2469663608
  H         5.8074774313       -1.0490214006       -3.9803760284
  O        -5.2484791341        5.1033198893       -2.5965177937
  H        -5.0965907159        5.3914253842       -1.6733610998
  H        -5.2823723009        5.8762145986       -3.1661505284
  O         5.4527527462        1.3816248574       -0.6799586237
  H         6.2445411178        1.9812362680       -0.4419715030
  H         5.5249376673        1.4353883120       -1.6822110153
  O         2.0686766515        0.5197947279        1.0649741207
  H         2.4028649661        0.7033252663        0.1348926921
  H         2.1668771527       -0.4712113190        1.1385894079
  O        -4.7989145008       -5.8448255868       -0.1023170696
  H        -4.2998015066       -6.1466302490        0.6469062168
  H        -5.7717531212       -5.7236524955        0.1021728089
  O        -4.4349189383        2.9430661934        0.2107019798
  H        -4.8877894358        3.4841913966        0.9466764756
  H        -4.3502335372        2.1057255096        0.6138695914
  O         5.6447304283        0.0313230168       -6.8624134398
  H         5.9794466774        1.0211185566       -6.7726802174
  H         4.8030844879        0.1308260819       -7.3706234127
  O         4.2741169987       -3.2370413721       -0.8836542796
  H         5.0676142688       -2.6043335971       -0.9467659475
  H         3.5558989870       -2.8853082802       -1.5629644483
  O         2.2631594191        2.0940542473       -1.0137764404
  H         2.8519424334        2.8013859633       -0.7240149496
  H         1.6699166979        2.5662897183       -1.6814726336
  O        -0.9765636518       -1.2300761242        2.8640379182
  H        -1.0884542365       -2.1631127844        2.8720290408
  H        -1.8022303342       -0.8143736234        3.1319413161
  O         2.4691410198       -7.6850364885        2.0278535014
  H         3.0530094645       -7.5565380985        1.3401940465
  H         2.7863810932       -7.1211857418        2.7911913711
  O         2.1525380356       -2.6574912763       -2.3500011401
  H         2.3565477864       -3.1436298385       -3.1345716067
  H         2.3282379447       -1.7022352606       -2.5361200264
  O        -5.7838801669        3.9240669297        2.4360931046
  H        -6.3162946975        3.1492902775        2.6402318592
  H        -6.2594355288        4.6771172098        2.7598119185
  O         1.9854704324       -4.0717166779       -7.1556342458
  H         1.1175092034       -4.3903360704       -7.3397540707
  H         2.4071873170       -3.5487814656       -7.8514621253
  O         0.4407554199        3.2014221050       -2.8484937359
  H         0.1263701651        2.9938206050       -3.7507065623
  H        -0.1091134595        3.8725916551       -2.4402739138
  O        -2.9419645040       -6.2483045820        2.2090587932
  H        -2.8848138690       -5.2843750204        2.3670510714
  H        -2.0296463321       -6.5722134971        2.0356349900
  O         3.1466643588        6.0774995304        4.4097468487
  H         2.7679005935        6.8358824578        4.8595740713
  H         2.9935293045        5.2553969264        4.8989364710
  O        -2.9616184948        2.0318988120       -5.6050495139
  H        -2.8434656364        1.1437793671       -5.2572933881
  H        -3.2951301076        2.4592966421       -4.7494683587
  O         2.7157901499        2.1802975741        2.9985700410
  H         2.7330291462        3.1053051816        2.7168995776
  H         2.2852772633        1.7206343206        2.2009019067
  O        -6.9187734113        1.4555676522        2.8324597151
  H        -7.7930286065        1.5314469728        2.4520384107
  H        -6.4472189048        0.6628201565        2.4343561259
  O         0.1365179376        1.3351255264        3.9681293033
  H         1.0533672669        1.5472948806        3.7615655434
  H         0.0233324074        0.3663610963        3.9443143289
  O        -1.8737055411        3.7437167192        0.0871895248
  H        -1.7712900215        3.3768227517        0.9789403711
  H        -2.8382836402        3.6845146821       -0.0560490480
  O        -0.3573973460       -1.8804228534       -4.3017056627
  H         0.1915472733       -1.9938911776       -3.5071347255
  H         0.2811028549       -1.3103450633       -4.8774793898
  O        -6.9147645114        1.9146290068       -3.4964278211
  H        -6.0251686686        2.3090658252       -3.5411775253
  H        -6.9311370316        1.1951240645       -4.1646467512
  O         6.3820569644       -1.4154323922       -1.0139808202
  H         6.6865047593       -1.3522419445       -1.9756331508
  H         6.0218817841       -0.5685046146       -0.7061248496
  O        -2.3907910856        1.1817540677       -1.4236636664
  H        -1.8545663192        1.9098990761       -1.1754421116
  H        -2.2511373861        0.4859607924       -0.7633115555
  O        -0.1924177123        5.3499452602       -1.3818798102
  H        -0.8081417542        5.9257167410       -1.8606506486
  H        -0.7750590768        4.7933631195       -0.8120068545
  O         7.6520061307       -1.6934651509        5.1636779476
  H         7.9841978994       -2.2029390293        5.9518091362
  H         6.8090613533       -1.3041982084        5.3734891407
  O        -2.2541652759       -5.9515415284       -3.0114135570
  H        -2.7151695497       -6.4150636694       -3.7095204821
  H        -2.7682586834       -5.1967851374       -2.6219864360
  O        -4.8817992987       -1.6897295098       -3.4790717605
  H        -4.8387676888       -2.3401191648       -4.2263724267
  H        -3.9968246779       -1.1626439696       -3.5535765150
  O         3.1047040416        4.9721405861       -0.6992399390
  H         2.1745670298        5.1440625189       -0.8185909202
  H         3.4401642934        4.8532601724       -1.6650341155
  O        -3.8477033413       -3.4081077481       -5.4478190192
  H        -2.9401582909       -3.6896359366       -5.2689462940
  H        -4.4468783527       -4.1817950124       -5.4197605161
  O        -0.0269592781        5.1778975654        3.3059978367
  H        -0.5869139707        4.4111185641        3.0451851267
  H         0.7117101919        5.1326026724        2.6490950349
  O        -1.3998368574       -4.2880122534       -5.2270931649
  H        -1.6173762963       -4.8963366195       -4.4782110998
  H        -0.8019865575       -3.6335599397       -4.7960584344
  O        -5.9236172691       -1.1561375500        1.9419970898
  H        -5.7551654143       -1.3809111355        0.9982551842
  H        -6.1355927368       -2.0105100472        2.3411830226
  O         2.1009888778        5.3138849137       -4.5170208425
  H         2.6220189941        4.8732625057       -3.8435802847
  H         1.2387734469        4.9424143197       -4.3004945962
  O         2.7992449653        0.1934754504       -3.1066078447
  H         2.8570514524        0.9916706387       -2.4665164223
  H         3.6706806527        0.1482217662       -3.6355125491
  O        -2.4206044830        5.0753989557        7.0542572066
  H        -1.7027560295        4.5008468316        6.8092414718
  H        -3.0019020230        4.9503558504        6.2615520274
  O         1.1959576461       -4.3962038506        0.3856578419
  H         1.7671684981       -5.1904921883        0.2522573281
  H         0.9838497518       -3.8956403302       -0.4443018125
  O         7.0822991934        6.7411510594        7.4806235081
  H         6.2632552043        6.9697911178        7.9511296070
  H         6.6992420067        5.9491911969        7.0554256676
  O        -0.4562436849       -5.0086737633        4.8502774359
  H        -0.5284722862       -5.9546730392        4.5811620479
  H        -0.9731686686       -4.9244480948        5.6536254144
  O        -3.7218509503       -3.9736138684       -1.9230662644
  H        -4.1628392557       -4.3116282573       -1.1381201152
  H        -4.0640669727       -3.0861922304       -2.1661703640
