 DBCSR| CPU Multiplication driver                                           XSMM (U)
 DBCSR| Multrec recursion limit                                              512 (U)
 DBCSR| Multiplication stack size                                           1000 (D)
 DBCSR| Maximum elements for images                                    UNLIMITED (U)
 DBCSR| Multiplicative factor virtual images                                   1 (U)
 DBCSR| Use multiplication densification                                       T (D)
 DBCSR| Multiplication size stacks                                             3 (U)
 DBCSR| Use memory pool for CPU allocation                                     F (U)
 DBCSR| OMP: Current number of threads                                         1
 DBCSR| OMP: Max number of threads                                             1
 DBCSR| Split modifier for TAS multiplication algorithm                  1.0E+00 (U)


  **** **** ******  **  PROGRAM STARTED AT               2023-02-01 10:47:55.593
 ***** ** ***  *** **   PROGRAM STARTED ON                                moritz
 **    ****   ******    PROGRAM STARTED BY                                   ole
 ***** **    ** ** **   PROGRAM PROCESS ID                                148813
  **** **  *******  **  PROGRAM STARTED IN /home/ole/git/pao_ml_equivar/2H2O_MD/
                                           frame_1800

 CP2K| version string:                 CP2K version 2023.1 (Development Version)
 CP2K| source code revision number:                                  git:03b4147
 CP2K| cp2kflags: omp libint fftw3 libxc quip xsmm spglib libvori libbqb libtorc
 CP2K|            h
 CP2K| is freely available from                            https://www.cp2k.org/
 CP2K| Program compiled at                           Mi 01 Feb 2023 10:36:52 CET
 CP2K| Program compiled on                                                moritz
 CP2K| Program compiled for                                                local
 CP2K| Data directory path                               /home/ole/git/cp2k/data
 CP2K| Input file name                                            2H2O_pao44.inp

 GLOBAL| Force Environment number                                              1
 GLOBAL| Basis set file name                                        BASIS_MOLOPT
 GLOBAL| Potential file name                                      GTH_POTENTIALS
 GLOBAL| MM Potential file name                                     MM_POTENTIAL
 GLOBAL| Coordinate file name                                         coords.xyz
 GLOBAL| Method name                                                        CP2K
 GLOBAL| Project name                                                 2H2O_pao44
 GLOBAL| Run type                                                         ENERGY
 GLOBAL| FFT library                                                       FFTW3
 GLOBAL| Diagonalization library                                       ScaLAPACK
 GLOBAL| DGEMM library                                                      BLAS
 GLOBAL| Orthonormality check for eigenvectors                          DISABLED
 GLOBAL| Matrix multiplication library                                 ScaLAPACK
 GLOBAL| All-to-all communication in single precision                          F
 GLOBAL| FFTs using library dependent lengths                                  F
 GLOBAL| Grid backend                                                       AUTO
 GLOBAL| Global print level                                                  LOW
 GLOBAL| MPI I/O enabled                                                       T
 GLOBAL| Total number of message passing processes                             1
 GLOBAL| Number of threads for this process                                    1
 GLOBAL| This output is from process                                           0
 GLOBAL| Stack size for threads created by OpenMP (OMP_STACKSIZE)        default
 GLOBAL| CPU model name           AMD Ryzen Threadripper 3970X 32-Core Processor
 GLOBAL| CPUID                                                              1002
 GLOBAL| Compiled for CPUID                                                    0

 *** HINT in environment.F:884 :: The compiler target flags (generic) used ***
 *** to build this binary cannot exploit all extensions of this CPU model  ***
 *** (x86_avx2). Consider compiler target flags as part of FCFLAGS and     ***
 *** CFLAGS (ARCH file).                                                   ***


 MEMORY| system memory details [Kb]
 MEMORY|                        rank 0           min           max       average
 MEMORY| MemTotal            131773860     131773860     131773860     131773860
 MEMORY| MemFree             108981204     108981204     108981204     108981204
 MEMORY| Buffers                302624        302624        302624        302624
 MEMORY| Cached                7056692       7056692       7056692       7056692
 MEMORY| Slab                   780284        780284        780284        780284
 MEMORY| SReclaimable           332712        332712        332712        332712
 MEMORY| MemLikelyFree       116673232     116673232     116673232     116673232


 GENERATE|  Preliminary Number of Bonds generated:                             0
 GENERATE|  Achieved consistency in connectivity generation.

 *******************************************************************************
 *******************************************************************************
 **                                                                           **
 **     #####                         ##              ##                      **
 **    ##   ##            ##          ##              ##                      **
 **   ##     ##                       ##            ######                    **
 **   ##     ##  ##   ##  ##   #####  ##  ##   ####   ##    #####    #####    **
 **   ##     ##  ##   ##  ##  ##      ## ##   ##      ##   ##   ##  ##   ##   **
 **   ##  ## ##  ##   ##  ##  ##      ####     ###    ##   ######   ######    **
 **    ##  ###   ##   ##  ##  ##      ## ##      ##   ##   ##       ##        **
 **     #######   #####   ##   #####  ##  ##  ####    ##    #####   ##        **
 **           ##                                                    ##        **
 **                                                                           **
 **                                                ... make the atoms dance   **
 **                                                                           **
 **            Copyright (C) by CP2K developers group (2000-2023)             **
 **                      J. Chem. Phys. 152, 194103 (2020)                    **
 **                                                                           **
 *******************************************************************************


 TOTAL NUMBERS AND MAXIMUM NUMBERS

  Total number of            - Atomic kinds:                                   2
                             - Atoms:                                          6
                             - Shell sets:                                     6
                             - Shells:                                        22
                             - Primitive Cartesian functions:                 42
                             - Cartesian basis functions:                     48
                             - Spherical basis functions:                     46

  Maximum angular momentum of- Orbital basis functions:                        2
                             - Local part of the GTH pseudopotential:          2
                             - Non-local part of the GTH pseudopotential:      0

 ------------------------------ Linear scaling SCF -----------------------------
 eps_scf:                                                              0.100E-07
 eps_filter:                                                           0.100E-07
 mixing_fraction:                                                      0.450E+00
 max_scf:                                                                     25
 fixed chemical potential (mu)                                                 F
 has unit metric:                                                              F
 Computing inv(S):                                                             T
 Computing sqrt(S):                                                            T
 Computing S preconditioner                                                    F
 S sqrt method:                                                     NEWTONSCHULZ
 S sqrt order:                                                                 3
 Extrapolation order:                                                          1
 Use single precision matrices                                                 F
 S preconditioner type                                                      NONE
 Polarized Atomic Orbitals (PAO)                                               T
 Purification method                                   Trace resetting 4th order
 Cluster type                                                             ATOMIC
 Computing Chebyshev                                                       FALSE
 Using PAO                                                                     T
 -------------------------------------------------------------------------------

 
 PAO|                                  EPS_PAO                           0.5E-06
 PAO|                                  MIXING                            0.5E+00
 PAO|                                  MAX_PAO                              1500
 PAO|                                  MAX_CYCLES                           1000
 PAO|                                  PARAMETERIZATION              EQUIVARIANT
 PAO|                                  PRECONDITION                            F
 PAO|                                  REGULARIZATION                    0.0E+00
 PAO|                                  EPS_PGF                           0.1E-09
 PAO|                                  PENALTY_DISTANCE                  0.1E+00
 PAO|                                  PENALTY_STRENGTH                  0.5E-02
 PAO|                                  LINPOT_PRECONDITION_DELTA         0.0E+00
 PAO|                                  LINPOT_INITGUESS_DELT             0.0E+00
 PAO|                                  LINPOT_REGULARIZATION_DELTA       0.0E+00
 PAO|                                  LINPOT_REGULARIZATION_STRENGTH    0.0E+00
 PAO|                                  OPTIMIZER                              CG
 PAO|                                  CG_INIT_STEPS                           2
 PAO|                                  CG_RESET_LIMIT                    0.1E+00
 PAO|                                  CHECK_UNITARY_TOL                -0.1E+01
 PAO|                                  CHECK_GRADIENT_TOL               -0.1E+01
 PAO|                                  NUM_GRADIENT_ORDER                      2
 PAO|                                  NUM_GRADIENT_EPS                  0.1E-07
 PAO|                                  PRINT%RESTART%WRITE_CYCLES            100
 PAO|                                  RESTART_FILE 
 PAO|                                  PREOPT_DM_FILE 2H2O_ref_LS_DM_SPIN_1_RESTART.dm
 PAO|                                  MACHINE_LEARNING%METHOD       GAUSSIAN_PR
 PAO|                                  MACHINE_LEARNING%PRIOR               ZERO
 PAO|                                  MACHINE_LEARNING%DESCRIPTOR     POTENTIAL
 PAO|                                  MACHINE_LEARNING%TOLERANCE        0.1E-01
 PAO|                                  MACHINE_LEARNING%GP_NOISE_VAR     0.1E+00
 PAO|                                  MACHINE_LEARNING%GP_SCALE         0.5E-01
 

 Calculating atomic Fock matrix for atomic kind: O

 Electronic structure
    Total number of core electrons                                          2.00
    Total number of valence electrons                                       6.00
    Total number of electrons                                               8.00
    Multiplicity                                                   not specified
    S   [  2.00] 2.00
    P      4.00


 *******************************************************************************
                  Iteration          Convergence                     Energy [au]
 *******************************************************************************
                          1        0.708315                     -15.576645311500
                          2        0.608879                     -15.587933561584
                          3        0.102828E-01                 -15.656849565404
                          4        0.113889E-02                 -15.656866888140
                          5        0.434197E-03                 -15.656867072159
                          6        0.263771E-03                 -15.656867091904
                          7        0.478536E-06                 -15.656867103452

 Energy components [Hartree]           Total Energy ::          -15.656867103452
                                        Band Energy ::           -3.000198112285
                                     Kinetic Energy ::           11.759971203220
                                   Potential Energy ::          -27.416838306672
                                      Virial (-V/T) ::            2.331369510426
                                        Core Energy ::          -26.140716385623
                                          XC Energy ::           -3.154051012914
                                     Coulomb Energy ::           13.637900295084
                       Total Pseudopotential Energy ::          -37.935781716540
                       Local Pseudopotential Energy ::          -39.218907440693
                    Nonlocal Pseudopotential Energy ::            1.283125724153
                                        Confinement ::            0.350941276976

 Orbital energies  State     L     Occupation   Energy[a.u.]          Energy[eV]

                       1     0          2.000      -0.864471          -23.523463

                       1     1          4.000      -0.317814           -8.648154


 Total Electron Density at R=0:                                         0.000068

 Calculating atomic Fock matrix for atomic kind: H

 Electronic structure
    Total number of core electrons                                          0.00
    Total number of valence electrons                                       1.00
    Total number of electrons                                               1.00
    Multiplicity                                                   not specified
    S      1.00


 *******************************************************************************
                  Iteration          Convergence                     Energy [au]
 *******************************************************************************
                          1        0.437545E-02                  -0.424159432110
                          2        0.531356E-03                  -0.424178438213
                          3        0.259176E-06                  -0.424178722480

 Energy components [Hartree]           Total Energy ::           -0.424178722480
                                        Band Energy ::           -0.199015229016
                                     Kinetic Energy ::            0.464007633961
                                   Potential Energy ::           -0.888186356441
                                      Virial (-V/T) ::            1.914163240935
                                        Core Energy ::           -0.479160803564
                                          XC Energy ::           -0.244352904054
                                     Coulomb Energy ::            0.299334985138
                       Total Pseudopotential Energy ::           -0.962295316385
                       Local Pseudopotential Energy ::           -0.962295316385
                    Nonlocal Pseudopotential Energy ::            0.000000000000
                                        Confinement ::            0.191268788606

 Orbital energies  State     L     Occupation   Energy[a.u.]          Energy[eV]

                       1     0          1.000      -0.199015           -5.415480


 Total Electron Density at R=0:                                         0.242907
 PAO| Made initial guess for matrix_X with norm:   4.8989794855663558     

     Lanczos converged:  T threshold:   0.100E-02
     Est. extremal eigenvalues:    0.325E+01   0.114E+00
     Est. condition number :    0.285E+02

 Order=           3
     NS sqrt iter    1 1.00000000   0.792E+00       0.001       62.800
     NS sqrt iter    2 1.00000000   0.418E+00       0.001      110.512
     NS sqrt iter    3 1.00000000   0.158E+00       0.001      110.592
     NS sqrt iter    4 1.00000000   0.174E-01       0.001      110.040
     NS sqrt iter    5 1.00000000   0.371E-04       0.001       84.438
     Symmetrizing Results
     Final NS sqrt iter    5 1.00000000   0.220E-08

 PAO| Read restart DM 2H2O_ref_LS_DM_SPIN_1_RESTART.dm with checksum:    52.984598090345095     
 PAO| Quickstep energy from restart density:  -34.447352320512856     
 PAO| ======================= Iteration:         1 =============================

     Lanczos converged:  T threshold:   0.100E-02
     Est. extremal eigenvalues:    0.325E+01   0.114E+00
     Est. condition number :    0.285E+02

 Order=           3
     NS sqrt iter    1 1.00000000   0.792E+00       0.017        3.756
     NS sqrt iter    2 1.00000000   0.418E+00       0.001       98.879
     NS sqrt iter    3 1.00000000   0.158E+00       0.001       98.480
     NS sqrt iter    4 1.00000000   0.174E-01       0.001       98.884
     NS sqrt iter    5 1.00000000   0.371E-04       0.001       79.213
     Symmetrizing Results
     Final NS sqrt iter    5 1.00000000   0.220E-08

     Est. extremal eigenvalues     -0.90992     1.86412  converged:  T
     TRS4 it   1 1.00000000   0.896E+00       0.000       16.128   0.100E-07
     TRS4 it   2 1.00000000   0.697E+00       0.001       32.256   0.100E-07
     TRS4 it   3 1.00000000   0.504E+00       0.001       32.256   0.100E-07
     TRS4 it   4 1.00000000   0.321E+00       0.001       32.256   0.100E-07
     TRS4 it   5 1.00000000   0.163E+00       0.001       32.256   0.100E-07
     TRS4 it   6 1.00000000   0.521E-01       0.001       32.256   0.100E-07
     TRS4 it   7 1.00000000   0.702E-02       0.001       32.256   0.100E-07
     TRS4 it   8 1.00000000   0.173E-03       0.001       32.256   0.100E-07
     TRS4 it   9 1.00000000   0.127E-06       0.001       32.256   0.100E-07
     TRS4 it  10 1.00000000   0.738E-13       0.001       32.256   0.100E-07
     Final TRS4 iteration   10 1.00000000   0.738E-13
     Chemical potential (mu):      -0.06713
 
 PAO| energy:  -7.5438031892423369      penalty:   4.4989723500885835E-033
 PAO|CG| warming up with steepest descent
 PAO|CG| beta:    0.0000000000000000     
 PAO| norm of gradient:  0.78158594704673146     
 PAO|LS| adapt:  T F F
 PAO|LS| adapt: scan_steps:    0.0000000000000000        0.0000000000000000        0.0000000000000000     
 PAO|LS| adapt: energies:   -7.5438031892423369        0.0000000000000000        0.0000000000000000     
 PAO| ======================= Iteration:         2 =============================

     Lanczos converged:  T threshold:   0.100E-02
     Est. extremal eigenvalues:    0.317E+01   0.127E+00
     Est. condition number :    0.251E+02

 Order=           3
     NS sqrt iter    1 1.00000000   0.777E+00       0.001       57.550
     NS sqrt iter    2 1.00000000   0.404E+00       0.001       97.757
     NS sqrt iter    3 1.00000000   0.141E+00       0.001       96.960
     NS sqrt iter    4 1.00000000   0.120E-01       0.001       96.533
     NS sqrt iter    5 1.00000000   0.125E-04       0.001       77.107
     Symmetrizing Results
     Final NS sqrt iter    5 1.00000000   0.254E-09

     Est. extremal eigenvalues     -0.91358     1.81411  converged:  T
     TRS4 it   1 1.00000000   0.894E+00       0.000       16.128   0.100E-07
     TRS4 it   2 1.00000000   0.679E+00       0.001       32.256   0.100E-07
     TRS4 it   3 1.00000000   0.488E+00       0.001       32.256   0.100E-07
     TRS4 it   4 1.00000000   0.301E+00       0.001       32.256   0.100E-07
     TRS4 it   5 1.00000000   0.144E+00       0.001       32.256   0.100E-07
     TRS4 it   6 1.00000000   0.405E-01       0.001       32.256   0.100E-07
     TRS4 it   7 1.00000000   0.428E-02       0.001       32.256   0.100E-07
     TRS4 it   8 1.00000000   0.644E-04       0.001       32.256   0.100E-07
     TRS4 it   9 1.00000000   0.177E-07       0.001       32.256   0.100E-07
     Final TRS4 iteration    9 1.00000000   0.177E-07
     Chemical potential (mu):      -0.05552
 
 PAO| energy:  -7.5989396341853217      penalty:   2.2376979656121984E-008
 PAO|LS| adapt:  T T F
 PAO|LS| adapt: scan_steps:    0.0000000000000000       0.10000000000000001        0.0000000000000000     
 PAO|LS| adapt: energies:   -7.5438031892423369       -7.5989396341853217        0.0000000000000000     
 PAO| ======================= Iteration:         3 =============================

     Lanczos converged:  T threshold:   0.100E-02
     Est. extremal eigenvalues:    0.309E+01   0.138E+00
     Est. condition number :    0.224E+02

 Order=           3
     NS sqrt iter    1 1.00000000   0.761E+00       0.001       57.286
     NS sqrt iter    2 1.00000000   0.388E+00       0.001       98.197
     NS sqrt iter    3 1.00000000   0.125E+00       0.001       96.028
     NS sqrt iter    4 1.00000000   0.823E-02       0.001      100.382
     NS sqrt iter    5 1.00000000   0.438E-05       0.001       75.520
     Symmetrizing Results
     Final NS sqrt iter    5 1.00000000   0.324E-10

     Est. extremal eigenvalues     -0.91697     1.77417  converged:  T
     TRS4 it   1 1.00000000   0.893E+00       0.000       16.128   0.100E-07
     TRS4 it   2 1.00000000   0.663E+00       0.001       32.256   0.100E-07
     TRS4 it   3 1.00000000   0.473E+00       0.001       32.256   0.100E-07
     TRS4 it   4 1.00000000   0.282E+00       0.001       32.256   0.100E-07
     TRS4 it   5 1.00000000   0.125E+00       0.001       32.256   0.100E-07
     TRS4 it   6 1.00000000   0.306E-01       0.001       32.256   0.100E-07
     TRS4 it   7 1.00000000   0.243E-02       0.001       32.256   0.100E-07
     TRS4 it   8 1.00000000   0.206E-04       0.001       32.256   0.100E-07
     TRS4 it   9 1.00000000   0.181E-08       0.001       32.256   0.100E-07
     Final TRS4 iteration    9 1.00000000   0.181E-08
     Chemical potential (mu):      -0.04272
 
 PAO| energy:  -7.6415196382653967      penalty:   3.5803168642260127E-007
 PAO|LS| adapt:  T T F
 PAO|LS| adapt: scan_steps:    0.0000000000000000       0.20000000000000001        0.0000000000000000     
 PAO|LS| adapt: energies:   -7.5438031892423369       -7.6415196382653967        0.0000000000000000     
 PAO| ======================= Iteration:         4 =============================

     Lanczos converged:  T threshold:   0.100E-02
     Est. extremal eigenvalues:    0.291E+01   0.156E+00
     Est. condition number :    0.186E+02

 Order=           3
     NS sqrt iter    1 1.00000000   0.727E+00       0.001       57.005
     NS sqrt iter    2 1.00000000   0.355E+00       0.001       97.744
     NS sqrt iter    3 1.00000000   0.968E-01       0.001       96.937
     NS sqrt iter    4 1.00000000   0.403E-02       0.017        6.432
     NS sqrt iter    5 1.00000000   0.626E-06       0.001       74.376
     Symmetrizing Results
     Final NS sqrt iter    5 1.00000000   0.145E-09

     Est. extremal eigenvalues     -0.92214     1.71635  converged:  T
     TRS4 it   1 1.00000000   0.891E+00       0.000       16.128   0.100E-07
     TRS4 it   2 1.00000000   0.638E+00       0.001       32.256   0.100E-07
     TRS4 it   3 1.00000000   0.445E+00       0.001       32.256   0.100E-07
     TRS4 it   4 1.00000000   0.245E+00       0.001       32.256   0.100E-07
     TRS4 it   5 1.00000000   0.925E-01       0.001       32.256   0.100E-07
     TRS4 it   6 1.00000000   0.162E-01       0.001       32.256   0.100E-07
     TRS4 it   7 1.00000000   0.649E-03       0.001       32.256   0.100E-07
     TRS4 it   8 1.00000000   0.141E-05       0.001       32.256   0.100E-07
     TRS4 it   9 1.00000000   0.839E-11       0.001       32.256   0.100E-07
     Final TRS4 iteration    9 1.00000000   0.839E-11
     Chemical potential (mu):      -0.01471
 
 PAO| energy:  -7.6874594209026430      penalty:   5.7285070781588711E-006
 PAO|LS| Need extra step
 PAO|LS| adapt:  T T F
 PAO|LS| adapt: scan_steps:    0.0000000000000000       0.40000000000000002        0.0000000000000000     
 PAO|LS| adapt: energies:   -7.5438031892423369       -7.6874594209026430        0.0000000000000000     
 PAO| ======================= Iteration:         5 =============================

     Lanczos converged:  T threshold:   0.100E-02
     Est. extremal eigenvalues:    0.257E+01   0.185E+00
     Est. condition number :    0.139E+02

 Order=           3
     NS sqrt iter    1 1.00000000   0.667E+00       0.001       57.755
     NS sqrt iter    2 1.00000000   0.296E+00       0.001       98.963
     NS sqrt iter    3 1.00000000   0.591E-01       0.017        6.423
     NS sqrt iter    4 1.00000000   0.110E-02       0.001       97.357
     NS sqrt iter    5 1.00000000   0.145E-07       0.001       44.930
     Symmetrizing Results
     Final NS sqrt iter    5 1.00000000   0.479E-08

     Est. extremal eigenvalues     -0.92284     1.65109  converged:  T
     TRS4 it   1 1.00000000   0.890E+00       0.000       16.128   0.100E-07
     TRS4 it   2 1.00000000   0.602E+00       0.001       32.256   0.100E-07
     TRS4 it   3 1.00000000   0.398E+00       0.001       32.256   0.100E-07
     TRS4 it   4 1.00000000   0.187E+00       0.001       32.256   0.100E-07
     TRS4 it   5 1.00000000   0.504E-01       0.001       32.256   0.100E-07
     TRS4 it   6 1.00000000   0.435E-02       0.001       32.256   0.100E-07
     TRS4 it   7 1.00000000   0.410E-04       0.001       32.256   0.100E-07
     TRS4 it   8 1.00000000   0.500E-08       0.001       32.256   0.100E-07
     Final TRS4 iteration    8 1.00000000   0.500E-08
     Chemical potential (mu):       0.03137
 
 PAO| energy:  -7.6293626225374984      penalty:   9.1656114013718312E-005
 PAO|LS| Need extra step
 PAO|LS| adapt:  T T T
 PAO|LS| adapt: scan_steps:    0.0000000000000000       0.40000000000000002       0.80000000000000004     
 PAO|LS| adapt: energies:   -7.5438031892423369       -7.6874594209026430       -7.6293626225374984     
 PAO|LS| adapt: suggested step_size:   0.48481600824965893     
 PAO|LS| adapt: predicted energy  -7.6919949269027672     
 PAO| ======================= Iteration:         6 =============================

     Lanczos converged:  T threshold:   0.100E-02
     Est. extremal eigenvalues:    0.283E+01   0.163E+00
     Est. condition number :    0.174E+02

 Order=           3
     NS sqrt iter    1 1.00000000   0.713E+00       0.001       57.766
     NS sqrt iter    2 1.00000000   0.341E+00       0.017        6.425
     NS sqrt iter    3 1.00000000   0.868E-01       0.001       98.672
     NS sqrt iter    4 1.00000000   0.302E-02       0.001       98.762
     NS sqrt iter    5 1.00000000   0.282E-06       0.001       74.461
     Symmetrizing Results
     Final NS sqrt iter    5 1.00000000   0.566E-09

     Est. extremal eigenvalues     -0.92345     1.69819  converged:  T
     TRS4 it   1 1.00000000   0.891E+00       0.000       16.128   0.100E-07
     TRS4 it   2 1.00000000   0.629E+00       0.001       32.256   0.100E-07
     TRS4 it   3 1.00000000   0.434E+00       0.001       32.256   0.100E-07
     TRS4 it   4 1.00000000   0.231E+00       0.001       32.256   0.100E-07
     TRS4 it   5 1.00000000   0.811E-01       0.001       32.256   0.100E-07
     TRS4 it   6 1.00000000   0.122E-01       0.001       32.256   0.100E-07
     TRS4 it   7 1.00000000   0.353E-03       0.001       32.256   0.100E-07
     TRS4 it   8 1.00000000   0.403E-06       0.001       32.256   0.100E-07
     TRS4 it   9 1.00000000   0.665E-12       0.001       32.256   0.100E-07
     Final TRS4 iteration    9 1.00000000   0.665E-12
     Chemical potential (mu):      -0.00236
 
 PAO| energy:  -7.6912766309691198      penalty:   1.2362585148189258E-005
 PAO|CG| warming up with steepest descent
 PAO|CG| beta:    0.0000000000000000     
 PAO| norm of gradient:  0.40760220474970510     
 PAO| energy improvement: -0.14747344172678289     
 PAO| step      6                   -7.691276631  0.255E-01  0.485E+00     0.190
 PAO|LS| adapt:  T F F
 PAO|LS| adapt: scan_steps:    0.0000000000000000        0.0000000000000000        0.0000000000000000     
 PAO|LS| adapt: energies:   -7.6912766309691198        0.0000000000000000        0.0000000000000000     
 PAO| ======================= Iteration:         7 =============================

     Lanczos converged:  T threshold:   0.100E-02
     Est. extremal eigenvalues:    0.275E+01   0.177E+00
     Est. condition number :    0.155E+02

 Order=           3
     NS sqrt iter    1 1.00000000   0.696E+00       0.001       59.186
     NS sqrt iter    2 1.00000000   0.321E+00       0.001       96.676
     NS sqrt iter    3 1.00000000   0.723E-01       0.001       98.700
     NS sqrt iter    4 1.00000000   0.183E-02       0.001       98.009
     NS sqrt iter    5 1.00000000   0.685E-07       0.001       65.680
     Symmetrizing Results
     Final NS sqrt iter    5 1.00000000   0.758E-09

     Est. extremal eigenvalues     -0.92516     1.68980  converged:  T
     TRS4 it   1 1.00000000   0.891E+00       0.000       16.128   0.100E-07
     TRS4 it   2 1.00000000   0.628E+00       0.017        1.928   0.100E-07
     TRS4 it   3 1.00000000   0.435E+00       0.001       32.256   0.100E-07
     TRS4 it   4 1.00000000   0.233E+00       0.001       32.256   0.100E-07
     TRS4 it   5 1.00000000   0.822E-01       0.001       32.256   0.100E-07
     TRS4 it   6 1.00000000   0.123E-01       0.001       32.256   0.100E-07
     TRS4 it   7 1.00000000   0.349E-03       0.001       32.256   0.100E-07
     TRS4 it   8 1.00000000   0.371E-06       0.001       32.256   0.100E-07
     TRS4 it   9 1.00000000   0.528E-12       0.001       32.256   0.100E-07
     Final TRS4 iteration    9 1.00000000   0.528E-12
     Chemical potential (mu):      -0.00123
 
 PAO| energy:  -7.6877417224867850      penalty:   1.8176698646753880E-005
 PAO|LS| adapt:  T F T
 PAO|LS| adapt: scan_steps:    0.0000000000000000        0.0000000000000000       0.48481600824965893     
 PAO|LS| adapt: energies:   -7.6912766309691198        0.0000000000000000       -7.6877417224867850     
 PAO| ======================= Iteration:         8 =============================

     Lanczos converged:  T threshold:   0.100E-02
     Est. extremal eigenvalues:    0.279E+01   0.170E+00
     Est. condition number :    0.164E+02

 Order=           3
     NS sqrt iter    1 1.00000000   0.704E+00       0.001       57.417
     NS sqrt iter    2 1.00000000   0.331E+00       0.001       98.028
     NS sqrt iter    3 1.00000000   0.794E-01       0.001       99.655
     NS sqrt iter    4 1.00000000   0.237E-02       0.001       97.489
     NS sqrt iter    5 1.00000000   0.142E-06       0.001       70.666
     Symmetrizing Results
     Final NS sqrt iter    5 1.00000000   0.102E-08

     Est. extremal eigenvalues     -0.92529     1.69358  converged:  T
     TRS4 it   1 1.00000000   0.891E+00       0.000       16.128   0.100E-07
     TRS4 it   2 1.00000000   0.628E+00       0.001       32.256   0.100E-07
     TRS4 it   3 1.00000000   0.434E+00       0.001       32.256   0.100E-07
     TRS4 it   4 1.00000000   0.231E+00       0.001       32.256   0.100E-07
     TRS4 it   5 1.00000000   0.816E-01       0.001       32.256   0.100E-07
     TRS4 it   6 1.00000000   0.124E-01       0.001       32.256   0.100E-07
     TRS4 it   7 1.00000000   0.362E-03       0.001       32.256   0.100E-07
     TRS4 it   8 1.00000000   0.413E-06       0.001       32.256   0.100E-07
     TRS4 it   9 1.00000000   0.680E-12       0.001       32.256   0.100E-07
     Final TRS4 iteration    9 1.00000000   0.680E-12
     Chemical potential (mu):      -0.00225
 
 PAO| energy:  -7.7103129614063226      penalty:   1.3319381091521710E-005
 PAO|LS| adapt:  T T T
 PAO|LS| adapt: scan_steps:    0.0000000000000000       0.24240800412482946       0.48481600824965893     
 PAO|LS| adapt: energies:   -7.6912766309691198       -7.7103129614063226       -7.6877417224867850     
 PAO|LS| adapt: suggested step_size:   0.23211071779911546     
 PAO|LS| adapt: predicted energy  -7.7103505013845393     
 PAO| ======================= Iteration:         9 =============================

     Lanczos converged:  T threshold:   0.100E-02
     Est. extremal eigenvalues:    0.279E+01   0.169E+00
     Est. condition number :    0.165E+02

 Order=           3
     NS sqrt iter    1 1.00000000   0.705E+00       0.001       57.597
     NS sqrt iter    2 1.00000000   0.332E+00       0.001       96.145
     NS sqrt iter    3 1.00000000   0.797E-01       0.001       97.788
     NS sqrt iter    4 1.00000000   0.239E-02       0.001       99.819
     NS sqrt iter    5 1.00000000   0.147E-06       0.001       70.626
     Symmetrizing Results
     Final NS sqrt iter    5 1.00000000   0.105E-08

     Est. extremal eigenvalues     -0.92525     1.69376  converged:  T
     TRS4 it   1 1.00000000   0.891E+00       0.000       16.128   0.100E-07
     TRS4 it   2 1.00000000   0.628E+00       0.001       32.256   0.100E-07
     TRS4 it   3 1.00000000   0.434E+00       0.001       32.256   0.100E-07
     TRS4 it   4 1.00000000   0.231E+00       0.001       32.256   0.100E-07
     TRS4 it   5 1.00000000   0.815E-01       0.001       32.256   0.100E-07
     TRS4 it   6 1.00000000   0.124E-01       0.001       32.256   0.100E-07
     TRS4 it   7 1.00000000   0.362E-03       0.001       32.256   0.100E-07
     TRS4 it   8 1.00000000   0.414E-06       0.001       32.256   0.100E-07
     TRS4 it   9 1.00000000   0.684E-12       0.001       32.256   0.100E-07
     Final TRS4 iteration    9 1.00000000   0.684E-12
     Chemical potential (mu):      -0.00227
 
 PAO| energy:  -7.7103645982730677      penalty:   1.3220501516700441E-005
 PAO|CG| trace_G_new    3.6280919254207199E-002
 PAO|CG| trace_G_prev   0.16613955731682054     
 PAO|CG| trace_G_mix   -1.3439787933792039E-003
 PAO|CG| trace_D   0.16613955731682054     
 PAO|CG| trace_D_Gnew   1.3439787933792039E-003
 PAO|CG| beta:   0.22646562116352245     
 PAO| norm of gradient:  0.19047550827916748     
 PAO| energy improvement:  -1.9087967303947906E-002
 PAO| step      9                   -7.710364598  0.119E-01  0.232E+00     0.107
 PAO|LS| adapt:  T F F
 PAO|LS| adapt: scan_steps:    0.0000000000000000        0.0000000000000000        0.0000000000000000     
 PAO|LS| adapt: energies:   -7.7103645982730677        0.0000000000000000        0.0000000000000000     
 PAO| ======================= Iteration:        10 =============================

     Lanczos converged:  T threshold:   0.100E-02
     Est. extremal eigenvalues:    0.276E+01   0.175E+00
     Est. condition number :    0.157E+02

 Order=           3
     NS sqrt iter    1 1.00000000   0.697E+00       0.001       56.395
     NS sqrt iter    2 1.00000000   0.323E+00       0.001       96.073
     NS sqrt iter    3 1.00000000   0.743E-01       0.001       97.327
     NS sqrt iter    4 1.00000000   0.195E-02       0.001       97.959
     NS sqrt iter    5 1.00000000   0.798E-07       0.001       67.148
     Symmetrizing Results
     Final NS sqrt iter    5 1.00000000   0.547E-09

     Est. extremal eigenvalues     -0.92611     1.68971  converged:  T
     TRS4 it   1 1.00000000   0.889E+00       0.000       16.128   0.100E-07
     TRS4 it   2 1.00000000   0.627E+00       0.001       32.256   0.100E-07
     TRS4 it   3 1.00000000   0.432E+00       0.001       32.256   0.100E-07
     TRS4 it   4 1.00000000   0.229E+00       0.001       32.256   0.100E-07
     TRS4 it   5 1.00000000   0.794E-01       0.001       32.256   0.100E-07
     TRS4 it   6 1.00000000   0.117E-01       0.001       32.256   0.100E-07
     TRS4 it   7 1.00000000   0.319E-03       0.001       32.256   0.100E-07
     TRS4 it   8 1.00000000   0.313E-06       0.001       32.256   0.100E-07
     TRS4 it   9 1.00000000   0.379E-12       0.017        1.926   0.100E-07
     Final TRS4 iteration    9 1.00000000   0.379E-12
     Chemical potential (mu):       0.00068
 
 PAO| energy:  -7.7151876341468313      penalty:   1.3738943759037475E-005
 PAO|LS| adapt:  T T F
 PAO|LS| adapt: scan_steps:    0.0000000000000000       0.23211071779911546        0.0000000000000000     
 PAO|LS| adapt: energies:   -7.7103645982730677       -7.7151876341468313        0.0000000000000000     
 PAO| ======================= Iteration:        11 =============================

     Lanczos converged:  T threshold:   0.100E-02
     Est. extremal eigenvalues:    0.272E+01   0.181E+00
     Est. condition number :    0.150E+02

 Order=           3
     NS sqrt iter    1 1.00000000   0.690E+00       0.001       58.748
     NS sqrt iter    2 1.00000000   0.315E+00       0.001       98.749
     NS sqrt iter    3 1.00000000   0.691E-01       0.001       98.860
     NS sqrt iter    4 1.00000000   0.158E-02       0.001       98.354
     NS sqrt iter    5 1.00000000   0.424E-07       0.001       59.415
     Symmetrizing Results
     Final NS sqrt iter    5 1.00000000   0.335E-08

     Est. extremal eigenvalues     -0.92591     1.68659  converged:  T
     TRS4 it   1 1.00000000   0.888E+00       0.000       16.128   0.100E-07
     TRS4 it   2 1.00000000   0.625E+00       0.001       32.256   0.100E-07
     TRS4 it   3 1.00000000   0.430E+00       0.001       32.256   0.100E-07
     TRS4 it   4 1.00000000   0.226E+00       0.001       32.256   0.100E-07
     TRS4 it   5 1.00000000   0.773E-01       0.001       32.256   0.100E-07
     TRS4 it   6 1.00000000   0.110E-01       0.001       32.256   0.100E-07
     TRS4 it   7 1.00000000   0.280E-03       0.017        1.926   0.100E-07
     TRS4 it   8 1.00000000   0.234E-06       0.001       32.256   0.100E-07
     TRS4 it   9 1.00000000   0.206E-12       0.001       32.256   0.100E-07
     Final TRS4 iteration    9 1.00000000   0.206E-12
     Chemical potential (mu):       0.00369
 
 PAO| energy:  -7.7132175900086155      penalty:   1.4914286536215531E-005
 PAO|LS| adapt:  T T T
 PAO|LS| adapt: scan_steps:    0.0000000000000000       0.23211071779911546       0.46422143559823092     
 PAO|LS| adapt: energies:   -7.7103645982730677       -7.7151876341468313       -7.7132175900086155     
 PAO|LS| adapt: suggested step_size:   0.28085222816298250     
 PAO|LS| adapt: predicted energy  -7.7153374108649908     
 PAO| ======================= Iteration:        12 =============================

     Lanczos converged:  T threshold:   0.100E-02
     Est. extremal eigenvalues:    0.275E+01   0.177E+00
     Est. condition number :    0.156E+02

 Order=           3
     NS sqrt iter    1 1.00000000   0.696E+00       0.001       57.583
     NS sqrt iter    2 1.00000000   0.322E+00       0.001       97.289
     NS sqrt iter    3 1.00000000   0.732E-01       0.001       97.750
     NS sqrt iter    4 1.00000000   0.187E-02       0.001      100.320
     NS sqrt iter    5 1.00000000   0.700E-07       0.001       65.665
     Symmetrizing Results
     Final NS sqrt iter    5 1.00000000   0.733E-09

     Est. extremal eigenvalues     -0.92615     1.68898  converged:  T
     TRS4 it   1 1.00000000   0.889E+00       0.000       16.128   0.100E-07
     TRS4 it   2 1.00000000   0.626E+00       0.001       32.256   0.100E-07
     TRS4 it   3 1.00000000   0.431E+00       0.001       32.256   0.100E-07
     TRS4 it   4 1.00000000   0.228E+00       0.029        1.121   0.100E-07
     TRS4 it   5 1.00000000   0.790E-01       0.001       32.256   0.100E-07
     TRS4 it   6 1.00000000   0.115E-01       0.001       32.256   0.100E-07
     TRS4 it   7 1.00000000   0.311E-03       0.001       32.256   0.100E-07
     TRS4 it   8 1.00000000   0.295E-06       0.001       32.256   0.100E-07
     TRS4 it   9 1.00000000   0.335E-12       0.001       32.256   0.100E-07
     Final TRS4 iteration    9 1.00000000   0.335E-12
     Chemical potential (mu):       0.00131
 
 PAO| energy:  -7.7153239540276024      penalty:   1.3925167194158996E-005
 PAO|CG| trace_G_new    1.2084096074820546E-002
 PAO|CG| trace_G_prev    3.6280919254207199E-002
 PAO|CG| trace_G_mix   -4.7501612947495071E-004
 PAO|CG| trace_D    4.4192935177221615E-002
 PAO|CG| trace_D_Gnew   2.5161462781326171E-004
 PAO|CG| beta:   0.34616300971588865     
 PAO| norm of gradient:  0.10992768566116794     
 PAO| energy improvement:  -4.9593557545346556E-003
 PAO| step     12                   -7.715323954  0.687E-02  0.281E+00     0.135
 PAO|LS| adapt:  T F F
 PAO|LS| adapt: scan_steps:    0.0000000000000000        0.0000000000000000        0.0000000000000000     
 PAO|LS| adapt: energies:   -7.7153239540276024        0.0000000000000000        0.0000000000000000     
 PAO| ======================= Iteration:        13 =============================

     Lanczos converged:  T threshold:   0.100E-02
     Est. extremal eigenvalues:    0.272E+01   0.181E+00
     Est. condition number :    0.150E+02

 Order=           3
     NS sqrt iter    1 1.00000000   0.689E+00       0.001       58.399
     NS sqrt iter    2 1.00000000   0.315E+00       0.001       97.375
     NS sqrt iter    3 1.00000000   0.691E-01       0.001       99.063
     NS sqrt iter    4 1.00000000   0.158E-02       0.017        6.427
     NS sqrt iter    5 1.00000000   0.429E-07       0.001       61.724
     Symmetrizing Results
     Final NS sqrt iter    5 1.00000000   0.646E-09

     Est. extremal eigenvalues     -0.92660     1.68201  converged:  T
     TRS4 it   1 1.00000000   0.888E+00       0.000       16.128   0.100E-07
     TRS4 it   2 1.00000000   0.623E+00       0.001       32.256   0.100E-07
     TRS4 it   3 1.00000000   0.427E+00       0.001       32.256   0.100E-07
     TRS4 it   4 1.00000000   0.223E+00       0.001       32.256   0.100E-07
     TRS4 it   5 1.00000000   0.752E-01       0.001       32.256   0.100E-07
     TRS4 it   6 1.00000000   0.104E-01       0.001       32.256   0.100E-07
     TRS4 it   7 1.00000000   0.250E-03       0.001       32.256   0.100E-07
     TRS4 it   8 1.00000000   0.187E-06       0.001       32.256   0.100E-07
     TRS4 it   9 1.00000000   0.131E-12       0.001       32.256   0.100E-07
     Final TRS4 iteration    9 1.00000000   0.131E-12
     Chemical potential (mu):       0.00555
 
 PAO| energy:  -7.7173772638805529      penalty:   1.4206337583083787E-005
 PAO|LS| adapt:  T T F
 PAO|LS| adapt: scan_steps:    0.0000000000000000       0.28085222816298250        0.0000000000000000     
 PAO|LS| adapt: energies:   -7.7153239540276024       -7.7173772638805529        0.0000000000000000     
 PAO| ======================= Iteration:        14 =============================

     Lanczos converged:  T threshold:   0.100E-02
     Est. extremal eigenvalues:    0.269E+01   0.185E+00
     Est. condition number :    0.145E+02

 Order=           3
     NS sqrt iter    1 1.00000000   0.682E+00       0.001       58.503
     NS sqrt iter    2 1.00000000   0.308E+00       0.017        6.425
     NS sqrt iter    3 1.00000000   0.652E-01       0.001       96.815
     NS sqrt iter    4 1.00000000   0.134E-02       0.001       98.747
     NS sqrt iter    5 1.00000000   0.261E-07       0.001       55.758
     Symmetrizing Results
     Final NS sqrt iter    5 1.00000000   0.236E-08

     Est. extremal eigenvalues     -0.92661     1.67541  converged:  T
     TRS4 it   1 1.00000000   0.887E+00       0.000       16.128   0.100E-07
     TRS4 it   2 1.00000000   0.620E+00       0.001       32.256   0.100E-07
     TRS4 it   3 1.00000000   0.423E+00       0.001       32.256   0.100E-07
     TRS4 it   4 1.00000000   0.218E+00       0.001       32.256   0.100E-07
     TRS4 it   5 1.00000000   0.717E-01       0.001       32.256   0.100E-07
     TRS4 it   6 1.00000000   0.938E-02       0.001       32.256   0.100E-07
     TRS4 it   7 1.00000000   0.201E-03       0.001       32.256   0.100E-07
     TRS4 it   8 1.00000000   0.118E-06       0.001       32.256   0.100E-07
     TRS4 it   9 1.00000000   0.512E-13       0.001       32.256   0.100E-07
     Final TRS4 iteration    9 1.00000000   0.512E-13
     Chemical potential (mu):       0.00965
 
 PAO| energy:  -7.7168432077128806      penalty:   1.4924113114942712E-005
 PAO|LS| adapt:  T T T
 PAO|LS| adapt: scan_steps:    0.0000000000000000       0.28085222816298250       0.56170445632596500     
 PAO|LS| adapt: energies:   -7.7153239540276024       -7.7173772638805529       -7.7168432077128806     
 PAO|LS| adapt: suggested step_size:   0.36330785663886500     
 PAO|LS| adapt: predicted energy  -7.7174887736042370     
 PAO| ======================= Iteration:        15 =============================

     Lanczos converged:  T threshold:   0.100E-02
     Est. extremal eigenvalues:    0.271E+01   0.182E+00
     Est. condition number :    0.148E+02

 Order=           3
     NS sqrt iter    1 1.00000000   0.687E+00       0.001       57.103
     NS sqrt iter    2 1.00000000   0.313E+00       0.001       97.419
     NS sqrt iter    3 1.00000000   0.679E-01       0.001       97.919
     NS sqrt iter    4 1.00000000   0.151E-02       0.001       96.844
     NS sqrt iter    5 1.00000000   0.371E-07       0.001       59.148
     Symmetrizing Results
     Final NS sqrt iter    5 1.00000000   0.225E-08

     Est. extremal eigenvalues     -0.92665     1.68004  converged:  T
     TRS4 it   1 1.00000000   0.888E+00       0.000       16.128   0.100E-07
     TRS4 it   2 1.00000000   0.622E+00       0.001       32.256   0.100E-07
     TRS4 it   3 1.00000000   0.426E+00       0.001       32.256   0.100E-07
     TRS4 it   4 1.00000000   0.222E+00       0.001       32.256   0.100E-07
     TRS4 it   5 1.00000000   0.742E-01       0.001       32.256   0.100E-07
     TRS4 it   6 1.00000000   0.101E-01       0.001       32.256   0.100E-07
     TRS4 it   7 1.00000000   0.235E-03       0.001       32.256   0.100E-07
     TRS4 it   8 1.00000000   0.163E-06       0.001       32.256   0.100E-07
     TRS4 it   9 1.00000000   0.999E-13       0.001       32.256   0.100E-07
     Final TRS4 iteration    9 1.00000000   0.999E-13
     Chemical potential (mu):       0.00677
 
 PAO| energy:  -7.7174857446952272      penalty:   1.4368722739699494E-005
 PAO|CG| trace_G_new    2.6781553791481267E-003
 PAO|CG| trace_G_prev    1.2084096074820546E-002
 PAO|CG| trace_G_mix    9.2104996537390366E-005
 PAO|CG| trace_D    1.7205484406536936E-002
 PAO|CG| trace_D_Gnew   2.9864005457337812E-005
 PAO|CG| beta:   0.21400445400291476     
 PAO| norm of gradient:   5.1750897375293183E-002
 PAO| energy improvement:  -2.1617906676247856E-003
 PAO| step     15                   -7.717485745  0.323E-02  0.363E+00     0.111
 PAO|LS| adapt:  T F F
 PAO|LS| adapt: scan_steps:    0.0000000000000000        0.0000000000000000        0.0000000000000000     
 PAO|LS| adapt: energies:   -7.7174857446952272        0.0000000000000000        0.0000000000000000     
 PAO| ======================= Iteration:        16 =============================

     Lanczos converged:  T threshold:   0.100E-02
     Est. extremal eigenvalues:    0.270E+01   0.183E+00
     Est. condition number :    0.147E+02

 Order=           3
     NS sqrt iter    1 1.00000000   0.685E+00       0.001       59.040
     NS sqrt iter    2 1.00000000   0.312E+00       0.001       97.131
     NS sqrt iter    3 1.00000000   0.673E-01       0.001       97.879
     NS sqrt iter    4 1.00000000   0.146E-02       0.001       98.981
     NS sqrt iter    5 1.00000000   0.338E-07       0.001       58.614
     Symmetrizing Results
     Final NS sqrt iter    5 1.00000000   0.655E-09

     Est. extremal eigenvalues     -0.92668     1.67872  converged:  T
     TRS4 it   1 1.00000000   0.888E+00       0.000       16.128   0.100E-07
     TRS4 it   2 1.00000000   0.621E+00       0.001       32.256   0.100E-07
     TRS4 it   3 1.00000000   0.425E+00       0.001       32.256   0.100E-07
     TRS4 it   4 1.00000000   0.220E+00       0.001       32.256   0.100E-07
     TRS4 it   5 1.00000000   0.729E-01       0.001       32.256   0.100E-07
     TRS4 it   6 1.00000000   0.976E-02       0.001       32.256   0.100E-07
     TRS4 it   7 1.00000000   0.220E-03       0.001       32.256   0.100E-07
     TRS4 it   8 1.00000000   0.145E-06       0.001       32.256   0.100E-07
     TRS4 it   9 1.00000000   0.772E-13       0.001       32.256   0.100E-07
     Final TRS4 iteration    9 1.00000000   0.772E-13
     Chemical potential (mu):       0.00773
 
 PAO| energy:  -7.7176335864657721      penalty:   1.4171795865963278E-005
 PAO|LS| adapt:  T T F
 PAO|LS| adapt: scan_steps:    0.0000000000000000       0.36330785663886500        0.0000000000000000     
 PAO|LS| adapt: energies:   -7.7174857446952272       -7.7176335864657721        0.0000000000000000     
 PAO| ======================= Iteration:        17 =============================

     Lanczos converged:  T threshold:   0.100E-02
     Est. extremal eigenvalues:    0.269E+01   0.184E+00
     Est. condition number :    0.146E+02

 Order=           3
     NS sqrt iter    1 1.00000000   0.684E+00       0.001       58.526
     NS sqrt iter    2 1.00000000   0.310E+00       0.001       97.600
     NS sqrt iter    3 1.00000000   0.667E-01       0.001       97.007
     NS sqrt iter    4 1.00000000   0.142E-02       0.001       97.848
     NS sqrt iter    5 1.00000000   0.309E-07       0.001       57.515
     Symmetrizing Results
     Final NS sqrt iter    5 1.00000000   0.590E-09

     Est. extremal eigenvalues     -0.92654     1.67749  converged:  T
     TRS4 it   1 1.00000000   0.888E+00       0.000       16.128   0.100E-07
     TRS4 it   2 1.00000000   0.620E+00       0.001       32.256   0.100E-07
     TRS4 it   3 1.00000000   0.423E+00       0.001       32.256   0.100E-07
     TRS4 it   4 1.00000000   0.218E+00       0.001       32.256   0.100E-07
     TRS4 it   5 1.00000000   0.716E-01       0.001       32.256   0.100E-07
     TRS4 it   6 1.00000000   0.943E-02       0.001       32.256   0.100E-07
     TRS4 it   7 1.00000000   0.206E-03       0.001       32.256   0.100E-07
     TRS4 it   8 1.00000000   0.128E-06       0.001       32.256   0.100E-07
     TRS4 it   9 1.00000000   0.610E-13       0.001       32.256   0.100E-07
     Final TRS4 iteration    9 1.00000000   0.610E-13
     Chemical potential (mu):       0.00866
 
 PAO| energy:  -7.7161308156772463      penalty:   1.4093059759327471E-005
 PAO|LS| adapt:  T T T
 PAO|LS| adapt: scan_steps:    0.0000000000000000       0.36330785663886500       0.72661571327773000     
 PAO|LS| adapt: energies:   -7.7174857446952272       -7.7176335864657721       -7.7161308156772463     
 PAO|LS| adapt: suggested step_size:   0.21419462145981263     
 PAO|LS| adapt: predicted energy  -7.7177726130830182     
 PAO| ======================= Iteration:        18 =============================

     Lanczos converged:  T threshold:   0.100E-02
     Est. extremal eigenvalues:    0.270E+01   0.183E+00
     Est. condition number :    0.148E+02

 Order=           3
     NS sqrt iter    1 1.00000000   0.686E+00       0.001       58.339
     NS sqrt iter    2 1.00000000   0.312E+00       0.001       99.197
     NS sqrt iter    3 1.00000000   0.676E-01       0.001       97.982
     NS sqrt iter    4 1.00000000   0.148E-02       0.001       98.660
     NS sqrt iter    5 1.00000000   0.351E-07       0.017        3.742
     Symmetrizing Results
     Final NS sqrt iter    5 1.00000000   0.213E-08

     Est. extremal eigenvalues     -0.92669     1.67925  converged:  T
     TRS4 it   1 1.00000000   0.888E+00       0.000       16.128   0.100E-07
     TRS4 it   2 1.00000000   0.622E+00       0.001       32.256   0.100E-07
     TRS4 it   3 1.00000000   0.425E+00       0.001       32.256   0.100E-07
     TRS4 it   4 1.00000000   0.220E+00       0.001       32.256   0.100E-07
     TRS4 it   5 1.00000000   0.734E-01       0.001       32.256   0.100E-07
     TRS4 it   6 1.00000000   0.989E-02       0.001       32.256   0.100E-07
     TRS4 it   7 1.00000000   0.226E-03       0.001       32.256   0.100E-07
     TRS4 it   8 1.00000000   0.152E-06       0.001       32.256   0.100E-07
     TRS4 it   9 1.00000000   0.860E-13       0.001       32.256   0.100E-07
     Final TRS4 iteration    9 1.00000000   0.860E-13
     Chemical potential (mu):       0.00733
 
 PAO| energy:  -7.7177722133563806      penalty:   1.4238597221461133E-005
 PAO|CG| trace_G_new    7.2988604476303465E-004
 PAO|CG| trace_G_prev    2.6781553791481267E-003
 PAO|CG| trace_G_mix   -1.6747710627091316E-007
 PAO|CG| trace_D    3.4533484820495957E-003
 PAO|CG| trace_D_Gnew  -1.6939247874176112E-006
 PAO|CG| beta:   0.27259565578361716     
 PAO| norm of gradient:   2.7016403253635274E-002
 PAO| energy improvement:  -2.8646866115344949E-004
 PAO| step     18                   -7.717772213  0.169E-02  0.214E+00     0.107
 PAO|LS| adapt:  T F F
 PAO|LS| adapt: scan_steps:    0.0000000000000000        0.0000000000000000        0.0000000000000000     
 PAO|LS| adapt: energies:   -7.7177722133563806        0.0000000000000000        0.0000000000000000     
 PAO| ======================= Iteration:        19 =============================

     Lanczos converged:  T threshold:   0.100E-02
     Est. extremal eigenvalues:    0.270E+01   0.183E+00
     Est. condition number :    0.148E+02

 Order=           3
     NS sqrt iter    1 1.00000000   0.686E+00       0.001       57.690
     NS sqrt iter    2 1.00000000   0.312E+00       0.001       97.630
     NS sqrt iter    3 1.00000000   0.678E-01       0.001       98.186
     NS sqrt iter    4 1.00000000   0.149E-02       0.001       99.618
     NS sqrt iter    5 1.00000000   0.356E-07       0.001       58.586
     Symmetrizing Results
     Final NS sqrt iter    5 1.00000000   0.216E-08

     Est. extremal eigenvalues     -0.92668     1.67920  converged:  T
     TRS4 it   1 1.00000000   0.888E+00       0.000       16.128   0.100E-07
     TRS4 it   2 1.00000000   0.621E+00       0.001       32.256   0.100E-07
     TRS4 it   3 1.00000000   0.425E+00       0.001       32.256   0.100E-07
     TRS4 it   4 1.00000000   0.220E+00       0.001       32.256   0.100E-07
     TRS4 it   5 1.00000000   0.733E-01       0.001       32.256   0.100E-07
     TRS4 it   6 1.00000000   0.988E-02       0.001       32.256   0.100E-07
     TRS4 it   7 1.00000000   0.226E-03       0.001       32.256   0.100E-07
     TRS4 it   8 1.00000000   0.154E-06       0.001       32.256   0.100E-07
     TRS4 it   9 1.00000000   0.893E-13       0.001       32.256   0.100E-07
     Final TRS4 iteration    9 1.00000000   0.893E-13
     Chemical potential (mu):       0.00711
 
 PAO| energy:  -7.7178908926879171      penalty:   1.3965950710085656E-005
 PAO|LS| adapt:  T T F
 PAO|LS| adapt: scan_steps:    0.0000000000000000       0.21419462145981263        0.0000000000000000     
 PAO|LS| adapt: energies:   -7.7177722133563806       -7.7178908926879171        0.0000000000000000     
 PAO| ======================= Iteration:        20 =============================

     Lanczos converged:  T threshold:   0.100E-02
     Est. extremal eigenvalues:    0.270E+01   0.183E+00
     Est. condition number :    0.148E+02

 Order=           3
     NS sqrt iter    1 1.00000000   0.686E+00       0.001       58.465
     NS sqrt iter    2 1.00000000   0.313E+00       0.001       97.798
     NS sqrt iter    3 1.00000000   0.680E-01       0.001       97.347
     NS sqrt iter    4 1.00000000   0.150E-02       0.001       97.904
     NS sqrt iter    5 1.00000000   0.361E-07       0.001       59.774
     Symmetrizing Results
     Final NS sqrt iter    5 1.00000000   0.219E-08

     Est. extremal eigenvalues     -0.92668     1.67917  converged:  T
     TRS4 it   1 1.00000000   0.888E+00       0.000       16.128   0.100E-07
     TRS4 it   2 1.00000000   0.621E+00       0.001       32.256   0.100E-07
     TRS4 it   3 1.00000000   0.425E+00       0.001       32.256   0.100E-07
     TRS4 it   4 1.00000000   0.220E+00       0.001       32.256   0.100E-07
     TRS4 it   5 1.00000000   0.732E-01       0.001       32.256   0.100E-07
     TRS4 it   6 1.00000000   0.987E-02       0.001       32.256   0.100E-07
     TRS4 it   7 1.00000000   0.227E-03       0.001       32.256   0.100E-07
     TRS4 it   8 1.00000000   0.155E-06       0.001       32.256   0.100E-07
     TRS4 it   9 1.00000000   0.917E-13       0.001       32.256   0.100E-07
     Final TRS4 iteration    9 1.00000000   0.917E-13
     Chemical potential (mu):       0.00687
 
 PAO| energy:  -7.7179336370976257      penalty:   1.3705427460468548E-005
 PAO|LS| adapt:  T T F
 PAO|LS| adapt: scan_steps:    0.0000000000000000       0.42838924291962527        0.0000000000000000     
 PAO|LS| adapt: energies:   -7.7177722133563806       -7.7179336370976257        0.0000000000000000     
 PAO| ======================= Iteration:        21 =============================

     Lanczos converged:  T threshold:   0.100E-02
     Est. extremal eigenvalues:    0.270E+01   0.182E+00
     Est. condition number :    0.148E+02

 Order=           3
     NS sqrt iter    1 1.00000000   0.686E+00       0.001       57.116
     NS sqrt iter    2 1.00000000   0.313E+00       0.001       97.046
     NS sqrt iter    3 1.00000000   0.684E-01       0.001       98.442
     NS sqrt iter    4 1.00000000   0.152E-02       0.001       98.482
     NS sqrt iter    5 1.00000000   0.371E-07       0.001       59.508
     Symmetrizing Results
     Final NS sqrt iter    5 1.00000000   0.224E-08

     Est. extremal eigenvalues     -0.92667     1.67910  converged:  T
     TRS4 it   1 1.00000000   0.888E+00       0.000       16.128   0.100E-07
     TRS4 it   2 1.00000000   0.621E+00       0.001       32.256   0.100E-07
     TRS4 it   3 1.00000000   0.425E+00       0.001       32.256   0.100E-07
     TRS4 it   4 1.00000000   0.220E+00       0.001       32.256   0.100E-07
     TRS4 it   5 1.00000000   0.729E-01       0.001       32.256   0.100E-07
     TRS4 it   6 1.00000000   0.985E-02       0.001       32.256   0.100E-07
     TRS4 it   7 1.00000000   0.228E-03       0.001       32.256   0.100E-07
     TRS4 it   8 1.00000000   0.159E-06       0.001       32.256   0.100E-07
     TRS4 it   9 1.00000000   0.968E-13       0.001       32.256   0.100E-07
     Final TRS4 iteration    9 1.00000000   0.968E-13
     Chemical potential (mu):       0.00639
 
 PAO| energy:  -7.7177887959295965      penalty:   1.3220209604490127E-005
 PAO|LS| Need extra step
 PAO|LS| adapt:  T T T
 PAO|LS| adapt: scan_steps:    0.0000000000000000       0.42838924291962527       0.85677848583925054     
 PAO|LS| adapt: energies:   -7.7177722133563806       -7.7179336370976257       -7.7177887959295965     
 PAO|LS| adapt: suggested step_size:   0.43998671257825506     
 PAO|LS| adapt: predicted energy  -7.7179337493296041     
 PAO| ======================= Iteration:        22 =============================

     Lanczos converged:  T threshold:   0.100E-02
     Est. extremal eigenvalues:    0.270E+01   0.182E+00
     Est. condition number :    0.148E+02

 Order=           3
     NS sqrt iter    1 1.00000000   0.686E+00       0.001       59.060
     NS sqrt iter    2 1.00000000   0.313E+00       0.001       98.709
     NS sqrt iter    3 1.00000000   0.680E-01       0.001       97.681
     NS sqrt iter    4 1.00000000   0.150E-02       0.001       98.339
     NS sqrt iter    5 1.00000000   0.361E-07       0.001       60.456
     Symmetrizing Results
     Final NS sqrt iter    5 1.00000000   0.219E-08

     Est. extremal eigenvalues     -0.92668     1.67916  converged:  T
     TRS4 it   1 1.00000000   0.888E+00       0.000       16.128   0.100E-07
     TRS4 it   2 1.00000000   0.621E+00       0.001       32.256   0.100E-07
     TRS4 it   3 1.00000000   0.425E+00       0.001       32.256   0.100E-07
     TRS4 it   4 1.00000000   0.220E+00       0.001       32.256   0.100E-07
     TRS4 it   5 1.00000000   0.731E-01       0.001       32.256   0.100E-07
     TRS4 it   6 1.00000000   0.987E-02       0.001       32.256   0.100E-07
     TRS4 it   7 1.00000000   0.227E-03       0.001       32.256   0.100E-07
     TRS4 it   8 1.00000000   0.155E-06       0.001       32.256   0.100E-07
     TRS4 it   9 1.00000000   0.919E-13       0.001       32.256   0.100E-07
     Final TRS4 iteration    9 1.00000000   0.919E-13
     Chemical potential (mu):       0.00686
 
 PAO| energy:  -7.7179337721038319      penalty:   1.3691664222050071E-005
 PAO|CG| trace_G_new    2.3141691528466831E-004
 PAO|CG| trace_G_prev    7.2988604476303465E-004
 PAO|CG| trace_G_mix    3.4836450241006587E-006
 PAO|CG| trace_D    9.8742232900957583E-004
 PAO|CG| trace_D_Gnew  -1.9612056546278008E-006
 PAO|CG| beta:   0.31228610533931861     
 PAO| norm of gradient:   1.5212393476526576E-002
 PAO| energy improvement:  -1.6155874745127363E-004
 PAO| step     22                   -7.717933772  0.951E-03  0.440E+00     0.076
 PAO|LS| adapt:  T F F
 PAO|LS| adapt: scan_steps:    0.0000000000000000        0.0000000000000000        0.0000000000000000     
 PAO|LS| adapt: energies:   -7.7179337721038319        0.0000000000000000        0.0000000000000000     
 PAO| ======================= Iteration:        23 =============================

     Lanczos converged:  T threshold:   0.100E-02
     Est. extremal eigenvalues:    0.270E+01   0.183E+00
     Est. condition number :    0.148E+02

 Order=           3
     NS sqrt iter    1 1.00000000   0.686E+00       0.001       57.726
     NS sqrt iter    2 1.00000000   0.313E+00       0.001       97.605
     NS sqrt iter    3 1.00000000   0.680E-01       0.001       98.186
     NS sqrt iter    4 1.00000000   0.150E-02       0.001       98.009
     NS sqrt iter    5 1.00000000   0.362E-07       0.001       58.632
     Symmetrizing Results
     Final NS sqrt iter    5 1.00000000   0.218E-08

     Est. extremal eigenvalues     -0.92668     1.67898  converged:  T
     TRS4 it   1 1.00000000   0.888E+00       0.000       16.128   0.100E-07
     TRS4 it   2 1.00000000   0.621E+00       0.001       32.256   0.100E-07
     TRS4 it   3 1.00000000   0.425E+00       0.001       32.256   0.100E-07
     TRS4 it   4 1.00000000   0.220E+00       0.001       32.256   0.100E-07
     TRS4 it   5 1.00000000   0.733E-01       0.001       32.256   0.100E-07
     TRS4 it   6 1.00000000   0.992E-02       0.001       32.256   0.100E-07
     TRS4 it   7 1.00000000   0.230E-03       0.001       32.256   0.100E-07
     TRS4 it   8 1.00000000   0.160E-06       0.001       32.256   0.100E-07
     TRS4 it   9 1.00000000   0.966E-13       0.001       32.256   0.100E-07
     Final TRS4 iteration    9 1.00000000   0.966E-13
     Chemical potential (mu):       0.00652
 
 PAO| energy:  -7.7179733163624995      penalty:   1.3051299141503317E-005
 PAO|LS| adapt:  T T F
 PAO|LS| adapt: scan_steps:    0.0000000000000000       0.43998671257825506        0.0000000000000000     
 PAO|LS| adapt: energies:   -7.7179337721038319       -7.7179733163624995        0.0000000000000000     
 PAO| ======================= Iteration:        24 =============================

     Lanczos converged:  T threshold:   0.100E-02
     Est. extremal eigenvalues:    0.271E+01   0.183E+00
     Est. condition number :    0.148E+02

 Order=           3
     NS sqrt iter    1 1.00000000   0.686E+00       0.001       58.115
     NS sqrt iter    2 1.00000000   0.313E+00       0.001       98.309
     NS sqrt iter    3 1.00000000   0.681E-01       0.001       98.798
     NS sqrt iter    4 1.00000000   0.150E-02       0.001       97.324
     NS sqrt iter    5 1.00000000   0.362E-07       0.001       60.004
     Symmetrizing Results
     Final NS sqrt iter    5 1.00000000   0.217E-08

     Est. extremal eigenvalues     -0.92667     1.67879  converged:  T
     TRS4 it   1 1.00000000   0.888E+00       0.000       16.128   0.100E-07
     TRS4 it   2 1.00000000   0.621E+00       0.001       32.256   0.100E-07
     TRS4 it   3 1.00000000   0.425E+00       0.001       32.256   0.100E-07
     TRS4 it   4 1.00000000   0.220E+00       0.001       32.256   0.100E-07
     TRS4 it   5 1.00000000   0.734E-01       0.001       32.256   0.100E-07
     TRS4 it   6 1.00000000   0.998E-02       0.001       32.256   0.100E-07
     TRS4 it   7 1.00000000   0.233E-03       0.001       32.256   0.100E-07
     TRS4 it   8 1.00000000   0.165E-06       0.001       32.256   0.100E-07
     TRS4 it   9 1.00000000   0.103E-12       0.001       32.256   0.100E-07
     Final TRS4 iteration    9 1.00000000   0.103E-12
     Chemical potential (mu):       0.00617
 
 PAO| energy:  -7.7178871371625952      penalty:   1.2437850168056082E-005
 PAO|LS| adapt:  T T T
 PAO|LS| adapt: scan_steps:    0.0000000000000000       0.43998671257825506       0.87997342515651011     
 PAO|LS| adapt: energies:   -7.7179337721038319       -7.7179733163624995       -7.7178871371625952     
 PAO|LS| adapt: suggested step_size:   0.35838398418098594     
 PAO|LS| adapt: predicted energy  -7.7179754786655499     
 PAO| ======================= Iteration:        25 =============================

     Lanczos converged:  T threshold:   0.100E-02
     Est. extremal eigenvalues:    0.270E+01   0.183E+00
     Est. condition number :    0.148E+02

 Order=           3
     NS sqrt iter    1 1.00000000   0.686E+00       0.001       57.711
     NS sqrt iter    2 1.00000000   0.313E+00       0.001       96.897
     NS sqrt iter    3 1.00000000   0.680E-01       0.001      100.245
     NS sqrt iter    4 1.00000000   0.150E-02       0.001       99.781
     NS sqrt iter    5 1.00000000   0.361E-07       0.001       59.099
     Symmetrizing Results
     Final NS sqrt iter    5 1.00000000   0.218E-08

     Est. extremal eigenvalues     -0.92668     1.67901  converged:  T
     TRS4 it   1 1.00000000   0.888E+00       0.000       16.128   0.100E-07
     TRS4 it   2 1.00000000   0.621E+00       0.001       32.256   0.100E-07
     TRS4 it   3 1.00000000   0.425E+00       0.001       32.256   0.100E-07
     TRS4 it   4 1.00000000   0.220E+00       0.001       32.256   0.100E-07
     TRS4 it   5 1.00000000   0.733E-01       0.001       32.256   0.100E-07
     TRS4 it   6 1.00000000   0.991E-02       0.001       32.256   0.100E-07
     TRS4 it   7 1.00000000   0.229E-03       0.001       32.256   0.100E-07
     TRS4 it   8 1.00000000   0.159E-06       0.001       32.256   0.100E-07
     TRS4 it   9 1.00000000   0.965E-13       0.001       32.256   0.100E-07
     Final TRS4 iteration    9 1.00000000   0.965E-13
     Chemical potential (mu):       0.00658
 
 PAO| energy:  -7.7179754503818536      penalty:   1.3168014679031750E-005
 PAO|CG| trace_G_new    9.4867585955440376E-005
 PAO|CG| trace_G_prev    2.3141691528466831E-004
 PAO|CG| trace_G_mix    3.9567885378676880E-007
 PAO|CG| trace_D    3.2893783410129385E-004
 PAO|CG| trace_D_Gnew  -3.2204402218647713E-007
 PAO|CG| beta:   0.40823250532677247     
 PAO| norm of gradient:   9.7399992790266864E-003
 PAO| energy improvement:  -4.1678278021706205E-005
 PAO| step     25                   -7.717975450  0.609E-03  0.358E+00     0.059
 PAO|LS| adapt:  T F F
 PAO|LS| adapt: scan_steps:    0.0000000000000000        0.0000000000000000        0.0000000000000000     
 PAO|LS| adapt: energies:   -7.7179754503818536        0.0000000000000000        0.0000000000000000     
 PAO| ======================= Iteration:        26 =============================

     Lanczos converged:  T threshold:   0.100E-02
     Est. extremal eigenvalues:    0.270E+01   0.183E+00
     Est. condition number :    0.148E+02

 Order=           3
     NS sqrt iter    1 1.00000000   0.686E+00       0.001       58.255
     NS sqrt iter    2 1.00000000   0.313E+00       0.001       97.793
     NS sqrt iter    3 1.00000000   0.680E-01       0.001       95.666
     NS sqrt iter    4 1.00000000   0.149E-02       0.001       98.272
     NS sqrt iter    5 1.00000000   0.358E-07       0.001       60.293
     Symmetrizing Results
     Final NS sqrt iter    5 1.00000000   0.215E-08

     Est. extremal eigenvalues     -0.92668     1.67882  converged:  T
     TRS4 it   1 1.00000000   0.888E+00       0.000       16.128   0.100E-07
     TRS4 it   2 1.00000000   0.621E+00       0.001       32.256   0.100E-07
     TRS4 it   3 1.00000000   0.425E+00       0.001       32.256   0.100E-07
     TRS4 it   4 1.00000000   0.220E+00       0.001       32.256   0.100E-07
     TRS4 it   5 1.00000000   0.733E-01       0.001       32.256   0.100E-07
     TRS4 it   6 1.00000000   0.992E-02       0.001       32.256   0.100E-07
     TRS4 it   7 1.00000000   0.230E-03       0.001       32.256   0.100E-07
     TRS4 it   8 1.00000000   0.159E-06       0.001       32.256   0.100E-07
     TRS4 it   9 1.00000000   0.951E-13       0.017        1.925   0.100E-07
     Final TRS4 iteration    9 1.00000000   0.951E-13
     Chemical potential (mu):       0.00657
 
 PAO| energy:  -7.7179851108312780      penalty:   1.2581726849947475E-005
 PAO|LS| adapt:  T T F
 PAO|LS| adapt: scan_steps:    0.0000000000000000       0.35838398418098594        0.0000000000000000     
 PAO|LS| adapt: energies:   -7.7179754503818536       -7.7179851108312780        0.0000000000000000     
 PAO| ======================= Iteration:        27 =============================

     Lanczos converged:  T threshold:   0.100E-02
     Est. extremal eigenvalues:    0.270E+01   0.183E+00
     Est. condition number :    0.148E+02

 Order=           3
     NS sqrt iter    1 1.00000000   0.686E+00       0.001       57.575
     NS sqrt iter    2 1.00000000   0.313E+00       0.001       96.753
     NS sqrt iter    3 1.00000000   0.679E-01       0.001       97.906
     NS sqrt iter    4 1.00000000   0.149E-02       0.001       97.907
     NS sqrt iter    5 1.00000000   0.354E-07       0.001       57.104
     Symmetrizing Results
     Final NS sqrt iter    5 1.00000000   0.594E-09

     Est. extremal eigenvalues     -0.92668     1.67864  converged:  T
     TRS4 it   1 1.00000000   0.888E+00       0.000       16.128   0.100E-07
     TRS4 it   2 1.00000000   0.621E+00       0.001       32.256   0.100E-07
     TRS4 it   3 1.00000000   0.425E+00       0.001       32.256   0.100E-07
     TRS4 it   4 1.00000000   0.220E+00       0.001       32.256   0.100E-07
     TRS4 it   5 1.00000000   0.733E-01       0.001       32.256   0.100E-07
     TRS4 it   6 1.00000000   0.993E-02       0.017        1.929   0.100E-07
     TRS4 it   7 1.00000000   0.230E-03       0.001       32.256   0.100E-07
     TRS4 it   8 1.00000000   0.159E-06       0.001       32.256   0.100E-07
     TRS4 it   9 1.00000000   0.955E-13       0.001       32.256   0.100E-07
     Final TRS4 iteration    9 1.00000000   0.955E-13
     Chemical potential (mu):       0.00657
 
 PAO| energy:  -7.7179459001390347      penalty:   1.2012159019272061E-005
 PAO|LS| adapt:  T T T
 PAO|LS| adapt: scan_steps:    0.0000000000000000       0.35838398418098594       0.71676796836197187     
 PAO|LS| adapt: energies:   -7.7179754503818536       -7.7179851108312780       -7.7179459001390347     
 PAO|LS| adapt: suggested step_size:   0.25003442047566954     
 PAO|LS| adapt: predicted energy  -7.7179873442987725     
 PAO| ======================= Iteration:        28 =============================

     Lanczos converged:  T threshold:   0.100E-02
     Est. extremal eigenvalues:    0.270E+01   0.183E+00
     Est. condition number :    0.148E+02

 Order=           3
     NS sqrt iter    1 1.00000000   0.686E+00       0.001       57.568
     NS sqrt iter    2 1.00000000   0.313E+00       0.001       98.334
     NS sqrt iter    3 1.00000000   0.680E-01       0.001       98.042
     NS sqrt iter    4 1.00000000   0.150E-02       0.001       99.522
     NS sqrt iter    5 1.00000000   0.359E-07       0.001       59.298
     Symmetrizing Results
     Final NS sqrt iter    5 1.00000000   0.216E-08

     Est. extremal eigenvalues     -0.92668     1.67888  converged:  T
     TRS4 it   1 1.00000000   0.888E+00       0.000       16.128   0.100E-07
     TRS4 it   2 1.00000000   0.621E+00       0.001       32.256   0.100E-07
     TRS4 it   3 1.00000000   0.425E+00       0.001       32.256   0.100E-07
     TRS4 it   4 1.00000000   0.220E+00       0.017        1.923   0.100E-07
     TRS4 it   5 1.00000000   0.733E-01       0.001       32.256   0.100E-07
     TRS4 it   6 1.00000000   0.992E-02       0.001       32.256   0.100E-07
     TRS4 it   7 1.00000000   0.229E-03       0.001       32.256   0.100E-07
     TRS4 it   8 1.00000000   0.159E-06       0.001       32.256   0.100E-07
     TRS4 it   9 1.00000000   0.961E-13       0.001       32.256   0.100E-07
     Final TRS4 iteration    9 1.00000000   0.961E-13
     Chemical potential (mu):       0.00657
 
 PAO| energy:  -7.7179873374687844      penalty:   1.2757205287757603E-005
 PAO|CG| trace_G_new    2.3081063650092139E-005
 PAO|CG| trace_G_prev    9.4867585955440376E-005
 PAO|CG| trace_G_mix    1.2782480648483854E-007
 PAO|CG| trace_D    1.4994925654490622E-004
 PAO|CG| trace_D_Gnew  -5.0295529099474227E-008
 PAO|CG| beta:   0.24195027851123477     
 PAO| norm of gradient:   4.8042755593421301E-003
 PAO| energy improvement:  -1.1887086930784108E-005
 PAO| step     28                   -7.717987337  0.300E-03  0.250E+00     0.107
 PAO|LS| adapt:  T F F
 PAO|LS| adapt: scan_steps:    0.0000000000000000        0.0000000000000000        0.0000000000000000     
 PAO|LS| adapt: energies:   -7.7179873374687844        0.0000000000000000        0.0000000000000000     
 PAO| ======================= Iteration:        29 =============================

     Lanczos converged:  T threshold:   0.100E-02
     Est. extremal eigenvalues:    0.270E+01   0.183E+00
     Est. condition number :    0.148E+02

 Order=           3
     NS sqrt iter    1 1.00000000   0.686E+00       0.001       58.994
     NS sqrt iter    2 1.00000000   0.313E+00       0.001       98.625
     NS sqrt iter    3 1.00000000   0.679E-01       0.001       97.682
     NS sqrt iter    4 1.00000000   0.149E-02       0.017        6.429
     NS sqrt iter    5 1.00000000   0.357E-07       0.001       58.617
     Symmetrizing Results
     Final NS sqrt iter    5 1.00000000   0.214E-08

     Est. extremal eigenvalues     -0.92668     1.67880  converged:  T
     TRS4 it   1 1.00000000   0.888E+00       0.000       16.128   0.100E-07
     TRS4 it   2 1.00000000   0.621E+00       0.001       32.256   0.100E-07
     TRS4 it   3 1.00000000   0.425E+00       0.001       32.256   0.100E-07
     TRS4 it   4 1.00000000   0.220E+00       0.001       32.256   0.100E-07
     TRS4 it   5 1.00000000   0.732E-01       0.001       32.256   0.100E-07
     TRS4 it   6 1.00000000   0.990E-02       0.001       32.256   0.100E-07
     TRS4 it   7 1.00000000   0.229E-03       0.001       32.256   0.100E-07
     TRS4 it   8 1.00000000   0.158E-06       0.001       32.256   0.100E-07
     TRS4 it   9 1.00000000   0.937E-13       0.001       32.256   0.100E-07
     Final TRS4 iteration    9 1.00000000   0.937E-13
     Chemical potential (mu):       0.00667
 
 PAO| energy:  -7.7179923039829008      penalty:   1.2401639294442825E-005
 PAO|LS| adapt:  T T F
 PAO|LS| adapt: scan_steps:    0.0000000000000000       0.25003442047566954        0.0000000000000000     
 PAO|LS| adapt: energies:   -7.7179873374687844       -7.7179923039829008        0.0000000000000000     
 PAO| ======================= Iteration:        30 =============================

     Lanczos converged:  T threshold:   0.100E-02
     Est. extremal eigenvalues:    0.270E+01   0.183E+00
     Est. condition number :    0.148E+02

 Order=           3
     NS sqrt iter    1 1.00000000   0.686E+00       0.001       57.876
     NS sqrt iter    2 1.00000000   0.312E+00       0.009       12.063
     NS sqrt iter    3 1.00000000   0.679E-01       0.001       97.521
     NS sqrt iter    4 1.00000000   0.149E-02       0.001       99.028
     NS sqrt iter    5 1.00000000   0.356E-07       0.001       59.583
     Symmetrizing Results
     Final NS sqrt iter    5 1.00000000   0.597E-09

     Est. extremal eigenvalues     -0.92669     1.67871  converged:  T
     TRS4 it   1 1.00000000   0.888E+00       0.000       16.128   0.100E-07
     TRS4 it   2 1.00000000   0.621E+00       0.001       32.256   0.100E-07
     TRS4 it   3 1.00000000   0.425E+00       0.001       32.256   0.100E-07
     TRS4 it   4 1.00000000   0.220E+00       0.001       32.256   0.100E-07
     TRS4 it   5 1.00000000   0.732E-01       0.001       32.256   0.100E-07
     TRS4 it   6 1.00000000   0.989E-02       0.001       32.256   0.100E-07
     TRS4 it   7 1.00000000   0.228E-03       0.001       32.256   0.100E-07
     TRS4 it   8 1.00000000   0.157E-06       0.001       32.256   0.100E-07
     TRS4 it   9 1.00000000   0.923E-13       0.001       32.256   0.100E-07
     Final TRS4 iteration    9 1.00000000   0.923E-13
     Chemical potential (mu):       0.00675
 
 PAO| energy:  -7.7179956553130413      penalty:   1.2051528399202658E-005
 PAO|LS| adapt:  T T F
 PAO|LS| adapt: scan_steps:    0.0000000000000000       0.50006884095133908        0.0000000000000000     
 PAO|LS| adapt: energies:   -7.7179873374687844       -7.7179956553130413        0.0000000000000000     
 PAO| ======================= Iteration:        31 =============================

     Lanczos converged:  T threshold:   0.100E-02
     Est. extremal eigenvalues:    0.270E+01   0.183E+00
     Est. condition number :    0.148E+02

 Order=           3
     NS sqrt iter    1 1.00000000   0.685E+00       0.017        3.751
     NS sqrt iter    2 1.00000000   0.312E+00       0.001       97.237
     NS sqrt iter    3 1.00000000   0.678E-01       0.001       97.719
     NS sqrt iter    4 1.00000000   0.149E-02       0.001       96.967
     NS sqrt iter    5 1.00000000   0.352E-07       0.001       58.441
     Symmetrizing Results
     Final NS sqrt iter    5 1.00000000   0.598E-09

     Est. extremal eigenvalues     -0.92669     1.67853  converged:  T
     TRS4 it   1 1.00000000   0.888E+00       0.000       16.128   0.100E-07
     TRS4 it   2 1.00000000   0.621E+00       0.001       32.256   0.100E-07
     TRS4 it   3 1.00000000   0.425E+00       0.001       32.256   0.100E-07
     TRS4 it   4 1.00000000   0.220E+00       0.001       32.256   0.100E-07
     TRS4 it   5 1.00000000   0.730E-01       0.001       32.256   0.100E-07
     TRS4 it   6 1.00000000   0.985E-02       0.001       32.256   0.100E-07
     TRS4 it   7 1.00000000   0.226E-03       0.001       32.256   0.100E-07
     TRS4 it   8 1.00000000   0.154E-06       0.001       32.256   0.100E-07
     TRS4 it   9 1.00000000   0.892E-13       0.001       32.256   0.100E-07
     Final TRS4 iteration    9 1.00000000   0.892E-13
     Chemical potential (mu):       0.00693
 
 PAO| energy:  -7.7179975142263704      penalty:   1.1367598528057973E-005
 PAO|LS| Need extra step
 PAO|LS| adapt:  T T F
 PAO|LS| adapt: scan_steps:    0.0000000000000000        1.0001376819026782        0.0000000000000000     
 PAO|LS| adapt: energies:   -7.7179873374687844       -7.7179975142263704        0.0000000000000000     
 PAO| ======================= Iteration:        32 =============================

     Lanczos converged:  T threshold:   0.100E-02
     Est. extremal eigenvalues:    0.270E+01   0.183E+00
     Est. condition number :    0.148E+02

 Order=           3
[...]

     Est. extremal eigenvalues     -0.92641     1.47885  converged:  T
     TRS4 it   1 1.00000000   0.848E+00       0.000       16.128   0.100E-07
     TRS4 it   2 1.00000000   0.602E+00       0.000       32.256   0.100E-07
     TRS4 it   3 1.00000000   0.434E+00       0.000       32.256   0.100E-07
     TRS4 it   4 1.00000000   0.265E+00       0.000       32.256   0.100E-07
     TRS4 it   5 1.00000000   0.125E+00       0.000       32.256   0.100E-07
     TRS4 it   6 1.00000000   0.349E-01       0.000       32.256   0.100E-07
     TRS4 it   7 1.00000000   0.358E-02       0.000       32.256   0.100E-07
     TRS4 it   8 1.00000000   0.484E-04       0.000       32.256   0.100E-07
     TRS4 it   9 1.00000000   0.102E-07       0.000       32.256   0.100E-07
     Final TRS4 iteration    9 1.00000000   0.102E-07
     Chemical potential (mu):      -0.07375
 
 PAO| energy:  -7.7176631242731224      penalty:   9.5155357664946063E-012
 PAO|CG| warming up with steepest descent
 PAO|CG| beta:    0.0000000000000000     
 PAO| norm of gradient:   7.0849578259729373E-006
 PAO| energy improvement:  -1.3857359704161354E-011
 PAO| step    864                   -7.717663124  0.443E-06  0.266E+00     0.047
 PAO| converged after          864  steps :-)
 PAO| Recalculating energy after mixing.

     Lanczos converged:  T threshold:   0.100E-02
     Est. extremal eigenvalues:    0.250E+01   0.225E+00
     Est. condition number :    0.111E+02

 Order=           3
     NS sqrt iter    1 1.00000000   0.629E+00       0.001       64.512
     NS sqrt iter    2 1.00000000   0.262E+00       0.001      110.592
     NS sqrt iter    3 1.00000000   0.418E-01       0.001      110.592
     NS sqrt iter    4 1.00000000   0.360E-03       0.001      109.056
     NS sqrt iter    5 1.00000000   0.515E-09       0.001       36.864
     Symmetrizing Results
     Final NS sqrt iter    5 1.00000000   0.342E-10

     Est. extremal eigenvalues     -0.92641     1.47885  converged:  T
     TRS4 it   1 1.00000000   0.848E+00       0.000       16.128   0.100E-07
     TRS4 it   2 1.00000000   0.602E+00       0.000       32.256   0.100E-07
     TRS4 it   3 1.00000000   0.434E+00       0.000       32.256   0.100E-07
     TRS4 it   4 1.00000000   0.265E+00       0.000       32.256   0.100E-07
     TRS4 it   5 1.00000000   0.125E+00       0.000       32.256   0.100E-07
     TRS4 it   6 1.00000000   0.349E-01       0.000       32.256   0.100E-07
     TRS4 it   7 1.00000000   0.358E-02       0.000       32.256   0.100E-07
     TRS4 it   8 1.00000000   0.484E-04       0.000       32.256   0.100E-07
     TRS4 it   9 1.00000000   0.102E-07       0.000       32.256   0.100E-07
     Final TRS4 iteration    9 1.00000000   0.102E-07
     Chemical potential (mu):      -0.07375
 
 PAO| energy:  -7.7176631242696567      penalty:   9.6179852828058748E-012
 PAO| Writing restart file.
     Est. extremal eigenvalues     -0.92641     1.47885  converged:  T
     TRS4 it   1 1.00000000   0.848E+00       0.000       16.128   0.100E-07
     TRS4 it   2 1.00000000   0.602E+00       0.000       32.256   0.100E-07
     TRS4 it   3 1.00000000   0.434E+00       0.000       32.256   0.100E-07
     TRS4 it   4 1.00000000   0.265E+00       0.000       32.256   0.100E-07
     TRS4 it   5 1.00000000   0.125E+00       0.000       32.256   0.100E-07
     TRS4 it   6 1.00000000   0.349E-01       0.000       32.256   0.100E-07
     TRS4 it   7 1.00000000   0.358E-02       0.000       32.256   0.100E-07
     TRS4 it   8 1.00000000   0.484E-04       0.000       32.256   0.100E-07
     TRS4 it   9 1.00000000   0.102E-07       0.000       32.256   0.100E-07
     Final TRS4 iteration    9 1.00000000   0.102E-07
     Chemical potential (mu):      -0.07375

 SCF     1       -34.447044606       -34.447044606    2.134189

*********************************************************
 Using MIXING_FRACTION=0.450 to mix KS matrix:  iscf=  2
 KS_nw=0.450*KS + 0.550*KS_old
*********************************************************
     Est. extremal eigenvalues     -0.92641     1.47885  converged:  T
     TRS4 it   1 1.00000000   0.848E+00       0.000       16.128   0.100E-07
     TRS4 it   2 1.00000000   0.602E+00       0.000       32.256   0.100E-07
     TRS4 it   3 1.00000000   0.434E+00       0.000       32.256   0.100E-07
     TRS4 it   4 1.00000000   0.265E+00       0.000       32.256   0.100E-07
     TRS4 it   5 1.00000000   0.125E+00       0.000       32.256   0.100E-07
     TRS4 it   6 1.00000000   0.349E-01       0.000       32.256   0.100E-07
     TRS4 it   7 1.00000000   0.358E-02       0.000       32.256   0.100E-07
     TRS4 it   8 1.00000000   0.484E-04       0.000       32.256   0.100E-07
     TRS4 it   9 1.00000000   0.102E-07       0.000       32.256   0.100E-07
     Final TRS4 iteration    9 1.00000000   0.102E-07
     Chemical potential (mu):      -0.07375

 SCF     2       -34.447044606         0.000000000    2.051440


 SCF run converged in     2 steps.

 PAO| Storing density matrix for ASPC guess in slot:           1

 ENERGY| Total FORCE_EVAL ( QS ) energy [a.u.]:              -34.447044605909007

 -------------------------------------------------------------------------------
 -                                                                             -
 -                                DBCSR STATISTICS                             -
 -                                                                             -
 -------------------------------------------------------------------------------
 COUNTER                                    TOTAL       BLAS       SMM       ACC
 flops     5 x     5 x     4                32000       0.0%    100.0%      0.0%
 flops    13 x     5 x     4                33280       0.0%    100.0%      0.0%
 flops     5 x    13 x     4                33280       0.0%    100.0%      0.0%
 flops    13 x    13 x     4                64896       0.0%    100.0%      0.0%
 flops     4 x     4 x     5              6766080       0.0%    100.0%      0.0%
 flops     5 x     4 x     5              8240000       0.0%    100.0%      0.0%
 flops     4 x     4 x    13              8795904       0.0%    100.0%      0.0%
 flops    13 x     4 x     5             10712000       0.0%    100.0%      0.0%
 flops     5 x     4 x    13             10712000       0.0%    100.0%      0.0%
 flops     5 x     4 x     4             12830560       0.0%    100.0%      0.0%
 flops    13 x     4 x    13             13925600       0.0%    100.0%      0.0%
 flops    13 x     4 x     4             16971136       0.0%    100.0%      0.0%
 flops     4 x     4 x     4            856662016       0.0%    100.0%      0.0%
 flops inhomo. stacks                           0       0.0%      0.0%      0.0%
 flops total                       945.778752E+06       0.0%    100.0%      0.0%
 flops max/rank                    945.778752E+06       0.0%    100.0%      0.0%
 matmuls inhomo. stacks                         0       0.0%      0.0%      0.0%
 matmuls total                            6970127       0.0%    100.0%      0.0%
 number of processed stacks                 55983       0.0%    100.0%      0.0%
 average stack size                                     0.0     124.5       0.0
 marketing flops                     1.545198E+09
 -------------------------------------------------------------------------------
 # multiplications                          46584
 max memory usage/rank             506.830848E+06
 # max total images/rank                        1
 # max 3D layers                                1
 # MPI messages exchanged                       0
 -------------------------------------------------------------------------------

 -------------------------------------------------------------------------------
 -                                                                             -
 -                                DBM STATISTICS                               -
 -                                                                             -
 -------------------------------------------------------------------------------
    M  x    N  x    K                                          COUNT     PERCENT
 -------------------------------------------------------------------------------

 -------------------------------------------------------------------------------
 -                                                                             -
 -                                GRID STATISTICS                              -
 -                                                                             -
 -------------------------------------------------------------------------------
 LP    KERNEL             BACKEND                              COUNT     PERCENT
 2     collocate ortho    REF                                  60880      30.76%
 2     integrate ortho    REF                                  60880      30.76%
 3     collocate ortho    REF                                  31312      15.82%
 3     integrate ortho    REF                                  31312      15.82%
 4     collocate ortho    REF                                   6768       3.42%
 4     integrate ortho    REF                                   6768       3.42%
 0     collocate general  REF                                      6       0.00%
 -------------------------------------------------------------------------------

 MEMORY| Estimated peak process memory [MiB]                                 484

 -------------------------------------------------------------------------------
 -                                                                             -
 -                           R E F E R E N C E S                               -
 -                                                                             -
 -------------------------------------------------------------------------------
 
 CP2K version 2023.1 (Development Version), the CP2K developers group (2023).
 CP2K is freely available from https://www.cp2k.org/ .

 Kuehne,Thomas D.; Iannuzzi,Marcella; Del Ben,Mauro;
 Rybkin,Vladimir V.; Seewald,Patrick; Stein,Frederick; Laino,Teodoro;
 Khaliullin,Rustam Z.; Schuett,Ole; Schiffmann,Florian; Golze,Dorothea;
 Wilhelm,Jan; Chulkov,Sergey; Bani-Hashemian,Mohammad Hossein;
 Weber,Valery; Borstnik,Urban; Taillefumier,Mathieu;
 Jakobovits,Alice Shoshana; Lazzaro,Alfio; Pabst,Hans; Mueller,Tiziano;
 Schade,Robert; Guidon,Manuel; Andermatt,Samuel; Holmberg,Nico;
 Schenter,Gregory K.; Hehn,Anna; Bussy,Augustin; Belleflamme,Fabian;
 Tabacchi,Gloria; Gloess,Andreas; Lass,Michael; Bethune,Iain;
 Mundy,Christopher J.; Plessl,Christian; Watkins,Matt;
 VandeVondele,Joost; Krack,Matthias; Hutter,Juerg. 
 The Journal of Chemical Physics, 152 (19), (2020). 
 CP2K: An electronic structure and molecular dynamics software package -
 Quickstep: Efficient and accurate electronic structure calculations.
 https://doi.org/10.1063/5.0007045

 Schuett, O; VandeVondele, J. 
 Journal of Chemical Theory and Computation, 14, (2018). 
 Machine Learning Adaptive Basis Sets for Efficient Large Scale
 Density Functional Theory Simulation.
 https://doi.org/10.1021/acs.jctc.8b00378

 Schuett, Ole; Messmer, Peter; Hutter, Juerg; VandeVondele, Joost. 
 Electronic Structure Calculations on Graphics Processing Units, John
 Wiley & Sons, Ltd, 173-190 (2016). 
 GPU-Accelerated Sparse Matrix-Matrix Multiplication for
 Linear Scaling Density Functional Theory.
 https://doi.org/10.1002/9781118670712.ch8

 Heinecke, A; Henry, G; Hutchinson, M; Pabst, H. 
 Proceedings of Intl. Supercomputing Conference, 981-991 (2016). 
 LIBXSMM: Accelerating Small Matrix Multiplications
 by Runtime Code Generation.
 https://doi.org/10.1109/SC.2016.83

 Borstnik, U; VandeVondele, J; Weber, V; Hutter, J. 
 PARALLEL COMPUTING, 40 (5-6), 47-58 (2014). 
 Sparse matrix multiplication: The distributed block-compressed sparse
 row library.
 https://doi.org/10.1016/j.parco.2014.03.012

 Hutter, J; Iannuzzi, M; Schiffmann, F; VandeVondele, J. 
 WIREs Comput Mol Sci., 4 (1), 15-25 (2014). 
 CP2K: atomistic simulations of condensed matter systems.
 https://doi.org/10.1002/wcms.1159

 VandeVondele, J; Borstnik, U; Hutter, J. 
 JOURNAL OF CHEMICAL THEORY AND COMPUTATION, 8 (10), 3565-3573 (2012). 
 Linear Scaling Self-Consistent Field Calculations with Millions of Atoms
 in the Condensed Phase.
 https://doi.org/10.1021/ct200897x

 VandeVondele, J; Hutter, J. 
 JOURNAL OF CHEMICAL PHYSICS, 127 (11), 114105 (2007). 
 Gaussian basis sets for accurate calculations on molecular systems in
 gas and condensed phases.
 https://doi.org/10.1063/1.2770708

 Krack, M. 
 THEORETICAL CHEMISTRY ACCOUNTS, 114 (1-3), 145-152 (2005). 
 Pseudopotentials for H to Kr optimized for gradient-corrected
 exchange-correlation functionals.
 https://doi.org/10.1007/s00214-005-0655-y

 VandeVondele, J; Krack, M; Mohamed, F; Parrinello, M; Chassaing, T;
 Hutter, J. COMPUTER PHYSICS COMMUNICATIONS, 167 (2), 103-128 (2005). 
 QUICKSTEP: Fast and accurate density functional calculations using a
 mixed Gaussian and plane waves approach.
 https://doi.org/10.1016/j.cpc.2004.12.014

 Frigo, M; Johnson, SG. 
 PROCEEDINGS OF THE IEEE, 93 (2), 216-231 (2005). 
 The design and implementation of FFTW3.
 https://doi.org/10.1109/JPROC.2004.840301

 Niklasson, AMN; Tymczak, CJ; Challacombe, M. 
 JOURNAL OF CHEMICAL PHYSICS, 118 (19), 8611-8620 (2003). 
 Trace resetting density matrix purification in O(N)
 self-consistent-field theory.
 https://doi.org/10.1063/1.1559913

 Hartwigsen, C; Goedecker, S; Hutter, J. 
 PHYSICAL REVIEW B, 58 (7), 3641-3662 (1998). 
 Relativistic separable dual-space Gaussian pseudopotentials from H to Rn.
 https://doi.org/10.1103/PhysRevB.58.3641

 Lippert, G; Hutter, J; Parrinello, M. 
 MOLECULAR PHYSICS, 92 (3), 477-487 (1997). 
 A hybrid Gaussian and plane wave density functional scheme.
 https://doi.org/10.1080/002689797170220

 Perdew, JP; Burke, K; Ernzerhof, M. 
 PHYSICAL REVIEW LETTERS, 77 (18), 3865-3868 (1996). 
 Generalized gradient approximation made simple.
 https://doi.org/10.1103/PhysRevLett.77.3865

 Goedecker, S; Teter, M; Hutter, J. 
 PHYSICAL REVIEW B, 54 (3), 1703-1710 (1996). 
 Separable dual-space Gaussian pseudopotentials.
 https://doi.org/10.1103/PhysRevB.54.1703


 -------------------------------------------------------------------------------
 -                                                                             -
 -                                T I M I N G                                  -
 -                                                                             -
 -------------------------------------------------------------------------------
 SUBROUTINE                       CALLS  ASD         SELF TIME        TOTAL TIME
                                MAXIMUM       AVERAGE  MAXIMUM  AVERAGE  MAXIMUM
 CP2K                                 1  1.0    0.013    0.013   86.237   86.237
 qs_energies                          1  2.0    0.000    0.000   85.374   85.374
 ls_scf                               1  3.0    0.000    0.000   85.241   85.241
 ls_scf_main                          7  4.0    0.002    0.002   56.123   56.123
 ls_scf_dm_to_ks                     15  5.0    0.001    0.001   55.865   55.865
 qs_ks_update_qs_env                 16  6.0    0.000    0.000   45.535   45.535
 rebuild_ks_matrix                   16  7.0    0.000    0.000   45.533   45.533
 qs_ks_build_kohn_sham_matrix        16  8.0    0.006    0.006   45.533   45.533
 qs_vxc_create                       16  9.0    0.001    0.001   27.767   27.767
 xc_vxc_pw_create                    16 10.0    0.575    0.575   27.766   27.766
 pw_transfer                        305 11.1    0.067    0.067   24.122   24.122
 pao_update                           7  4.0    0.019    0.019   23.724   23.724
 fft_wrap_pw1pw2                    273 12.3    0.007    0.007   23.355   23.355
 fft_wrap_pw1pw2_200                177 13.7    2.527    2.527   22.397   22.397
 pao_calc_energy                    870  5.0    0.007    0.007   21.437   21.437
 dbcsr_multiply_generic           46584  8.4    0.939    0.939   17.345   17.345
 xc_pw_derive                        96 12.0    0.003    0.003   16.510   16.510
 xc_rho_set_and_dset_create          16 11.0    0.603    0.603   16.124   16.124
 qs_rho_update_rho_low               16  6.0    0.000    0.000   15.596   15.596
 calculate_rho_elec                  16  7.0    0.078    0.078   15.596   15.596
 sum_up_and_integrate                16  9.0    0.389    0.389   13.203   13.203
 integrate_v_rspace                  16 10.0    0.002    0.002   12.814   12.814
 pao_dm_trs4                        870  6.0    0.007    0.007   10.892   10.892
 xc_pw_divergence                    16 11.0    0.001    0.001   10.663   10.663
 density_matrix_trs4                885  7.0    0.348    0.348   10.522   10.522
 ls_scf_init_matrix_S               877  7.0    0.006    0.006   10.493   10.493
 pao_rebuild_S                      870  6.0    0.003    0.003   10.409   10.409
 grid_integrate_task_list            16 11.0   10.000   10.000   10.000   10.000
 fft3d_s                            274 14.2    9.877    9.877    9.918    9.918
 grid_collocate_task_list            16  8.0    9.628    9.628    9.628    9.628
 matrix_sqrt_Newton_Schulz          877  8.0    0.237    0.237    9.492    9.492
 multiply_cannon                  46584  9.4    2.719    2.719    6.618    6.618
 make_m2s                         93168  9.4    0.428    0.428    6.510    6.510
 xc_functional_eval                  16 12.0    0.000    0.000    6.271    6.271
 pbe_lda_eval                        16 13.0    6.271    6.271    6.271    6.271
 density_rs2pw                       16  8.0    0.002    0.002    5.890    5.890
 make_images                      93168 10.4    1.443    1.443    5.793    5.793
 pw_scatter_s                       144 14.7    5.459    5.459    5.459    5.459
 pw_gather_s                        129 13.8    5.328    5.328    5.328    5.328
 pao_guess_initial_P                  1  4.0    0.000    0.000    5.276    5.276
 pao_read_preopt_dm                   1  5.0    0.000    0.000    5.276    5.276
 pw_derive                           96 13.0    3.402    3.402    3.402    3.402
 arnoldi_extremal                  1762  8.5    0.007    0.007    3.277    3.277
 arnoldi_normal_ev                 1762  9.5    0.023    0.023    3.270    3.270
 potential_pw2rs                     16 11.0    0.008    0.008    2.812    2.812
 pw_copy                            192 11.8    2.627    2.627    2.627    2.627
 build_subspace                    1762 10.5    0.158    0.158    2.443    2.443
 pao_calc_AB                       1142  5.8    0.002    0.002    2.268    2.268
 pao_calc_AB_equi                  1142  6.8    0.070    0.070    2.266    2.266
 dbcsr_matrix_vector_mult         42278 11.5    0.289    0.289    2.238    2.238
 pao_calc_grad_lnv_wrt_AB           271  7.0    0.012    0.012    2.066    2.066
 dbcsr_create_new                357744 10.7    1.193    1.193    1.891    1.891
 multiply_cannon_loop             46584 10.4    0.223    0.223    1.808    1.808
 dbcsr_finalize                  111478  9.6    0.369    0.369    1.782    1.782
 pw_poisson_solve                    16  9.0    0.356    0.356    1.770    1.770
 -------------------------------------------------------------------------------

 The number of warnings for this run is : 0
 
 -------------------------------------------------------------------------------
  **** **** ******  **  PROGRAM ENDED AT                 2023-02-01 10:49:22.323
 ***** ** ***  *** **   PROGRAM RAN ON                                    moritz
 **    ****   ******    PROGRAM RAN BY                                       ole
 ***** **    ** ** **   PROGRAM PROCESS ID                                148813
  **** **  *******  **  PROGRAM STOPPED IN /home/ole/git/pao_ml_equivar/2H2O_MD/
                                           frame_1800
