 DBCSR| CPU Multiplication driver                                           BLAS
 DBCSR| Multrec recursion limit                                              512
 DBCSR| Multiplication stack size                                           1000
 DBCSR| Maximum elements for images                                    UNLIMITED
 DBCSR| Multiplicative factor virtual images                                   1
 DBCSR| Use multiplication densification                                       T
 DBCSR| Multiplication size stacks                                             3


  **** **** ******  **  PROGRAM STARTED AT               2019-03-28 17:34:32.381
 ***** ** ***  *** **   PROGRAM STARTED ON        oleschuett.zrh.corp.google.com
 **    ****   ******    PROGRAM STARTED BY                            oleschuett
 ***** **    ** ** **   PROGRAM PROCESS ID                                 37207
  **** **  *******  **  PROGRAM STARTED IN /usr/local/google/home/oleschuett/git
                                           /pao_ml_equivar/2H2O_rotations/rand_1
                                           5

 CP2K| version string:                    CP2K version 7.0 (Development Version)
 CP2K| source code revision number:                                git:d9814d431
 CP2K| cp2kflags: libint fftw3 libxc libderiv_max_am1=5 libint_max_am=6         
 CP2K| is freely available from                            https://www.cp2k.org/
 CP2K| Program compiled at                          Mon Mar 25 16:50:07 CET 2019
 CP2K| Program compiled on                        oleschuett.zrh.corp.google.com
 CP2K| Program compiled for                                                local
 CP2K| Data directory path       /usr/local/google/home/oleschuett/git/cp2k/data
 CP2K| Input file name                                            2H2O_pao44.inp

 GLOBAL| Force Environment number                                              1
 GLOBAL| Basis set file name                                        BASIS_MOLOPT
 GLOBAL| Potential file name                                      GTH_POTENTIALS
 GLOBAL| MM Potential file name                                     MM_POTENTIAL
 GLOBAL| Coordinate file name                                         coords.xyz
 GLOBAL| Method name                                                        CP2K
 GLOBAL| Project name                                                 2H2O_pao44
 GLOBAL| Preferred FFT library                                             FFTW3
 GLOBAL| Preferred diagonalization lib.                                       SL
 GLOBAL| Run type                                                         ENERGY
 GLOBAL| All-to-all communication in single precision                          F
 GLOBAL| FFTs using library dependent lengths                                  F
 GLOBAL| Global print level                                                  LOW
 GLOBAL| MPI I/O enabled                                                       T
 GLOBAL| Total number of message passing processes                             1
 GLOBAL| Number of threads for this process                                    1
 GLOBAL| This output is from process                                           0
 GLOBAL| CPU model name :  Intel(R) Xeon(R) CPU E5-1650 v4 @ 3.60GHz

 MEMORY| system memory details [Kb]
 MEMORY|                        rank 0           min           max       average
 MEMORY| MemTotal             65953612      65953612      65953612      65953612
 MEMORY| MemFree               4286488       4286488       4286488       4286488
 MEMORY| Buffers               2542464       2542464       2542464       2542464
 MEMORY| Cached               25347344      25347344      25347344      25347344
 MEMORY| Slab                  3622756       3622756       3622756       3622756
 MEMORY| SReclaimable          2421536       2421536       2421536       2421536
 MEMORY| MemLikelyFree        34597832      34597832      34597832      34597832


 GENERATE|  Preliminary Number of Bonds generated:                             0
 GENERATE|  Achieved consistency in connectivity generation.

 *******************************************************************************
 *******************************************************************************
 **                                                                           **
 **     #####                         ##              ##                      **
 **    ##   ##            ##          ##              ##                      **
 **   ##     ##                       ##            ######                    **
 **   ##     ##  ##   ##  ##   #####  ##  ##   ####   ##    #####    #####    **
 **   ##     ##  ##   ##  ##  ##      ## ##   ##      ##   ##   ##  ##   ##   **
 **   ##  ## ##  ##   ##  ##  ##      ####     ###    ##   ######   ######    **
 **    ##  ###   ##   ##  ##  ##      ## ##      ##   ##   ##       ##        **
 **     #######   #####   ##   #####  ##  ##  ####    ##    #####   ##        **
 **           ##                                                    ##        **
 **                                                                           **
 **                                                ... make the atoms dance   **
 **                                                                           **
 **            Copyright (C) by CP2K developers group (2000 - 2018)           **
 **                                                                           **
 *******************************************************************************


 TOTAL NUMBERS AND MAXIMUM NUMBERS

  Total number of            - Atomic kinds:                                   2
                             - Atoms:                                          6
                             - Shell sets:                                     6
                             - Shells:                                        22
                             - Primitive Cartesian functions:                 42
                             - Cartesian basis functions:                     48
                             - Spherical basis functions:                     46

  Maximum angular momentum of- Orbital basis functions:                        2
                             - Local part of the GTH pseudopotential:          2
                             - Non-local part of the GTH pseudopotential:      0

 ------------------------------ Linear scaling SCF -----------------------------
 eps_scf:                                                              0.100E-07
 eps_filter:                                                           0.100E-07
 mixing_fraction:                                                      0.450E+00
 max_scf:                                                                     25
 fixed chemical potential (mu)                                                 F
 has unit metric:                                                              F
 Computing inv(S):                                                             T
 Computing sqrt(S):                                                            T
 Computing s preconditioner                                                    F
 sign sqrt order:                                                              3
 Extrapolation order:                                                          1
 Use single precision matrices                                                 F
 S preconditioner type                                                      NONE
 Polarized Atomic Orbitals (PAO)                                               T
 Purification method                                   Trace resetting 4th order
 Cluster type                                                             ATOMIC
 Computing Chebyshev                                                       FALSE
 Using PAO                                                                     T
 -------------------------------------------------------------------------------

 
 PAO|                                  EPS_PAO                           0.1E-04
 PAO|                                  MIXING                            0.5E+00
 PAO|                                  MAX_PAO                              1000
 PAO|                                  MAX_CYCLES                           1000
 PAO|                                  PARAMETERIZATION                   DIRECT
 PAO|                                  PRECONDITION                            F
 PAO|                                  REGULARIZATION                    0.0E+00
 PAO|                                  EPS_PGF                           0.1E-09
 PAO|                                  PENALTY_DISTANCE                  0.1E+00
 PAO|                                  PENALTY_STRENGTH                  0.5E-02
 PAO|                                  LINPOT_PRECONDITION_DELTA         0.0E+00
 PAO|                                  LINPOT_INITGUESS_DELT             0.0E+00
 PAO|                                  LINPOT_REGULARIZATION_DELTA       0.0E+00
 PAO|                                  LINPOT_REGULARIZATION_STRENGTH    0.0E+00
 PAO|                                  OPTIMIZER                              CG
 PAO|                                  CG_INIT_STEPS                           2
 PAO|                                  CG_RESET_LIMIT                    0.1E+00
 PAO|                                  CHECK_UNITARY_TOL                -0.1E+01
 PAO|                                  CHECK_GRADIENT_TOL               -0.1E+01
 PAO|                                  NUM_GRADIENT_ORDER                      2
 PAO|                                  NUM_GRADIENT_EPS                  0.1E-07
 PAO|                                  PRINT%RESTART%WRITE_CYCLES            100
 PAO|                                  RESTART_FILE 
 PAO|                                  PREOPT_DM_FILE 2H2O_ref_LS_DM_SPIN_1_RESTART.dm
 PAO|                                  MACHINE_LEARNING%METHOD        GAUSSIAN_P
 PAO|                                  MACHINE_LEARNING%PRIOR               ZERO
 PAO|                                  MACHINE_LEARNING%DESCRIPTOR     POTENTIAL
 PAO|                                  MACHINE_LEARNING%TOLERANCE        0.1E-01
 PAO|                                  MACHINE_LEARNING%GP_NOISE_VAR     0.1E+00
 PAO|                                  MACHINE_LEARNING%GP_SCALE         0.5E-01
 

 Calculating atomic Fock matrix for atomic kind: O

 Electronic structure
    Total number of core electrons                                          2.00
    Total number of valence electrons                                       6.00
    Total number of electrons                                               8.00
    Multiplicity                                                   not specified
    S   [  2.00] 2.00
    P      4.00


 *******************************************************************************
                  Iteration          Convergence                     Energy [au]
 *******************************************************************************
                          1        0.708315                     -15.576645311500
                          2        0.608879                     -15.587933561584
                          3        0.102828E-01                 -15.656849565404
                          4        0.113889E-02                 -15.656866888140
                          5        0.434197E-03                 -15.656867072159
                          6        0.263771E-03                 -15.656867091904
                          7        0.478536E-06                 -15.656867103452

 Energy components [Hartree]           Total Energy ::          -15.656867103452
                                        Band Energy ::           -3.000198112285
                                     Kinetic Energy ::           11.759971203220
                                   Potential Energy ::          -27.416838306672
                                      Virial (-V/T) ::            2.331369510426
                                        Core Energy ::          -26.140716385623
                                          XC Energy ::           -3.154051012914
                                     Coulomb Energy ::           13.637900295084
                       Total Pseudopotential Energy ::          -37.935781716540
                       Local Pseudopotential Energy ::          -39.218907440693
                    Nonlocal Pseudopotential Energy ::            1.283125724153
                                        Confinement ::            0.350941276976

 Orbital energies  State     L     Occupation   Energy[a.u.]          Energy[eV]

                       1     0          2.000      -0.864471          -23.523463

                       1     1          4.000      -0.317814           -8.648154


 Total Electron Density at R=0:                                         0.000068

 Calculating atomic Fock matrix for atomic kind: H

 Electronic structure
    Total number of core electrons                                          0.00
    Total number of valence electrons                                       1.00
    Total number of electrons                                               1.00
    Multiplicity                                                   not specified
    S      1.00


 *******************************************************************************
                  Iteration          Convergence                     Energy [au]
 *******************************************************************************
                          1        0.437545E-02                  -0.424159432110
                          2        0.531356E-03                  -0.424178438213
                          3        0.259176E-06                  -0.424178722480

 Energy components [Hartree]           Total Energy ::           -0.424178722480
                                        Band Energy ::           -0.199015229016
                                     Kinetic Energy ::            0.464007633961
                                   Potential Energy ::           -0.888186356441
                                      Virial (-V/T) ::            1.914163240935
                                        Core Energy ::           -0.479160803564
                                          XC Energy ::           -0.244352904054
                                     Coulomb Energy ::            0.299334985138
                       Total Pseudopotential Energy ::           -0.962295316385
                       Local Pseudopotential Energy ::           -0.962295316385
                    Nonlocal Pseudopotential Energy ::            0.000000000000
                                        Confinement ::            0.191268788606

 Orbital energies  State     L     Occupation   Energy[a.u.]          Energy[eV]

                       1     0          1.000      -0.199015           -5.415480


 Total Electron Density at R=0:                                         0.242907
 PAO| Made initial guess for matrix_X with norm:   4.8989794855663558     

     Lanczos converged:  T threshold:   0.100E-02
     Est. extremal eigenvalues:    0.336E+01   0.111E+00
     Est. condition number :    0.303E+02
     NS sqrt iter    1 1.00000000   0.820E+00       0.002       25.872
     NS sqrt iter    2 1.00000000   0.440E+00       0.002       58.541
     NS sqrt iter    3 1.00000000   0.171E+00       0.002       57.491
     NS sqrt iter    4 1.00000000   0.212E-01       0.002       60.848
     NS sqrt iter    5 1.00000000   0.617E-04       0.002       54.365
     Final NS sqrt iter    5 1.00000000   0.234E-08

 PAO| Read restart DM 2H2O_ref_LS_DM_SPIN_1_RESTART.dm with checksum:    71.549877772736181     
 PAO| Quickstep energy from restart density:  -34.449878035912377     
 PAO| ======================= Iteration:         1 =============================

     Lanczos converged:  T threshold:   0.100E-02
     Est. extremal eigenvalues:    0.336E+01   0.111E+00
     Est. condition number :    0.303E+02
     NS sqrt iter    1 1.00000000   0.820E+00       0.001       43.009
     NS sqrt iter    2 1.00000000   0.440E+00       0.002       64.048
     NS sqrt iter    3 1.00000000   0.171E+00       0.002       63.685
     NS sqrt iter    4 1.00000000   0.212E-01       0.002       72.971
     NS sqrt iter    5 1.00000000   0.617E-04       0.001       64.308
     Final NS sqrt iter    5 1.00000000   0.234E-08

     Est. extremal eigenvalues     -0.92177     1.96416  converged:  T
     TRS4 it   1 1.00000000   0.902E+00       0.001       16.128   0.100E-07
     TRS4 it   2 1.00000000   0.712E+00       0.001       32.256   0.100E-07
     TRS4 it   3 1.00000000   0.508E+00       0.001       32.256   0.100E-07
     TRS4 it   4 1.00000000   0.321E+00       0.001       32.256   0.100E-07
     TRS4 it   5 1.00000000   0.161E+00       0.001       32.256   0.100E-07
     TRS4 it   6 1.00000000   0.520E-01       0.001       32.256   0.100E-07
     TRS4 it   7 1.00000000   0.769E-02       0.001       32.256   0.100E-07
     TRS4 it   8 1.00000000   0.238E-03       0.001       32.256   0.100E-07
     TRS4 it   9 1.00000000   0.253E-06       0.001       32.256   0.100E-07
     TRS4 it  10 1.00000000   0.288E-12       0.001       32.256   0.100E-07
     Final TRS4 iteration   10 1.00000000   0.288E-12
     Chemical potential (mu):      -0.06704
 
 PAO| energy:  -7.6399892938401806      penalty:   5.0536401740721086E-033
 PAO|CG| warming up with steepest descent
 PAO|CG| beta:    0.0000000000000000     
 PAO| norm of gradient:  0.78353230118878570     
 PAO|LS| adapt:  T F F
 PAO|LS| adapt: scan_steps:    0.0000000000000000        0.0000000000000000        0.0000000000000000     
 PAO|LS| adapt: energies:   -7.6399892938401806        0.0000000000000000        0.0000000000000000     
 PAO| ======================= Iteration:         2 =============================

     Lanczos converged:  T threshold:   0.100E-02
     Est. extremal eigenvalues:    0.327E+01   0.123E+00
     Est. condition number :    0.266E+02
     NS sqrt iter    1 1.00000000   0.803E+00       0.002       41.618
     NS sqrt iter    2 1.00000000   0.424E+00       0.002       64.657
     NS sqrt iter    3 1.00000000   0.154E+00       0.002       63.626
     NS sqrt iter    4 1.00000000   0.148E-01       0.002       67.246
     NS sqrt iter    5 1.00000000   0.212E-04       0.001       76.421
     Final NS sqrt iter    5 1.00000000   0.706E-09

     Est. extremal eigenvalues     -0.92545     1.90574  converged:  T
     TRS4 it   1 1.00000000   0.900E+00       0.000       16.128   0.100E-07
     TRS4 it   2 1.00000000   0.693E+00       0.001       32.256   0.100E-07
     TRS4 it   3 1.00000000   0.493E+00       0.001       32.256   0.100E-07
     TRS4 it   4 1.00000000   0.302E+00       0.001       32.256   0.100E-07
     TRS4 it   5 1.00000000   0.142E+00       0.001       32.256   0.100E-07
     TRS4 it   6 1.00000000   0.409E-01       0.001       32.256   0.100E-07
     TRS4 it   7 1.00000000   0.480E-02       0.001       32.256   0.100E-07
     TRS4 it   8 1.00000000   0.935E-04       0.001       32.256   0.100E-07
     TRS4 it   9 1.00000000   0.389E-07       0.001       32.256   0.100E-07
     Final TRS4 iteration    9 1.00000000   0.389E-07
     Chemical potential (mu):      -0.05518
 
 PAO| energy:  -7.6954813382987144      penalty:   2.2531845498233213E-008
 PAO|LS| adapt:  T T F
 PAO|LS| adapt: scan_steps:    0.0000000000000000       0.10000000000000001        0.0000000000000000     
 PAO|LS| adapt: energies:   -7.6399892938401806       -7.6954813382987144        0.0000000000000000     
 PAO| ======================= Iteration:         3 =============================

     Lanczos converged:  T threshold:   0.100E-02
     Est. extremal eigenvalues:    0.318E+01   0.134E+00
     Est. condition number :    0.237E+02
     NS sqrt iter    1 1.00000000   0.785E+00       0.001       60.124
     NS sqrt iter    2 1.00000000   0.408E+00       0.001       89.622
     NS sqrt iter    3 1.00000000   0.137E+00       0.001       82.473
     NS sqrt iter    4 1.00000000   0.103E-01       0.001       92.777
     NS sqrt iter    5 1.00000000   0.753E-05       0.002       49.841
     Final NS sqrt iter    5 1.00000000   0.891E-10

     Est. extremal eigenvalues     -0.92889     1.85669  converged:  T
     TRS4 it   1 1.00000000   0.898E+00       0.001       16.128   0.100E-07
     TRS4 it   2 1.00000000   0.676E+00       0.001       32.256   0.100E-07
     TRS4 it   3 1.00000000   0.479E+00       0.001       32.256   0.100E-07
     TRS4 it   4 1.00000000   0.283E+00       0.001       32.256   0.100E-07
     TRS4 it   5 1.00000000   0.124E+00       0.001       32.256   0.100E-07
     TRS4 it   6 1.00000000   0.311E-01       0.001       32.256   0.100E-07
     TRS4 it   7 1.00000000   0.278E-02       0.001       32.256   0.100E-07
     TRS4 it   8 1.00000000   0.314E-04       0.001       32.256   0.100E-07
     TRS4 it   9 1.00000000   0.440E-08       0.001       32.256   0.100E-07
     Final TRS4 iteration    9 1.00000000   0.440E-08
     Chemical potential (mu):      -0.04236
 
 PAO| energy:  -7.7385186158167691      penalty:   3.6050930688493477E-007
 PAO|LS| adapt:  T T F
 PAO|LS| adapt: scan_steps:    0.0000000000000000       0.20000000000000001        0.0000000000000000     
 PAO|LS| adapt: energies:   -7.6399892938401806       -7.7385186158167691        0.0000000000000000     
 PAO| ======================= Iteration:         4 =============================

     Lanczos converged:  T threshold:   0.100E-02
     Est. extremal eigenvalues:    0.298E+01   0.152E+00
     Est. condition number :    0.196E+02
     NS sqrt iter    1 1.00000000   0.748E+00       0.001       58.533
     NS sqrt iter    2 1.00000000   0.373E+00       0.001       92.425
     NS sqrt iter    3 1.00000000   0.107E+00       0.001       97.892
     NS sqrt iter    4 1.00000000   0.510E-02       0.001       97.478
     NS sqrt iter    5 1.00000000   0.109E-05       0.001       78.224
     Final NS sqrt iter    5 1.00000000   0.193E-11

     Est. extremal eigenvalues     -0.93422     1.78087  converged:  T
     TRS4 it   1 1.00000000   0.892E+00       0.000       16.128   0.100E-07
     TRS4 it   2 1.00000000   0.647E+00       0.001       32.256   0.100E-07
     TRS4 it   3 1.00000000   0.450E+00       0.001       32.256   0.100E-07
     TRS4 it   4 1.00000000   0.247E+00       0.001       32.256   0.100E-07
     TRS4 it   5 1.00000000   0.926E-01       0.001       32.256   0.100E-07
     TRS4 it   6 1.00000000   0.167E-01       0.001       32.256   0.100E-07
     TRS4 it   7 1.00000000   0.762E-03       0.001       32.256   0.100E-07
     TRS4 it   8 1.00000000   0.229E-05       0.001       32.256   0.100E-07
     TRS4 it   9 1.00000000   0.234E-10       0.001       32.256   0.100E-07
     Final TRS4 iteration    9 1.00000000   0.234E-10
     Chemical potential (mu):      -0.01396
 
 PAO| energy:  -7.7856441981077582      penalty:   5.7681471414683987E-006
 PAO|LS| Need extra step
 PAO|LS| adapt:  T T F
 PAO|LS| adapt: scan_steps:    0.0000000000000000       0.40000000000000002        0.0000000000000000     
 PAO|LS| adapt: energies:   -7.6399892938401806       -7.7856441981077582        0.0000000000000000     
 PAO| ======================= Iteration:         5 =============================

     Lanczos converged:  T threshold:   0.100E-02
     Est. extremal eigenvalues:    0.263E+01   0.182E+00
     Est. condition number :    0.144E+02
     NS sqrt iter    1 1.00000000   0.685E+00       0.001       54.851
     NS sqrt iter    2 1.00000000   0.312E+00       0.001       95.743
     NS sqrt iter    3 1.00000000   0.663E-01       0.001       96.911
     NS sqrt iter    4 1.00000000   0.139E-02       0.001       80.443
     NS sqrt iter    5 1.00000000   0.256E-07       0.001       52.750
     Final NS sqrt iter    5 1.00000000   0.346E-08

     Est. extremal eigenvalues     -0.93543     1.68677  converged:  T
     TRS4 it   1 1.00000000   0.883E+00       0.000       16.128   0.100E-07
     TRS4 it   2 1.00000000   0.604E+00       0.001       23.796   0.100E-07
     TRS4 it   3 1.00000000   0.400E+00       0.001       32.256   0.100E-07
     TRS4 it   4 1.00000000   0.188E+00       0.001       32.256   0.100E-07
     TRS4 it   5 1.00000000   0.502E-01       0.001       32.256   0.100E-07
     TRS4 it   6 1.00000000   0.442E-02       0.001       32.256   0.100E-07
     TRS4 it   7 1.00000000   0.440E-04       0.001       32.256   0.100E-07
     TRS4 it   8 1.00000000   0.552E-08       0.001       32.256   0.100E-07
     Final TRS4 iteration    8 1.00000000   0.552E-08
     Chemical potential (mu):       0.03676
 
 PAO| energy:  -7.7306412231099948      penalty:   9.2290340113988946E-005
 PAO|LS| Need extra step
 PAO|LS| adapt:  T T T
 PAO|LS| adapt: scan_steps:    0.0000000000000000       0.40000000000000002       0.80000000000000004     
 PAO|LS| adapt: energies:   -7.6399892938401806       -7.7856441981077582       -7.7306412231099948     
 PAO|LS| adapt: suggested step_size:   0.49035471679628406     
 PAO|LS| adapt: predicted energy  -7.7907634664803895     
 PAO| ======================= Iteration:         6 =============================

     Lanczos converged:  T threshold:   0.100E-02
     Est. extremal eigenvalues:    0.290E+01   0.160E+00
     Est. condition number :    0.181E+02
     NS sqrt iter    1 1.00000000   0.732E+00       0.002       39.959
     NS sqrt iter    2 1.00000000   0.358E+00       0.002       60.214
     NS sqrt iter    3 1.00000000   0.957E-01       0.002       59.148
     NS sqrt iter    4 1.00000000   0.376E-02       0.001       73.730
     NS sqrt iter    5 1.00000000   0.463E-06       0.002       48.381
     Final NS sqrt iter    5 1.00000000   0.361E-12

     Est. extremal eigenvalues     -0.93570     1.75414  converged:  T
     TRS4 it   1 1.00000000   0.890E+00       0.000       16.128   0.100E-07
     TRS4 it   2 1.00000000   0.636E+00       0.001       32.256   0.100E-07
     TRS4 it   3 1.00000000   0.438E+00       0.001       32.256   0.100E-07
     TRS4 it   4 1.00000000   0.232E+00       0.001       32.256   0.100E-07
     TRS4 it   5 1.00000000   0.804E-01       0.001       32.256   0.100E-07
     TRS4 it   6 1.00000000   0.123E-01       0.001       32.256   0.100E-07
     TRS4 it   7 1.00000000   0.395E-03       0.001       32.256   0.100E-07
     TRS4 it   8 1.00000000   0.590E-06       0.001       32.256   0.100E-07
     TRS4 it   9 1.00000000   0.154E-11       0.001       32.256   0.100E-07
     Final TRS4 iteration    9 1.00000000   0.154E-11
     Chemical potential (mu):      -0.00017
 
 PAO| energy:  -7.7900251946535040      penalty:   1.3026800715995866E-005
 PAO|CG| warming up with steepest descent
 PAO|CG| beta:    0.0000000000000000     
 PAO| norm of gradient:  0.41617804680533571     
 PAO| energy improvement: -0.15003590081332341     
 PAO| step      6                   -7.790025195  0.260E-01  0.490E+00     0.105
 PAO|LS| adapt:  T F F
 PAO|LS| adapt: scan_steps:    0.0000000000000000        0.0000000000000000        0.0000000000000000     
 PAO|LS| adapt: energies:   -7.7900251946535040        0.0000000000000000        0.0000000000000000     
 PAO| ======================= Iteration:         7 =============================

     Lanczos converged:  T threshold:   0.100E-02
     Est. extremal eigenvalues:    0.281E+01   0.173E+00
     Est. condition number :    0.163E+02
     NS sqrt iter    1 1.00000000   0.715E+00       0.001       58.346
     NS sqrt iter    2 1.00000000   0.338E+00       0.001       96.538
     NS sqrt iter    3 1.00000000   0.803E-01       0.001       76.518
     NS sqrt iter    4 1.00000000   0.233E-02       0.002       64.106
     NS sqrt iter    5 1.00000000   0.125E-06       0.003       25.763
     Final NS sqrt iter    5 1.00000000   0.883E-09

     Est. extremal eigenvalues     -0.93743     1.74288  converged:  T
     TRS4 it   1 1.00000000   0.890E+00       0.000       16.128   0.100E-07
     TRS4 it   2 1.00000000   0.634E+00       0.001       32.256   0.100E-07
     TRS4 it   3 1.00000000   0.438E+00       0.001       32.256   0.100E-07
     TRS4 it   4 1.00000000   0.233E+00       0.001       27.343   0.100E-07
     TRS4 it   5 1.00000000   0.815E-01       0.001       32.256   0.100E-07
     TRS4 it   6 1.00000000   0.124E-01       0.001       32.256   0.100E-07
     TRS4 it   7 1.00000000   0.381E-03       0.001       32.256   0.100E-07
     TRS4 it   8 1.00000000   0.527E-06       0.001       32.256   0.100E-07
     TRS4 it   9 1.00000000   0.122E-11       0.001       32.256   0.100E-07
     Final TRS4 iteration    9 1.00000000   0.122E-11
     Chemical potential (mu):       0.00115
 
 PAO| energy:  -7.7843662837030880      penalty:   1.9649860187130016E-005
 PAO|LS| adapt:  T F T
 PAO|LS| adapt: scan_steps:    0.0000000000000000        0.0000000000000000       0.49035471679628406     
 PAO|LS| adapt: energies:   -7.7900251946535040        0.0000000000000000       -7.7843662837030880     
 PAO| ======================= Iteration:         8 =============================

     Lanczos converged:  T threshold:   0.100E-02
     Est. extremal eigenvalues:    0.285E+01   0.166E+00
     Est. condition number :    0.172E+02
     NS sqrt iter    1 1.00000000   0.723E+00       0.002       33.777
     NS sqrt iter    2 1.00000000   0.348E+00       0.002       64.344
     NS sqrt iter    3 1.00000000   0.879E-01       0.002       62.981
     NS sqrt iter    4 1.00000000   0.298E-02       0.003       42.081
     NS sqrt iter    5 1.00000000   0.244E-06       0.002       48.985
     Final NS sqrt iter    5 1.00000000   0.602E-09

     Est. extremal eigenvalues     -0.93751     1.74796  converged:  T
     TRS4 it   1 1.00000000   0.889E+00       0.001       16.128   0.100E-07
     TRS4 it   2 1.00000000   0.635E+00       0.001       32.256   0.100E-07
     TRS4 it   3 1.00000000   0.438E+00       0.001       32.256   0.100E-07
     TRS4 it   4 1.00000000   0.232E+00       0.005        6.349   0.100E-07
     TRS4 it   5 1.00000000   0.807E-01       0.001       24.612   0.100E-07
     TRS4 it   6 1.00000000   0.124E-01       0.004        7.815   0.100E-07
     TRS4 it   7 1.00000000   0.399E-03       0.001       32.256   0.100E-07
     TRS4 it   8 1.00000000   0.594E-06       0.001       32.189   0.100E-07
     TRS4 it   9 1.00000000   0.156E-11       0.004        9.171   0.100E-07
     Final TRS4 iteration    9 1.00000000   0.156E-11
     Chemical potential (mu):      -0.00004
 
 PAO| energy:  -7.8096109807063678      penalty:   1.4112207129752790E-005
 PAO|LS| adapt:  T T T
 PAO|LS| adapt: scan_steps:    0.0000000000000000       0.24517735839814203       0.49035471679628406     
 PAO|LS| adapt: energies:   -7.7900251946535040       -7.8096109807063678       -7.7843662837030880     
 PAO|LS| adapt: suggested step_size:   0.22970310133408436     
 PAO|LS| adapt: predicted energy  -7.8097002706017742     
 PAO| ======================= Iteration:         9 =============================

     Lanczos converged:  T threshold:   0.100E-02
     Est. extremal eigenvalues:    0.286E+01   0.166E+00
     Est. condition number :    0.172E+02
     NS sqrt iter    1 1.00000000   0.724E+00       0.001       58.709
     NS sqrt iter    2 1.00000000   0.349E+00       0.001       76.133
     NS sqrt iter    3 1.00000000   0.883E-01       0.001       93.534
     NS sqrt iter    4 1.00000000   0.302E-02       0.003       39.895
     NS sqrt iter    5 1.00000000   0.255E-06       0.001       62.225
     Final NS sqrt iter    5 1.00000000   0.628E-09

     Est. extremal eigenvalues     -0.93745     1.74832  converged:  T
     TRS4 it   1 1.00000000   0.889E+00       0.001       16.128   0.100E-07
     TRS4 it   2 1.00000000   0.635E+00       0.001       29.089   0.100E-07
     TRS4 it   3 1.00000000   0.438E+00       0.001       31.387   0.100E-07
     TRS4 it   4 1.00000000   0.232E+00       0.001       32.256   0.100E-07
     TRS4 it   5 1.00000000   0.807E-01       0.001       32.256   0.100E-07
     TRS4 it   6 1.00000000   0.124E-01       0.001       31.178   0.100E-07
     TRS4 it   7 1.00000000   0.399E-03       0.001       32.256   0.100E-07
     TRS4 it   8 1.00000000   0.596E-06       0.001       32.256   0.100E-07
     TRS4 it   9 1.00000000   0.157E-11       0.005        6.287   0.100E-07
     Final TRS4 iteration    9 1.00000000   0.157E-11
     Chemical potential (mu):      -0.00008
 
 PAO| energy:  -7.8097229230927105      penalty:   1.3948601817089592E-005
 PAO|CG| trace_G_new    3.6657349282307565E-002
 PAO|CG| trace_G_prev   0.17320416664270419     
 PAO|CG| trace_G_mix   -1.4188315519379456E-003
 PAO|CG| trace_D   0.17320416664270419     
 PAO|CG| trace_D_Gnew   1.4188315519379456E-003
 PAO|CG| beta:   0.21983409274900012     
 PAO| norm of gradient:  0.19146109077906029     
 PAO| energy improvement:  -1.9697728439206585E-002
 PAO| step      9                   -7.809722923  0.120E-01  0.230E+00     0.095
 PAO|LS| adapt:  T F F
 PAO|LS| adapt: scan_steps:    0.0000000000000000        0.0000000000000000        0.0000000000000000     
 PAO|LS| adapt: energies:   -7.8097229230927105        0.0000000000000000        0.0000000000000000     
 PAO| ======================= Iteration:        10 =============================

     Lanczos converged:  T threshold:   0.100E-02
     Est. extremal eigenvalues:    0.282E+01   0.172E+00
     Est. condition number :    0.164E+02
     NS sqrt iter    1 1.00000000   0.716E+00       0.005       14.193
     NS sqrt iter    2 1.00000000   0.340E+00       0.002       58.597
     NS sqrt iter    3 1.00000000   0.827E-01       0.002       67.584
     NS sqrt iter    4 1.00000000   0.249E-02       0.002       65.873
     NS sqrt iter    5 1.00000000   0.141E-06       0.002       50.917
     Final NS sqrt iter    5 1.00000000   0.998E-09

     Est. extremal eigenvalues     -0.93834     1.73926  converged:  T
     TRS4 it   1 1.00000000   0.886E+00       0.001       16.128   0.100E-07
     TRS4 it   2 1.00000000   0.632E+00       0.001       32.256   0.100E-07
     TRS4 it   3 1.00000000   0.435E+00       0.001       32.256   0.100E-07
     TRS4 it   4 1.00000000   0.228E+00       0.001       32.256   0.100E-07
     TRS4 it   5 1.00000000   0.782E-01       0.001       32.256   0.100E-07
     TRS4 it   6 1.00000000   0.116E-01       0.001       32.256   0.100E-07
     TRS4 it   7 1.00000000   0.343E-03       0.001       32.256   0.100E-07
     TRS4 it   8 1.00000000   0.431E-06       0.001       32.256   0.100E-07
     TRS4 it   9 1.00000000   0.816E-12       0.001       32.256   0.100E-07
     Final TRS4 iteration    9 1.00000000   0.816E-12
     Chemical potential (mu):       0.00306
 
 PAO| energy:  -7.8147198827660915      penalty:   1.4481097361545737E-005
 PAO|LS| adapt:  T T F
 PAO|LS| adapt: scan_steps:    0.0000000000000000       0.22970310133408436        0.0000000000000000     
 PAO|LS| adapt: energies:   -7.8097229230927105       -7.8147198827660915        0.0000000000000000     
 PAO| ======================= Iteration:        11 =============================

     Lanczos converged:  T threshold:   0.100E-02
     Est. extremal eigenvalues:    0.278E+01   0.178E+00
     Est. condition number :    0.157E+02
     NS sqrt iter    1 1.00000000   0.708E+00       0.001       62.727
     NS sqrt iter    2 1.00000000   0.332E+00       0.001       89.346
     NS sqrt iter    3 1.00000000   0.773E-01       0.001       91.990
     NS sqrt iter    4 1.00000000   0.204E-02       0.001       93.048
     NS sqrt iter    5 1.00000000   0.765E-07       0.001       74.178
     Final NS sqrt iter    5 1.00000000   0.720E-09

     Est. extremal eigenvalues     -0.93825     1.73118  converged:  T
     TRS4 it   1 1.00000000   0.884E+00       0.001       16.128   0.100E-07
     TRS4 it   2 1.00000000   0.629E+00       0.001       32.256   0.100E-07
     TRS4 it   3 1.00000000   0.432E+00       0.001       32.256   0.100E-07
     TRS4 it   4 1.00000000   0.225E+00       0.001       32.256   0.100E-07
     TRS4 it   5 1.00000000   0.757E-01       0.001       32.256   0.100E-07
     TRS4 it   6 1.00000000   0.108E-01       0.001       32.256   0.100E-07
     TRS4 it   7 1.00000000   0.294E-03       0.001       32.256   0.100E-07
     TRS4 it   8 1.00000000   0.307E-06       0.001       32.256   0.100E-07
     TRS4 it   9 1.00000000   0.408E-12       0.001       32.256   0.100E-07
     Final TRS4 iteration    9 1.00000000   0.408E-12
     Chemical potential (mu):       0.00633
 
 PAO| energy:  -7.8132580406430092      penalty:   1.5678035577718507E-005
 PAO|LS| adapt:  T T T
 PAO|LS| adapt: scan_steps:    0.0000000000000000       0.22970310133408436       0.45940620266816873     
 PAO|LS| adapt: energies:   -7.8097229230927105       -7.8147198827660915       -7.8132580406430092     
 PAO|LS| adapt: suggested step_size:   0.29256518399845755     
 PAO|LS| adapt: predicted energy  -7.8149617437274639     
 PAO| ======================= Iteration:        12 =============================

     Lanczos converged:  T threshold:   0.100E-02
     Est. extremal eigenvalues:    0.281E+01   0.173E+00
     Est. condition number :    0.162E+02
     NS sqrt iter    1 1.00000000   0.714E+00       0.001       57.338
     NS sqrt iter    2 1.00000000   0.338E+00       0.001       84.567
     NS sqrt iter    3 1.00000000   0.812E-01       0.001       90.822
     NS sqrt iter    4 1.00000000   0.236E-02       0.002       61.568
     NS sqrt iter    5 1.00000000   0.119E-06       0.002       52.148
     Final NS sqrt iter    5 1.00000000   0.846E-09

     Est. extremal eigenvalues     -0.93841     1.73695  converged:  T
     TRS4 it   1 1.00000000   0.886E+00       0.000       16.128   0.100E-07
     TRS4 it   2 1.00000000   0.631E+00       0.001       32.256   0.100E-07
     TRS4 it   3 1.00000000   0.434E+00       0.001       32.256   0.100E-07
     TRS4 it   4 1.00000000   0.227E+00       0.001       32.256   0.100E-07
     TRS4 it   5 1.00000000   0.775E-01       0.001       32.256   0.100E-07
     TRS4 it   6 1.00000000   0.114E-01       0.001       32.256   0.100E-07
     TRS4 it   7 1.00000000   0.329E-03       0.001       32.256   0.100E-07
     TRS4 it   8 1.00000000   0.394E-06       0.001       32.256   0.100E-07
     TRS4 it   9 1.00000000   0.677E-12       0.001       32.256   0.100E-07
     Final TRS4 iteration    9 1.00000000   0.677E-12
     Chemical potential (mu):       0.00394
 
 PAO| energy:  -7.8149458435757388      penalty:   1.4735151841690697E-005
 PAO|CG| trace_G_new    1.1725724058415465E-002
 PAO|CG| trace_G_prev    3.6657349282307565E-002
 PAO|CG| trace_G_mix   -4.6461070051392449E-004
 PAO|CG| trace_D    4.4403976857382919E-002
 PAO|CG| trace_D_Gnew   2.1317516714297645E-004
 PAO|CG| beta:   0.33254817922181229     
 PAO| norm of gradient:  0.10828538247804025     
 PAO| energy improvement:  -5.2229204830283038E-003
 PAO| step     12                   -7.814945844  0.677E-02  0.293E+00     0.073
 PAO|LS| adapt:  T F F
 PAO|LS| adapt: scan_steps:    0.0000000000000000        0.0000000000000000        0.0000000000000000     
 PAO|LS| adapt: energies:   -7.8149458435757388        0.0000000000000000        0.0000000000000000     
 PAO| ======================= Iteration:        13 =============================

     Lanczos converged:  T threshold:   0.100E-02
     Est. extremal eigenvalues:    0.277E+01   0.177E+00
     Est. condition number :    0.156E+02
     NS sqrt iter    1 1.00000000   0.707E+00       0.001       52.828
     NS sqrt iter    2 1.00000000   0.331E+00       0.001       82.929
     NS sqrt iter    3 1.00000000   0.769E-01       0.002       71.490
     NS sqrt iter    4 1.00000000   0.202E-02       0.001       96.433
     NS sqrt iter    5 1.00000000   0.752E-07       0.002       51.116
     Final NS sqrt iter    5 1.00000000   0.719E-09

     Est. extremal eigenvalues     -0.93889     1.72876  converged:  T
     TRS4 it   1 1.00000000   0.885E+00       0.001       16.128   0.100E-07
     TRS4 it   2 1.00000000   0.627E+00       0.001       32.256   0.100E-07
     TRS4 it   3 1.00000000   0.430E+00       0.001       32.256   0.100E-07
     TRS4 it   4 1.00000000   0.222E+00       0.001       32.256   0.100E-07
     TRS4 it   5 1.00000000   0.738E-01       0.001       32.256   0.100E-07
     TRS4 it   6 1.00000000   0.102E-01       0.001       32.256   0.100E-07
     TRS4 it   7 1.00000000   0.264E-03       0.001       32.256   0.100E-07
     TRS4 it   8 1.00000000   0.247E-06       0.001       32.141   0.100E-07
     TRS4 it   9 1.00000000   0.263E-12       0.001       32.256   0.100E-07
     Final TRS4 iteration    9 1.00000000   0.263E-12
     Chemical potential (mu):       0.00844
 
 PAO| energy:  -7.8169944342755482      penalty:   1.5030879209951159E-005
 PAO|LS| adapt:  T T F
 PAO|LS| adapt: scan_steps:    0.0000000000000000       0.29256518399845755        0.0000000000000000     
 PAO|LS| adapt: energies:   -7.8149458435757388       -7.8169944342755482        0.0000000000000000     
 PAO| ======================= Iteration:        14 =============================

     Lanczos converged:  T threshold:   0.100E-02
     Est. extremal eigenvalues:    0.274E+01   0.181E+00
     Est. condition number :    0.151E+02
     NS sqrt iter    1 1.00000000   0.700E+00       0.001       45.911
     NS sqrt iter    2 1.00000000   0.324E+00       0.002       68.132
     NS sqrt iter    3 1.00000000   0.728E-01       0.001       92.264
     NS sqrt iter    4 1.00000000   0.172E-02       0.001      101.666
     NS sqrt iter    5 1.00000000   0.473E-07       0.001       71.873
     Final NS sqrt iter    5 1.00000000   0.762E-09

     Est. extremal eigenvalues     -0.93888     1.72086  converged:  T
     TRS4 it   1 1.00000000   0.884E+00       0.000       16.128   0.100E-07
     TRS4 it   2 1.00000000   0.624E+00       0.001       32.256   0.100E-07
     TRS4 it   3 1.00000000   0.426E+00       0.001       32.256   0.100E-07
     TRS4 it   4 1.00000000   0.218E+00       0.001       32.256   0.100E-07
     TRS4 it   5 1.00000000   0.703E-01       0.001       32.256   0.100E-07
     TRS4 it   6 1.00000000   0.922E-02       0.001       32.256   0.100E-07
     TRS4 it   7 1.00000000   0.211E-03       0.001       32.256   0.100E-07
     TRS4 it   8 1.00000000   0.154E-06       0.001       32.256   0.100E-07
     TRS4 it   9 1.00000000   0.100E-12       0.001       32.256   0.100E-07
     Final TRS4 iteration    9 1.00000000   0.100E-12
     Chemical potential (mu):       0.01287
 
 PAO| energy:  -7.8163697812081754      penalty:   1.5796546937845040E-005
 PAO|LS| adapt:  T T T
 PAO|LS| adapt: scan_steps:    0.0000000000000000       0.29256518399845755       0.58513036799691509     
 PAO|LS| adapt: energies:   -7.8149458435757388       -7.8169944342755482       -7.8163697812081754     
 PAO|LS| adapt: suggested step_size:   0.37048448573786708     
 PAO|LS| adapt: predicted energy  -7.8170892441094821     
 PAO| ======================= Iteration:        15 =============================

     Lanczos converged:  T threshold:   0.100E-02
     Est. extremal eigenvalues:    0.277E+01   0.178E+00
     Est. condition number :    0.155E+02
     NS sqrt iter    1 1.00000000   0.705E+00       0.002       41.484
     NS sqrt iter    2 1.00000000   0.329E+00       0.002       66.506
     NS sqrt iter    3 1.00000000   0.758E-01       0.002       61.250
     NS sqrt iter    4 1.00000000   0.193E-02       0.002       68.831
     NS sqrt iter    5 1.00000000   0.665E-07       0.001       51.140
     Final NS sqrt iter    5 1.00000000   0.649E-09

     Est. extremal eigenvalues     -0.93894     1.72663  converged:  T
     TRS4 it   1 1.00000000   0.884E+00       0.001       16.128   0.100E-07
     TRS4 it   2 1.00000000   0.627E+00       0.001       23.068   0.100E-07
     TRS4 it   3 1.00000000   0.429E+00       0.001       32.256   0.100E-07
     TRS4 it   4 1.00000000   0.221E+00       0.001       32.256   0.100E-07
     TRS4 it   5 1.00000000   0.729E-01       0.001       32.256   0.100E-07
     TRS4 it   6 1.00000000   0.995E-02       0.001       32.256   0.100E-07
     TRS4 it   7 1.00000000   0.249E-03       0.001       32.256   0.100E-07
     TRS4 it   8 1.00000000   0.218E-06       0.001       32.256   0.100E-07
     TRS4 it   9 1.00000000   0.203E-12       0.001       32.256   0.100E-07
     Final TRS4 iteration    9 1.00000000   0.203E-12
     Chemical potential (mu):       0.00963
 
 PAO| energy:  -7.8170861763316646      penalty:   1.5185862433236940E-005
 PAO|CG| trace_G_new    2.5993794835971252E-003
 PAO|CG| trace_G_prev    1.1725724058415465E-002
 PAO|CG| trace_G_mix    6.4978611075035286E-005
 PAO|CG| trace_D    1.6494501967667771E-002
 PAO|CG| trace_D_Gnew   3.3442083021721926E-005
 PAO|CG| beta:   0.21614024514786095     
 PAO| norm of gradient:   5.0984110108906730E-002
 PAO| energy improvement:  -2.1403327559257335E-003
 PAO| step     15                   -7.817086176  0.319E-02  0.370E+00     0.071
 PAO|LS| adapt:  T F F
 PAO|LS| adapt: scan_steps:    0.0000000000000000        0.0000000000000000        0.0000000000000000     
 PAO|LS| adapt: energies:   -7.8170861763316646        0.0000000000000000        0.0000000000000000     
 PAO| ======================= Iteration:        16 =============================

     Lanczos converged:  T threshold:   0.100E-02
     Est. extremal eigenvalues:    0.276E+01   0.179E+00
     Est. condition number :    0.154E+02
     NS sqrt iter    1 1.00000000   0.703E+00       0.002       40.079
     NS sqrt iter    2 1.00000000   0.328E+00       0.002       70.640
     NS sqrt iter    3 1.00000000   0.751E-01       0.002       62.339
     NS sqrt iter    4 1.00000000   0.188E-02       0.001       90.935
     NS sqrt iter    5 1.00000000   0.613E-07       0.002       33.843
     Final NS sqrt iter    5 1.00000000   0.575E-09

     Est. extremal eigenvalues     -0.93897     1.72585  converged:  T
     TRS4 it   1 1.00000000   0.885E+00       0.001       16.128   0.100E-07
     TRS4 it   2 1.00000000   0.626E+00       0.001       32.256   0.100E-07
     TRS4 it   3 1.00000000   0.428E+00       0.001       32.256   0.100E-07
     TRS4 it   4 1.00000000   0.220E+00       0.001       32.256   0.100E-07
     TRS4 it   5 1.00000000   0.717E-01       0.001       32.256   0.100E-07
     TRS4 it   6 1.00000000   0.965E-02       0.001       32.256   0.100E-07
     TRS4 it   7 1.00000000   0.235E-03       0.001       32.256   0.100E-07
     TRS4 it   8 1.00000000   0.196E-06       0.001       32.256   0.100E-07
     TRS4 it   9 1.00000000   0.165E-12       0.001       32.256   0.100E-07
     Final TRS4 iteration    9 1.00000000   0.165E-12
     Chemical potential (mu):       0.01043
 
 PAO| energy:  -7.8172111892170069      penalty:   1.4964320254526074E-005
 PAO|LS| adapt:  T T F
 PAO|LS| adapt: scan_steps:    0.0000000000000000       0.37048448573786708        0.0000000000000000     
 PAO|LS| adapt: energies:   -7.8170861763316646       -7.8172111892170069        0.0000000000000000     
 PAO| ======================= Iteration:        17 =============================

     Lanczos converged:  T threshold:   0.100E-02
     Est. extremal eigenvalues:    0.275E+01   0.179E+00
     Est. condition number :    0.153E+02
     NS sqrt iter    1 1.00000000   0.701E+00       0.002       30.653
     NS sqrt iter    2 1.00000000   0.327E+00       0.002       50.269
     NS sqrt iter    3 1.00000000   0.745E-01       0.002       64.440
     NS sqrt iter    4 1.00000000   0.183E-02       0.002       63.839
     NS sqrt iter    5 1.00000000   0.566E-07       0.002       46.944
     Final NS sqrt iter    5 1.00000000   0.584E-09

     Est. extremal eigenvalues     -0.93887     1.72512  converged:  T
     TRS4 it   1 1.00000000   0.885E+00       0.001       16.128   0.100E-07
     TRS4 it   2 1.00000000   0.625E+00       0.001       32.250   0.100E-07
     TRS4 it   3 1.00000000   0.426E+00       0.001       32.256   0.100E-07
     TRS4 it   4 1.00000000   0.218E+00       0.002       19.485   0.100E-07
     TRS4 it   5 1.00000000   0.706E-01       0.001       32.026   0.100E-07
     TRS4 it   6 1.00000000   0.936E-02       0.001       31.986   0.100E-07
     TRS4 it   7 1.00000000   0.222E-03       0.001       32.256   0.100E-07
     TRS4 it   8 1.00000000   0.177E-06       0.001       28.342   0.100E-07
     TRS4 it   9 1.00000000   0.136E-12       0.001       32.256   0.100E-07
     Final TRS4 iteration    9 1.00000000   0.136E-12
     Chemical potential (mu):       0.01121
 
 PAO| energy:  -7.8156602618617281      penalty:   1.4867468858616592E-005
 PAO|LS| adapt:  T T T
 PAO|LS| adapt: scan_steps:    0.0000000000000000       0.37048448573786708       0.74096897147573415     
 PAO|LS| adapt: energies:   -7.8170861763316646       -7.8172111892170069       -7.8156602618617281     
 PAO|LS| adapt: suggested step_size:   0.21287767605089442     
 PAO|LS| adapt: predicted energy  -7.8173628378279103     
 PAO| ======================= Iteration:        18 =============================

     Lanczos converged:  T threshold:   0.100E-02
     Est. extremal eigenvalues:    0.276E+01   0.179E+00
     Est. condition number :    0.154E+02
     NS sqrt iter    1 1.00000000   0.704E+00       0.002       39.530
     NS sqrt iter    2 1.00000000   0.329E+00       0.002       62.059
     NS sqrt iter    3 1.00000000   0.754E-01       0.002       63.252
     NS sqrt iter    4 1.00000000   0.190E-02       0.002       62.934
     NS sqrt iter    5 1.00000000   0.634E-07       0.002       46.715
     Final NS sqrt iter    5 1.00000000   0.617E-09

     Est. extremal eigenvalues     -0.93897     1.72618  converged:  T
     TRS4 it   1 1.00000000   0.884E+00       0.001       16.128   0.100E-07
     TRS4 it   2 1.00000000   0.626E+00       0.001       32.256   0.100E-07
     TRS4 it   3 1.00000000   0.428E+00       0.001       22.292   0.100E-07
     TRS4 it   4 1.00000000   0.220E+00       0.001       31.194   0.100E-07
     TRS4 it   5 1.00000000   0.722E-01       0.001       32.256   0.100E-07
     TRS4 it   6 1.00000000   0.978E-02       0.001       29.313   0.100E-07
     TRS4 it   7 1.00000000   0.241E-03       0.001       29.113   0.100E-07
     TRS4 it   8 1.00000000   0.205E-06       0.001       26.107   0.100E-07
     TRS4 it   9 1.00000000   0.181E-12       0.002       15.317   0.100E-07
     Final TRS4 iteration    9 1.00000000   0.181E-12
     Chemical potential (mu):       0.01009
 
 PAO| energy:  -7.8173624066122684      penalty:   1.5043602316928163E-005
 PAO|CG| trace_G_new    7.1771842422397464E-004
 PAO|CG| trace_G_prev    2.5993794835971252E-003
 PAO|CG| trace_G_mix    1.1874754345626930E-006
 PAO|CG| trace_D    3.3554902660916227E-003
 PAO|CG| trace_D_Gnew  -1.6657323521721421E-006
 PAO|CG| beta:   0.27565461423041154     
 PAO| norm of gradient:   2.6790267341405435E-002
 PAO| energy improvement:  -2.7623028060386190E-004
 PAO| step     18                   -7.817362407  0.167E-02  0.213E+00     0.089
 PAO|LS| adapt:  T F F
 PAO|LS| adapt: scan_steps:    0.0000000000000000        0.0000000000000000        0.0000000000000000     
 PAO|LS| adapt: energies:   -7.8173624066122684        0.0000000000000000        0.0000000000000000     
 PAO| ======================= Iteration:        19 =============================

     Lanczos converged:  T threshold:   0.100E-02
     Est. extremal eigenvalues:    0.276E+01   0.179E+00
     Est. condition number :    0.155E+02
     NS sqrt iter    1 1.00000000   0.704E+00       0.003       24.979
     NS sqrt iter    2 1.00000000   0.329E+00       0.002       61.194
     NS sqrt iter    3 1.00000000   0.756E-01       0.002       65.249
     NS sqrt iter    4 1.00000000   0.191E-02       0.002       58.872
     NS sqrt iter    5 1.00000000   0.643E-07       0.002       47.509
     Final NS sqrt iter    5 1.00000000   0.641E-09

     Est. extremal eigenvalues     -0.93897     1.72643  converged:  T
     TRS4 it   1 1.00000000   0.885E+00       0.001       16.128   0.100E-07
     TRS4 it   2 1.00000000   0.626E+00       0.001       23.620   0.100E-07
     TRS4 it   3 1.00000000   0.428E+00       0.001       32.256   0.100E-07
     TRS4 it   4 1.00000000   0.220E+00       0.001       21.512   0.100E-07
     TRS4 it   5 1.00000000   0.721E-01       0.001       30.511   0.100E-07
     TRS4 it   6 1.00000000   0.977E-02       0.001       32.256   0.100E-07
     TRS4 it   7 1.00000000   0.242E-03       0.001       32.256   0.100E-07
     TRS4 it   8 1.00000000   0.209E-06       0.001       29.708   0.100E-07
     TRS4 it   9 1.00000000   0.188E-12       0.001       32.256   0.100E-07
     Final TRS4 iteration    9 1.00000000   0.188E-12
     Chemical potential (mu):       0.00979
 
 PAO| energy:  -7.8174789404878648      penalty:   1.4754825116892380E-005
 PAO|LS| adapt:  T T F
 PAO|LS| adapt: scan_steps:    0.0000000000000000       0.21287767605089442        0.0000000000000000     
 PAO|LS| adapt: energies:   -7.8173624066122684       -7.8174789404878648        0.0000000000000000     
 PAO| ======================= Iteration:        20 =============================

     Lanczos converged:  T threshold:   0.100E-02
     Est. extremal eigenvalues:    0.276E+01   0.178E+00
     Est. condition number :    0.155E+02
     NS sqrt iter    1 1.00000000   0.704E+00       0.002       36.903
     NS sqrt iter    2 1.00000000   0.329E+00       0.002       62.734
     NS sqrt iter    3 1.00000000   0.758E-01       0.002       62.179
     NS sqrt iter    4 1.00000000   0.192E-02       0.002       63.452
     NS sqrt iter    5 1.00000000   0.653E-07       0.002       46.734
     Final NS sqrt iter    5 1.00000000   0.652E-09

     Est. extremal eigenvalues     -0.93897     1.72669  converged:  T
     TRS4 it   1 1.00000000   0.885E+00       0.001       16.128   0.100E-07
     TRS4 it   2 1.00000000   0.626E+00       0.001       30.731   0.100E-07
     TRS4 it   3 1.00000000   0.428E+00       0.001       30.786   0.100E-07
     TRS4 it   4 1.00000000   0.220E+00       0.001       28.713   0.100E-07
     TRS4 it   5 1.00000000   0.720E-01       0.001       28.318   0.100E-07
     TRS4 it   6 1.00000000   0.977E-02       0.001       24.588   0.100E-07
     TRS4 it   7 1.00000000   0.243E-03       0.001       27.150   0.100E-07
     TRS4 it   8 1.00000000   0.212E-06       0.001       26.741   0.100E-07
     TRS4 it   9 1.00000000   0.196E-12       0.002       16.355   0.100E-07
     Final TRS4 iteration    9 1.00000000   0.196E-12
     Chemical potential (mu):       0.00948
 
 PAO| energy:  -7.8175223921667261      penalty:   1.4478420084201670E-005
 PAO|LS| adapt:  T T F
 PAO|LS| adapt: scan_steps:    0.0000000000000000       0.42575535210178883        0.0000000000000000     
 PAO|LS| adapt: energies:   -7.8173624066122684       -7.8175223921667261        0.0000000000000000     
 PAO| ======================= Iteration:        21 =============================

     Lanczos converged:  T threshold:   0.100E-02
     Est. extremal eigenvalues:    0.276E+01   0.178E+00
     Est. condition number :    0.155E+02
     NS sqrt iter    1 1.00000000   0.704E+00       0.002       34.755
     NS sqrt iter    2 1.00000000   0.329E+00       0.002       48.476
     NS sqrt iter    3 1.00000000   0.763E-01       0.002       64.708
     NS sqrt iter    4 1.00000000   0.195E-02       0.002       65.349
     NS sqrt iter    5 1.00000000   0.674E-07       0.002       47.187
     Final NS sqrt iter    5 1.00000000   0.668E-09

     Est. extremal eigenvalues     -0.93896     1.72721  converged:  T
     TRS4 it   1 1.00000000   0.885E+00       0.001       16.128   0.100E-07
     TRS4 it   2 1.00000000   0.626E+00       0.001       32.196   0.100E-07
     TRS4 it   3 1.00000000   0.428E+00       0.001       32.256   0.100E-07
     TRS4 it   4 1.00000000   0.220E+00       0.001       32.256   0.100E-07
     TRS4 it   5 1.00000000   0.719E-01       0.001       31.778   0.100E-07
     TRS4 it   6 1.00000000   0.976E-02       0.001       32.256   0.100E-07
     TRS4 it   7 1.00000000   0.245E-03       0.001       32.256   0.100E-07
     TRS4 it   8 1.00000000   0.220E-06       0.001       32.256   0.100E-07
     TRS4 it   9 1.00000000   0.212E-12       0.001       32.256   0.100E-07
     Final TRS4 iteration    9 1.00000000   0.212E-12
     Chemical potential (mu):       0.00886
 
 PAO| energy:  -7.8173877740288189      penalty:   1.3962137999359518E-005
 PAO|LS| Need extra step
 PAO|LS| adapt:  T T T
 PAO|LS| adapt: scan_steps:    0.0000000000000000       0.42575535210178883       0.85151070420357766     
 PAO|LS| adapt: energies:   -7.8173624066122684       -7.8175223921667261       -7.8173877740288189     
 PAO|LS| adapt: suggested step_size:   0.44408559310905432     
 PAO|LS| adapt: predicted energy  -7.8175226652054892     
 PAO| ======================= Iteration:        22 =============================

     Lanczos converged:  T threshold:   0.100E-02
     Est. extremal eigenvalues:    0.276E+01   0.178E+00
     Est. condition number :    0.155E+02
     NS sqrt iter    1 1.00000000   0.704E+00       0.002       26.566
     NS sqrt iter    2 1.00000000   0.329E+00       0.002       56.822
     NS sqrt iter    3 1.00000000   0.758E-01       0.002       55.245
     NS sqrt iter    4 1.00000000   0.193E-02       0.002       62.199
     NS sqrt iter    5 1.00000000   0.654E-07       0.002       36.991
     Final NS sqrt iter    5 1.00000000   0.653E-09

     Est. extremal eigenvalues     -0.93897     1.72671  converged:  T
     TRS4 it   1 1.00000000   0.885E+00       0.001       16.128   0.100E-07
     TRS4 it   2 1.00000000   0.626E+00       0.001       29.887   0.100E-07
     TRS4 it   3 1.00000000   0.428E+00       0.002       16.263   0.100E-07
     TRS4 it   4 1.00000000   0.220E+00       0.001       28.941   0.100E-07
     TRS4 it   5 1.00000000   0.720E-01       0.001       29.296   0.100E-07
     TRS4 it   6 1.00000000   0.977E-02       0.001       28.167   0.100E-07
     TRS4 it   7 1.00000000   0.243E-03       0.001       24.381   0.100E-07
     TRS4 it   8 1.00000000   0.213E-06       0.001       27.057   0.100E-07
     TRS4 it   9 1.00000000   0.197E-12       0.001       27.765   0.100E-07
     Final TRS4 iteration    9 1.00000000   0.197E-12
     Chemical potential (mu):       0.00945
 
 PAO| energy:  -7.8175226978327093      penalty:   1.4455192428685651E-005
 PAO|CG| trace_G_new    2.1866503802864885E-004
 PAO|CG| trace_G_prev    7.1771842422397464E-004
 PAO|CG| trace_G_mix    2.8056042597267375E-006
 PAO|CG| trace_D    9.7360525053204335E-004
 PAO|CG| trace_D_Gnew  -1.7736982873663603E-006
 PAO|CG| beta:   0.30075782714135813     
 PAO| norm of gradient:   1.4787326939939106E-002
 PAO| energy improvement:  -1.6029122044081134E-004
 PAO| step     22                   -7.817522698  0.924E-03  0.444E+00     0.124
 PAO|LS| adapt:  T F F
 PAO|LS| adapt: scan_steps:    0.0000000000000000        0.0000000000000000        0.0000000000000000     
 PAO|LS| adapt: energies:   -7.8175226978327093        0.0000000000000000        0.0000000000000000     
 PAO| ======================= Iteration:        23 =============================

     Lanczos converged:  T threshold:   0.100E-02
     Est. extremal eigenvalues:    0.276E+01   0.178E+00
     Est. condition number :    0.155E+02
     NS sqrt iter    1 1.00000000   0.704E+00       0.002       38.837
     NS sqrt iter    2 1.00000000   0.329E+00       0.002       65.057
     NS sqrt iter    3 1.00000000   0.759E-01       0.002       65.331
     NS sqrt iter    4 1.00000000   0.193E-02       0.002       65.050
     NS sqrt iter    5 1.00000000   0.653E-07       0.002       47.556
     Final NS sqrt iter    5 1.00000000   0.654E-09

     Est. extremal eigenvalues     -0.93897     1.72637  converged:  T
     TRS4 it   1 1.00000000   0.884E+00       0.001       16.128   0.100E-07
     TRS4 it   2 1.00000000   0.626E+00       0.001       32.256   0.100E-07
     TRS4 it   3 1.00000000   0.428E+00       0.001       32.256   0.100E-07
     TRS4 it   4 1.00000000   0.220E+00       0.001       32.256   0.100E-07
     TRS4 it   5 1.00000000   0.721E-01       0.001       32.256   0.100E-07
     TRS4 it   6 1.00000000   0.982E-02       0.001       24.703   0.100E-07
     TRS4 it   7 1.00000000   0.246E-03       0.001       32.256   0.100E-07
     TRS4 it   8 1.00000000   0.218E-06       0.001       32.256   0.100E-07
     TRS4 it   9 1.00000000   0.208E-12       0.001       30.331   0.100E-07
     Final TRS4 iteration    9 1.00000000   0.208E-12
     Chemical potential (mu):       0.00909
 
 PAO| energy:  -7.8175715754327344      penalty:   1.3776858250677841E-005
 PAO|LS| adapt:  T T F
 PAO|LS| adapt: scan_steps:    0.0000000000000000       0.44408559310905432        0.0000000000000000     
 PAO|LS| adapt: energies:   -7.8175226978327093       -7.8175715754327344        0.0000000000000000     
 PAO| ======================= Iteration:        24 =============================

     Lanczos converged:  T threshold:   0.100E-02
     Est. extremal eigenvalues:    0.276E+01   0.178E+00
     Est. condition number :    0.155E+02
     NS sqrt iter    1 1.00000000   0.704E+00       0.002       38.450
     NS sqrt iter    2 1.00000000   0.329E+00       0.002       63.741
     NS sqrt iter    3 1.00000000   0.759E-01       0.002       60.454
     NS sqrt iter    4 1.00000000   0.193E-02       0.002       62.863
     NS sqrt iter    5 1.00000000   0.653E-07       0.002       46.007
     Final NS sqrt iter    5 1.00000000   0.650E-09

     Est. extremal eigenvalues     -0.93897     1.72602  converged:  T
     TRS4 it   1 1.00000000   0.884E+00       0.001       16.128   0.100E-07
     TRS4 it   2 1.00000000   0.626E+00       0.001       32.256   0.100E-07
     TRS4 it   3 1.00000000   0.428E+00       0.001       31.983   0.100E-07
     TRS4 it   4 1.00000000   0.220E+00       0.001       32.256   0.100E-07
     TRS4 it   5 1.00000000   0.722E-01       0.001       32.256   0.100E-07
     TRS4 it   6 1.00000000   0.986E-02       0.001       32.256   0.100E-07
     TRS4 it   7 1.00000000   0.249E-03       0.001       32.256   0.100E-07
     TRS4 it   8 1.00000000   0.224E-06       0.001       31.844   0.100E-07
     TRS4 it   9 1.00000000   0.220E-12       0.001       30.443   0.100E-07
     Final TRS4 iteration    9 1.00000000   0.220E-12
     Chemical potential (mu):       0.00873
 
 PAO| energy:  -7.8175229240920032      penalty:   1.3126620192874308E-005
 PAO|LS| adapt:  T T T
 PAO|LS| adapt: scan_steps:    0.0000000000000000       0.44408559310905432       0.88817118621810864     
 PAO|LS| adapt: energies:   -7.8175226978327093       -7.8175715754327344       -7.8175229240920032     
 PAO|LS| adapt: suggested step_size:   0.44460071452828998     
 PAO|LS| adapt: predicted energy  -7.8175715754983486     
 PAO| ======================= Iteration:        25 =============================

     Lanczos converged:  T threshold:   0.100E-02
     Est. extremal eigenvalues:    0.276E+01   0.178E+00
     Est. condition number :    0.155E+02
     NS sqrt iter    1 1.00000000   0.704E+00       0.002       31.722
     NS sqrt iter    2 1.00000000   0.329E+00       0.002       59.888
     NS sqrt iter    3 1.00000000   0.759E-01       0.002       51.794
     NS sqrt iter    4 1.00000000   0.193E-02       0.004       25.891
     NS sqrt iter    5 1.00000000   0.653E-07       0.001       51.102
     Final NS sqrt iter    5 1.00000000   0.654E-09

     Est. extremal eigenvalues     -0.93897     1.72637  converged:  T
     TRS4 it   1 1.00000000   0.884E+00       0.001       16.128   0.100E-07
     TRS4 it   2 1.00000000   0.626E+00       0.001       32.256   0.100E-07
     TRS4 it   3 1.00000000   0.428E+00       0.001       32.256   0.100E-07
     TRS4 it   4 1.00000000   0.220E+00       0.001       32.256   0.100E-07
     TRS4 it   5 1.00000000   0.721E-01       0.001       32.256   0.100E-07
     TRS4 it   6 1.00000000   0.982E-02       0.001       32.256   0.100E-07
     TRS4 it   7 1.00000000   0.246E-03       0.001       32.256   0.100E-07
     TRS4 it   8 1.00000000   0.218E-06       0.001       32.256   0.100E-07
     TRS4 it   9 1.00000000   0.209E-12       0.001       32.256   0.100E-07
     Final TRS4 iteration    9 1.00000000   0.209E-12
     Chemical potential (mu):       0.00909
 
 PAO| energy:  -7.8175715756719457      penalty:   1.3776087843048716E-005
 PAO|CG| trace_G_new    7.7989477015259976E-005
 PAO|CG| trace_G_prev    2.1866503802864885E-004
 PAO|CG| trace_G_mix    6.5535755847551339E-007
 PAO|CG| trace_D    3.0779967169607066E-004
 PAO|CG| trace_D_Gnew  -3.3711481185019086E-007
 PAO|CG| beta:   0.35366476577134554     
 PAO| norm of gradient:   8.8311650995358468E-003
 PAO| energy improvement:  -4.8877839236460829E-005
 PAO| step     25                   -7.817571576  0.552E-03  0.445E+00     0.089
 PAO|LS| adapt:  T F F
 PAO|LS| adapt: scan_steps:    0.0000000000000000        0.0000000000000000        0.0000000000000000     
 PAO|LS| adapt: energies:   -7.8175715756719457        0.0000000000000000        0.0000000000000000     
 PAO| ======================= Iteration:        26 =============================

     Lanczos converged:  T threshold:   0.100E-02
     Est. extremal eigenvalues:    0.276E+01   0.179E+00
     Est. condition number :    0.155E+02
     NS sqrt iter    1 1.00000000   0.704E+00       0.002       42.813
     NS sqrt iter    2 1.00000000   0.329E+00       0.002       67.482
     NS sqrt iter    3 1.00000000   0.758E-01       0.002       54.732
     NS sqrt iter    4 1.00000000   0.192E-02       0.002       61.873
     NS sqrt iter    5 1.00000000   0.643E-07       0.001       51.197
     Final NS sqrt iter    5 1.00000000   0.644E-09

     Est. extremal eigenvalues     -0.93897     1.72574  converged:  T
     TRS4 it   1 1.00000000   0.884E+00       0.001       16.128   0.100E-07
     TRS4 it   2 1.00000000   0.626E+00       0.001       24.986   0.100E-07
     TRS4 it   3 1.00000000   0.428E+00       0.001       32.256   0.100E-07
     TRS4 it   4 1.00000000   0.220E+00       0.001       32.256   0.100E-07
     TRS4 it   5 1.00000000   0.720E-01       0.001       32.256   0.100E-07
     TRS4 it   6 1.00000000   0.979E-02       0.001       32.256   0.100E-07
     TRS4 it   7 1.00000000   0.245E-03       0.001       32.256   0.100E-07
     TRS4 it   8 1.00000000   0.216E-06       0.001       32.256   0.100E-07
     TRS4 it   9 1.00000000   0.203E-12       0.001       32.256   0.100E-07
     Final TRS4 iteration    9 1.00000000   0.203E-12
     Chemical potential (mu):       0.00917
 
 PAO| energy:  -7.8175749486662234      penalty:   1.3053483016159561E-005
 PAO|LS| adapt:  T T F
 PAO|LS| adapt: scan_steps:    0.0000000000000000       0.44460071452828998        0.0000000000000000     
 PAO|LS| adapt: energies:   -7.8175715756719457       -7.8175749486662234        0.0000000000000000     
 PAO| ======================= Iteration:        27 =============================

     Lanczos converged:  T threshold:   0.100E-02
     Est. extremal eigenvalues:    0.276E+01   0.179E+00
     Est. condition number :    0.154E+02
     NS sqrt iter    1 1.00000000   0.703E+00       0.002       39.141
     NS sqrt iter    2 1.00000000   0.329E+00       0.002       67.641
     NS sqrt iter    3 1.00000000   0.757E-01       0.002       68.599
     NS sqrt iter    4 1.00000000   0.191E-02       0.002       68.042
     NS sqrt iter    5 1.00000000   0.634E-07       0.002       32.972
     Final NS sqrt iter    5 1.00000000   0.646E-09

     Est. extremal eigenvalues     -0.93897     1.72510  converged:  T
     TRS4 it   1 1.00000000   0.884E+00       0.001       16.128   0.100E-07
     TRS4 it   2 1.00000000   0.626E+00       0.001       32.256   0.100E-07
     TRS4 it   3 1.00000000   0.428E+00       0.001       32.256   0.100E-07
     TRS4 it   4 1.00000000   0.220E+00       0.001       32.256   0.100E-07
     TRS4 it   5 1.00000000   0.720E-01       0.001       31.770   0.100E-07
     TRS4 it   6 1.00000000   0.977E-02       0.001       32.256   0.100E-07
     TRS4 it   7 1.00000000   0.243E-03       0.001       32.256   0.100E-07
     TRS4 it   8 1.00000000   0.213E-06       0.001       32.256   0.100E-07
     TRS4 it   9 1.00000000   0.198E-12       0.001       32.256   0.100E-07
     Final TRS4 iteration    9 1.00000000   0.198E-12
     Chemical potential (mu):       0.00925
 
 PAO| energy:  -7.8175155114932160      penalty:   1.2354597531071693E-005
 PAO|LS| adapt:  T T T
 PAO|LS| adapt: scan_steps:    0.0000000000000000       0.44460071452828998       0.88920142905657995     
 PAO|LS| adapt: energies:   -7.8175715756719457       -7.8175749486662234       -7.8175155114932160     
 PAO|LS| adapt: suggested step_size:   0.24617604062513038     
 PAO|LS| adapt: predicted energy  -7.8175812040072632     
 PAO| ======================= Iteration:        28 =============================

     Lanczos converged:  T threshold:   0.100E-02
     Est. extremal eigenvalues:    0.276E+01   0.179E+00
     Est. condition number :    0.155E+02
     NS sqrt iter    1 1.00000000   0.704E+00       0.002       42.270
     NS sqrt iter    2 1.00000000   0.329E+00       0.002       68.314
     NS sqrt iter    3 1.00000000   0.758E-01       0.002       56.726
     NS sqrt iter    4 1.00000000   0.192E-02       0.002       69.142
     NS sqrt iter    5 1.00000000   0.648E-07       0.001       51.240
     Final NS sqrt iter    5 1.00000000   0.649E-09

     Est. extremal eigenvalues     -0.93897     1.72602  converged:  T
     TRS4 it   1 1.00000000   0.884E+00       0.001       16.128   0.100E-07
     TRS4 it   2 1.00000000   0.626E+00       0.001       32.256   0.100E-07
     TRS4 it   3 1.00000000   0.428E+00       0.001       32.256   0.100E-07
     TRS4 it   4 1.00000000   0.220E+00       0.001       32.256   0.100E-07
     TRS4 it   5 1.00000000   0.721E-01       0.001       32.256   0.100E-07
     TRS4 it   6 1.00000000   0.980E-02       0.001       32.256   0.100E-07
     TRS4 it   7 1.00000000   0.245E-03       0.001       24.624   0.100E-07
     TRS4 it   8 1.00000000   0.217E-06       0.001       29.939   0.100E-07
     TRS4 it   9 1.00000000   0.205E-12       0.001       32.256   0.100E-07
     Final TRS4 iteration    9 1.00000000   0.205E-12
     Chemical potential (mu):       0.00913
 
 PAO| energy:  -7.8175811949350393      penalty:   1.3373030583665084E-005
 PAO|CG| trace_G_new    3.0352160374396838E-005
 PAO|CG| trace_G_prev    7.7989477015259976E-005
 PAO|CG| trace_G_mix    4.3618495942477212E-008
 PAO|CG| trace_D    1.1672713155685692E-004
 PAO|CG| trace_D_Gnew  -2.3140909613983580E-008
 PAO|CG| beta:   0.38862347894093424     
 PAO| norm of gradient:   5.5092794786974495E-003
 PAO| energy improvement:  -9.6192630936187129E-006
 PAO| step     28                   -7.817581195  0.344E-03  0.246E+00     0.085
 PAO|LS| adapt:  T F F
 PAO|LS| adapt: scan_steps:    0.0000000000000000        0.0000000000000000        0.0000000000000000     
 PAO|LS| adapt: energies:   -7.8175811949350393        0.0000000000000000        0.0000000000000000     
 PAO| ======================= Iteration:        29 =============================

     Lanczos converged:  T threshold:   0.100E-02
     Est. extremal eigenvalues:    0.276E+01   0.179E+00
     Est. condition number :    0.155E+02
     NS sqrt iter    1 1.00000000   0.704E+00       0.001       44.171
     NS sqrt iter    2 1.00000000   0.329E+00       0.002       68.132
     NS sqrt iter    3 1.00000000   0.758E-01       0.002       69.129
     NS sqrt iter    4 1.00000000   0.192E-02       0.002       69.150
     NS sqrt iter    5 1.00000000   0.643E-07       0.001       51.310
     Final NS sqrt iter    5 1.00000000   0.646E-09

     Est. extremal eigenvalues     -0.93897     1.72576  converged:  T
     TRS4 it   1 1.00000000   0.884E+00       0.001       16.128   0.100E-07
     TRS4 it   2 1.00000000   0.626E+00       0.001       32.256   0.100E-07
     TRS4 it   3 1.00000000   0.428E+00       0.001       32.256   0.100E-07
     TRS4 it   4 1.00000000   0.220E+00       0.001       32.256   0.100E-07
     TRS4 it   5 1.00000000   0.720E-01       0.001       32.256   0.100E-07
     TRS4 it   6 1.00000000   0.978E-02       0.001       32.256   0.100E-07
     TRS4 it   7 1.00000000   0.244E-03       0.001       32.256   0.100E-07
     TRS4 it   8 1.00000000   0.214E-06       0.001       22.750   0.100E-07
     TRS4 it   9 1.00000000   0.200E-12       0.001       28.314   0.100E-07
     Final TRS4 iteration    9 1.00000000   0.200E-12
     Chemical potential (mu):       0.00924
 
 PAO| energy:  -7.8175877693459803      penalty:   1.2953183031976641E-005
 PAO|LS| adapt:  T T F
 PAO|LS| adapt: scan_steps:    0.0000000000000000       0.24617604062513038        0.0000000000000000     
 PAO|LS| adapt: energies:   -7.8175811949350393       -7.8175877693459803        0.0000000000000000     
 PAO| ======================= Iteration:        30 =============================

     Lanczos converged:  T threshold:   0.100E-02
     Est. extremal eigenvalues:    0.276E+01   0.179E+00
     Est. condition number :    0.154E+02
     NS sqrt iter    1 1.00000000   0.703E+00       0.002       42.020
     NS sqrt iter    2 1.00000000   0.329E+00       0.002       56.925
     NS sqrt iter    3 1.00000000   0.757E-01       0.002       67.872
     NS sqrt iter    4 1.00000000   0.191E-02       0.002       69.370
     NS sqrt iter    5 1.00000000   0.638E-07       0.001       51.505
     Final NS sqrt iter    5 1.00000000   0.641E-09

     Est. extremal eigenvalues     -0.93897     1.72551  converged:  T
     TRS4 it   1 1.00000000   0.884E+00       0.001       16.128   0.100E-07
     TRS4 it   2 1.00000000   0.626E+00       0.001       32.256   0.100E-07
     TRS4 it   3 1.00000000   0.428E+00       0.001       32.256   0.100E-07
     TRS4 it   4 1.00000000   0.220E+00       0.001       32.256   0.100E-07
     TRS4 it   5 1.00000000   0.719E-01       0.001       32.256   0.100E-07
     TRS4 it   6 1.00000000   0.976E-02       0.001       32.256   0.100E-07
     TRS4 it   7 1.00000000   0.243E-03       0.001       32.256   0.100E-07
     TRS4 it   8 1.00000000   0.212E-06       0.001       32.256   0.100E-07
     TRS4 it   9 1.00000000   0.195E-12       0.001       32.256   0.100E-07
     Final TRS4 iteration    9 1.00000000   0.195E-12
     Chemical potential (mu):       0.00935
 
 PAO| energy:  -7.8175925443563656      penalty:   1.2540758915736969E-005
 PAO|LS| adapt:  T T F
 PAO|LS| adapt: scan_steps:    0.0000000000000000       0.49235208125026075        0.0000000000000000     
 PAO|LS| adapt: energies:   -7.8175811949350393       -7.8175925443563656        0.0000000000000000     
 PAO| ======================= Iteration:        31 =============================

     Lanczos converged:  T threshold:   0.100E-02
     Est. extremal eigenvalues:    0.276E+01   0.179E+00
     Est. condition number :    0.154E+02
     NS sqrt iter    1 1.00000000   0.703E+00       0.002       42.472
     NS sqrt iter    2 1.00000000   0.328E+00       0.002       68.331
     NS sqrt iter    3 1.00000000   0.755E-01       0.002       49.583
     NS sqrt iter    4 1.00000000   0.190E-02       0.002       68.640
     NS sqrt iter    5 1.00000000   0.629E-07       0.002       47.814
     Final NS sqrt iter    5 1.00000000   0.638E-09

     Est. extremal eigenvalues     -0.93898     1.72500  converged:  T
     TRS4 it   1 1.00000000   0.884E+00       0.001       16.128   0.100E-07
     TRS4 it   2 1.00000000   0.626E+00       0.001       32.256   0.100E-07
     TRS4 it   3 1.00000000   0.427E+00       0.001       32.256   0.100E-07
     TRS4 it   4 1.00000000   0.219E+00       0.001       32.256   0.100E-07
     TRS4 it   5 1.00000000   0.717E-01       0.001       32.256   0.100E-07
     TRS4 it   6 1.00000000   0.971E-02       0.001       32.256   0.100E-07
     TRS4 it   7 1.00000000   0.240E-03       0.001       32.256   0.100E-07
     TRS4 it   8 1.00000000   0.207E-06       0.001       32.256   0.100E-07
     TRS4 it   9 1.00000000   0.186E-12       0.001       32.256   0.100E-07
     Final TRS4 iteration    9 1.00000000   0.186E-12
     Chemical potential (mu):       0.00958
 
 PAO| energy:  -7.8175966964087600      penalty:   1.1738041439640829E-005
 PAO|LS| Need extra step
 PAO|LS| adapt:  T T F
 PAO|LS| adapt: scan_steps:    0.0000000000000000       0.98470416250052151        0.0000000000000000     
 PAO|LS| adapt: energies:   -7.8175811949350393       -7.8175966964087600        0.0000000000000000     
 PAO| ======================= Iteration:        32 =============================

     Lanczos converged:  T threshold:   0.100E-02
     Est. extremal eigenvalues:    0.276E+01   0.179E+00
     Est. condition number :    0.154E+02
     NS sqrt iter    1 1.00000000   0.702E+00       0.002       41.643
     NS sqrt iter    2 1.00000000   0.328E+00       0.002       67.132
     NS sqrt iter    3 1.00000000   0.753E-01       0.002       68.308
     NS sqrt iter    4 1.00000000   0.189E-02       0.002       69.003
     NS sqrt iter    5 1.00000000   0.612E-07       0.002       48.436
     Final NS sqrt iter    5 1.00000000   0.599E-09

     Est. extremal eigenvalues     -0.93898     1.72396  converged:  T
     TRS4 it   1 1.00000000   0.884E+00       0.001       16.128   0.100E-07
     TRS4 it   2 1.00000000   0.625E+00       0.001       32.256   0.100E-07
     TRS4 it   3 1.00000000   0.427E+00       0.001       32.256   0.100E-07
     TRS4 it   4 1.00000000   0.219E+00       0.001       32.256   0.100E-07
     TRS4 it   5 1.00000000   0.714E-01       0.001       32.256   0.100E-07
     TRS4 it   6 1.00000000   0.962E-02       0.001       32.256   0.100E-07
     TRS4 it   7 1.00000000   0.235E-03       0.001       32.256   0.100E-07
     TRS4 it   8 1.00000000   0.198E-06       0.001       32.256   0.100E-07
     TRS4 it   9 1.00000000   0.169E-12       0.001       32.256   0.100E-07
     Final TRS4 iteration    9 1.00000000   0.169E-12
     Chemical potential (mu):       0.01001
 
 PAO| energy:  -7.8175834040052417      penalty:   1.0220161789899832E-005
 PAO|LS| Need extra step
 PAO|LS| adapt:  T T T
 PAO|LS| adapt: scan_steps:    0.0000000000000000       0.98470416250052151        1.9694083250010430     
 PAO|LS| adapt: energies:   -7.8175811949350393       -7.8175966964087600       -7.8175834040052417     
 PAO|LS| adapt: suggested step_size:    1.0224774815541839     
 PAO|LS| adapt: predicted energy  -7.8175967175937808     
 PAO| ======================= Iteration:        33 =============================

     Lanczos converged:  T threshold:   0.100E-02
     Est. extremal eigenvalues:    0.276E+01   0.179E+00
     Est. condition number :    0.154E+02
     NS sqrt iter    1 1.00000000   0.703E+00       0.001       43.168
     NS sqrt iter    2 1.00000000   0.328E+00       0.002       68.315
     NS sqrt iter    3 1.00000000   0.755E-01       0.002       69.173
     NS sqrt iter    4 1.00000000   0.190E-02       0.002       69.454
     NS sqrt iter    5 1.00000000   0.629E-07       0.001       50.806
     Final NS sqrt iter    5 1.00000000   0.637E-09

     Est. extremal eigenvalues     -0.93898     1.72496  converged:  T
     TRS4 it   1 1.00000000   0.884E+00       0.001       16.128   0.100E-07
     TRS4 it   2 1.00000000   0.626E+00       0.001       31.838   0.100E-07
     TRS4 it   3 1.00000000   0.427E+00       0.001       32.206   0.100E-07
     TRS4 it   4 1.00000000   0.219E+00       0.001       32.256   0.100E-07
     TRS4 it   5 1.00000000   0.717E-01       0.001       32.256   0.100E-07
     TRS4 it   6 1.00000000   0.971E-02       0.001       32.189   0.100E-07
[...]
     NS sqrt iter    3 1.00000000   0.479E-01       0.001       90.469
     NS sqrt iter    4 1.00000000   0.747E-03       0.001      100.501
     NS sqrt iter    5 1.00000000   0.550E-08       0.001       38.272
     Final NS sqrt iter    5 1.00000000   0.321E-09

     Est. extremal eigenvalues     -0.93868     1.62561  converged:  T
     TRS4 it   1 1.00000000   0.881E+00       0.000       16.128   0.100E-07
     TRS4 it   2 1.00000000   0.632E+00       0.001       32.256   0.100E-07
     TRS4 it   3 1.00000000   0.455E+00       0.001       32.256   0.100E-07
     TRS4 it   4 1.00000000   0.279E+00       0.001       32.256   0.100E-07
     TRS4 it   5 1.00000000   0.139E+00       0.001       32.256   0.100E-07
     TRS4 it   6 1.00000000   0.444E-01       0.001       32.256   0.100E-07
     TRS4 it   7 1.00000000   0.641E-02       0.001       32.256   0.100E-07
     TRS4 it   8 1.00000000   0.177E-03       0.001       32.256   0.100E-07
     TRS4 it   9 1.00000000   0.142E-06       0.001       32.256   0.100E-07
     TRS4 it  10 1.00000000   0.904E-13       0.001       32.256   0.100E-07
     Final TRS4 iteration   10 1.00000000   0.904E-13
     Chemical potential (mu):      -0.07807
 
 PAO| energy:  -7.8168820711698999      penalty:   3.6588624305899706E-008
 PAO|LS| Need extra step
 PAO|LS| adapt:  T T T
 PAO|LS| adapt: scan_steps:    0.0000000000000000       0.20000000000000001       0.40000000000000002     
 PAO|LS| adapt: energies:   -7.8168820669505257       -7.8168820724522412       -7.8168820711698999     
 PAO|LS| adapt: suggested step_size:   0.26219544238939985     
 PAO|LS| adapt: predicted energy  -7.8168820727802739     
 PAO| ======================= Iteration:       408 =============================

     Lanczos converged:  T threshold:   0.100E-02
     Est. extremal eigenvalues:    0.249E+01   0.191E+00
     Est. condition number :    0.130E+02
     NS sqrt iter    1 1.00000000   0.631E+00       0.001       61.921
     NS sqrt iter    2 1.00000000   0.273E+00       0.001       98.982
     NS sqrt iter    3 1.00000000   0.479E-01       0.001       99.600
     NS sqrt iter    4 1.00000000   0.747E-03       0.001       99.935
     NS sqrt iter    5 1.00000000   0.550E-08       0.001       38.272
     Final NS sqrt iter    5 1.00000000   0.321E-09

     Est. extremal eigenvalues     -0.93868     1.62561  converged:  T
     TRS4 it   1 1.00000000   0.881E+00       0.000       16.128   0.100E-07
     TRS4 it   2 1.00000000   0.632E+00       0.001       32.256   0.100E-07
     TRS4 it   3 1.00000000   0.455E+00       0.001       32.256   0.100E-07
     TRS4 it   4 1.00000000   0.279E+00       0.001       32.256   0.100E-07
     TRS4 it   5 1.00000000   0.139E+00       0.001       32.256   0.100E-07
     TRS4 it   6 1.00000000   0.444E-01       0.001       32.256   0.100E-07
     TRS4 it   7 1.00000000   0.641E-02       0.001       32.256   0.100E-07
     TRS4 it   8 1.00000000   0.177E-03       0.001       32.256   0.100E-07
     TRS4 it   9 1.00000000   0.142E-06       0.001       32.256   0.100E-07
     TRS4 it  10 1.00000000   0.901E-13       0.001       32.256   0.100E-07
     Final TRS4 iteration   10 1.00000000   0.901E-13
     Chemical potential (mu):      -0.07807
 
 PAO| energy:  -7.8168820727802810      penalty:   3.6999372540539858E-008
 PAO|CG| warming up with steepest descent
 PAO|CG| beta:    0.0000000000000000     
 PAO| norm of gradient:   1.4426659746140198E-004
 PAO| energy improvement:  -5.8297553451325257E-009
 PAO| step    408                   -7.816882073  0.902E-05  0.262E+00     0.075
 PAO| converged after          408  steps :-)
 PAO| Recalculating energy after mixing.

     Lanczos converged:  T threshold:   0.100E-02
     Est. extremal eigenvalues:    0.249E+01   0.191E+00
     Est. condition number :    0.130E+02
     NS sqrt iter    1 1.00000000   0.631E+00       0.001       60.702
     NS sqrt iter    2 1.00000000   0.273E+00       0.001       98.855
     NS sqrt iter    3 1.00000000   0.479E-01       0.001      100.619
     NS sqrt iter    4 1.00000000   0.747E-03       0.001       99.163
     NS sqrt iter    5 1.00000000   0.550E-08       0.001       38.272
     Final NS sqrt iter    5 1.00000000   0.321E-09

     Est. extremal eigenvalues     -0.93868     1.62561  converged:  T
     TRS4 it   1 1.00000000   0.881E+00       0.000       16.128   0.100E-07
     TRS4 it   2 1.00000000   0.632E+00       0.001       32.256   0.100E-07
     TRS4 it   3 1.00000000   0.455E+00       0.001       32.256   0.100E-07
     TRS4 it   4 1.00000000   0.279E+00       0.001       32.256   0.100E-07
     TRS4 it   5 1.00000000   0.139E+00       0.001       32.256   0.100E-07
     TRS4 it   6 1.00000000   0.444E-01       0.001       32.256   0.100E-07
     TRS4 it   7 1.00000000   0.641E-02       0.001       32.256   0.100E-07
     TRS4 it   8 1.00000000   0.177E-03       0.001       32.256   0.100E-07
     TRS4 it   9 1.00000000   0.142E-06       0.001       32.256   0.100E-07
     TRS4 it  10 1.00000000   0.898E-13       0.001       32.256   0.100E-07
     Final TRS4 iteration   10 1.00000000   0.898E-13
     Chemical potential (mu):      -0.07806
 
 PAO| energy:  -7.8168820713228184      penalty:   3.7392252375807570E-008
 PAO| Writing restart file.
     Est. extremal eigenvalues     -0.93868     1.62561  converged:  T
     TRS4 it   1 1.00000000   0.881E+00       0.000       16.128   0.100E-07
     TRS4 it   2 1.00000000   0.632E+00       0.001       32.256   0.100E-07
     TRS4 it   3 1.00000000   0.455E+00       0.001       32.256   0.100E-07
     TRS4 it   4 1.00000000   0.279E+00       0.001       32.256   0.100E-07
     TRS4 it   5 1.00000000   0.139E+00       0.001       32.256   0.100E-07
     TRS4 it   6 1.00000000   0.444E-01       0.001       32.256   0.100E-07
     TRS4 it   7 1.00000000   0.641E-02       0.001       32.256   0.100E-07
     TRS4 it   8 1.00000000   0.177E-03       0.001       32.256   0.100E-07
     TRS4 it   9 1.00000000   0.142E-06       0.001       32.256   0.100E-07
     TRS4 it  10 1.00000000   0.898E-13       0.001       32.256   0.100E-07
     Final TRS4 iteration   10 1.00000000   0.898E-13
     Chemical potential (mu):      -0.07806

 SCF     1       -34.449319232       -34.449319232    1.461356

*********************************************************
 Using MIXING_FRACTION=0.450 to mix KS matrix:  iscf=  2
 KS_nw=0.450*KS + 0.550*KS_old
*********************************************************
     Est. extremal eigenvalues     -0.93868     1.62561  converged:  T
     TRS4 it   1 1.00000000   0.881E+00       0.000       16.128   0.100E-07
     TRS4 it   2 1.00000000   0.632E+00       0.001       32.256   0.100E-07
     TRS4 it   3 1.00000000   0.455E+00       0.001       32.256   0.100E-07
     TRS4 it   4 1.00000000   0.279E+00       0.001       32.256   0.100E-07
     TRS4 it   5 1.00000000   0.139E+00       0.001       32.256   0.100E-07
     TRS4 it   6 1.00000000   0.444E-01       0.001       32.256   0.100E-07
     TRS4 it   7 1.00000000   0.641E-02       0.001       32.256   0.100E-07
     TRS4 it   8 1.00000000   0.177E-03       0.001       32.256   0.100E-07
     TRS4 it   9 1.00000000   0.142E-06       0.001       32.256   0.100E-07
     TRS4 it  10 1.00000000   0.906E-13       0.001       32.256   0.100E-07
     Final TRS4 iteration   10 1.00000000   0.906E-13
     Chemical potential (mu):      -0.07807

 SCF     2       -34.449319232        -0.000000000    1.445412

 PAO| Storing density matrix for ASPC guess in slot:           1

 ENERGY| Total FORCE_EVAL ( QS ) energy (a.u.):              -34.449319232258915


 -------------------------------------------------------------------------------
 -                                                                             -
 -                                DBCSR STATISTICS                             -
 -                                                                             -
 -------------------------------------------------------------------------------
 COUNTER                                    TOTAL       BLAS       SMM       ACC
 flops     5 x     5 x     4                20000     100.0%      0.0%      0.0%
 flops    13 x     5 x     4                20800     100.0%      0.0%      0.0%
 flops     5 x    13 x     4                20800     100.0%      0.0%      0.0%
 flops    13 x    13 x     4                40560     100.0%      0.0%      0.0%
 flops     4 x     4 x     5              3206400     100.0%      0.0%      0.0%
 flops     5 x     4 x     5              3920000     100.0%      0.0%      0.0%
 flops     4 x     4 x    13              4168320     100.0%      0.0%      0.0%
 flops    13 x     4 x     5              5096000     100.0%      0.0%      0.0%
 flops     5 x     4 x    13              5096000     100.0%      0.0%      0.0%
 flops     5 x     4 x     4              6195840     100.0%      0.0%      0.0%
 flops    13 x     4 x    13              6624800     100.0%      0.0%      0.0%
 flops    13 x     4 x     4              8186880     100.0%      0.0%      0.0%
 flops     4 x     4 x     4            415634816     100.0%      0.0%      0.0%
 flops inhomo. stacks                           0       0.0%      0.0%      0.0%
 flops total                       458.231216E+06     100.0%      0.0%      0.0%
 flops max/rank                    458.231216E+06     100.0%      0.0%      0.0%
 matmuls inhomo. stacks                         0       0.0%      0.0%      0.0%
 matmuls total                            3379921     100.0%      0.0%      0.0%
 number of processed stacks                 26923     100.0%      0.0%      0.0%
 average stack size                                   125.5       0.0       0.0
 marketing flops                   745.279296E+06
 -------------------------------------------------------------------------------
 # multiplications                          22522
 max memory usage/rank             328.237056E+06
 # max total images/rank                        1
 # max 3D layers                                1
 # MPI messages exchanged                       0
 MPI messages size (bytes):
  total size                         0.000000E+00
  min size                           0.000000E+00
  max size                           0.000000E+00
  average size                       0.000000E+00
 MPI breakdown and total messages size (bytes):
             size <=      128                   0                        0
       128 < size <=     8192                   0                        0
      8192 < size <=    32768                   0                        0
     32768 < size <=   131072                   0                        0
    131072 < size <=  4194304                   0                        0
   4194304 < size <= 16777216                   0                        0
  16777216 < size                               0                        0
 -------------------------------------------------------------------------------

 MEMORY| Estimated peak process memory [MiB]                                 314

 -------------------------------------------------------------------------------
 -                                                                             -
 -                           R E F E R E N C E S                               -
 -                                                                             -
 -------------------------------------------------------------------------------
 
 CP2K version 7.0 (Development Version), the CP2K developers group (2018).
 CP2K is freely available from https://www.cp2k.org/ .

 Schuett, O; VandeVondele, J. 
 Journal of Chemical Theory and Computation, 14, (2018). 
 Machine Learning Adaptive Basis Sets for Efficient Large Scale Density Functional Theory Simulation.
 https://dx.doi.org/10.1021/acs.jctc.8b00378


 Schuett, Ole; Messmer, Peter; Hutter, Juerg; VandeVondele, Joost. 
 Electronic Structure Calculations on Graphics Processing Units, John Wiley & Sons, Ltd, 173-190 (2016). 
 GPU-Accelerated Sparse Matrix-Matrix Multiplication for Linear Scaling Density Functional Theory.
 https://dx.doi.org/10.1002/9781118670712.ch8


 Borstnik, U; VandeVondele, J; Weber, V; Hutter, J. 
 PARALLEL COMPUTING, 40 (5-6), 47-58 (2014). 
 Sparse matrix multiplication: The distributed block-compressed sparse
 row library.
 https://dx.doi.org/10.1016/j.parco.2014.03.012


 Hutter, J; Iannuzzi, M; Schiffmann, F; VandeVondele, J. 
 WILEY INTERDISCIPLINARY REVIEWS-COMPUTATIONAL MOLECULAR SCIENCE, 4 (1), 15-25 (2014). 
 CP2K: atomistic simulations of condensed matter systems.
 https://dx.doi.org/10.1002/wcms.1159


 VandeVondele, J; Borstnik, U; Hutter, J. 
 JOURNAL OF CHEMICAL THEORY AND COMPUTATION, 8 (10), 3565-3573 (2012). 
 Linear Scaling Self-Consistent Field Calculations with Millions of Atoms
 in the Condensed Phase.
 https://dx.doi.org/10.1021/ct200897x


 VandeVondele, J; Hutter, J. 
 JOURNAL OF CHEMICAL PHYSICS, 127 (11), 114105 (2007). 
 Gaussian basis sets for accurate calculations on molecular systems in
 gas and condensed phases.
 https://dx.doi.org/10.1063/1.2770708


 Krack, M. 
 THEORETICAL CHEMISTRY ACCOUNTS, 114 (1-3), 145-152 (2005). 
 Pseudopotentials for H to Kr optimized for gradient-corrected
 exchange-correlation functionals.
 https://dx.doi.org/10.1007/s00214-005-0655-y


 VandeVondele, J; Krack, M; Mohamed, F; Parrinello, M; Chassaing, T;
 Hutter, J. COMPUTER PHYSICS COMMUNICATIONS, 167 (2), 103-128 (2005). 
 QUICKSTEP: Fast and accurate density functional calculations using a
 mixed Gaussian and plane waves approach.
 https://dx.doi.org/10.1016/j.cpc.2004.12.014


 Frigo, M; Johnson, SG. 
 PROCEEDINGS OF THE IEEE, 93 (2), 216-231 (2005). 
 The design and implementation of FFTW3.
 https://dx.doi.org/10.1109/JPROC.2004.840301


 Niklasson, AMN; Tymczak, CJ; Challacombe, M. 
 JOURNAL OF CHEMICAL PHYSICS, 118 (19), 8611-8620 (2003). 
 Trace resetting density matrix purification in O(N)
 self-consistent-field theory.
 https://dx.doi.org/10.1063/1.1559913


 Hartwigsen, C; Goedecker, S; Hutter, J. 
 PHYSICAL REVIEW B, 58 (7), 3641-3662 (1998). 
 Relativistic separable dual-space Gaussian pseudopotentials from H to Rn.
 https://dx.doi.org/10.1103/PhysRevB.58.3641


 Lippert, G; Hutter, J; Parrinello, M. 
 MOLECULAR PHYSICS, 92 (3), 477-487 (1997). 
 A hybrid Gaussian and plane wave density functional scheme.
 https://dx.doi.org/10.1080/002689797170220


 Perdew, JP; Burke, K; Ernzerhof, M. 
 PHYSICAL REVIEW LETTERS, 77 (18), 3865-3868 (1996). 
 Generalized gradient approximation made simple.
 https://dx.doi.org/10.1103/PhysRevLett.77.3865


 Goedecker, S; Teter, M; Hutter, J. 
 PHYSICAL REVIEW B, 54 (3), 1703-1710 (1996). 
 Separable dual-space Gaussian pseudopotentials.
 https://dx.doi.org/10.1103/PhysRevB.54.1703


 -------------------------------------------------------------------------------
 -                                                                             -
 -                                T I M I N G                                  -
 -                                                                             -
 -------------------------------------------------------------------------------
 SUBROUTINE                       CALLS  ASD         SELF TIME        TOTAL TIME
                                MAXIMUM       AVERAGE  MAXIMUM  AVERAGE  MAXIMUM
 CP2K                                 1  1.0    0.031    0.031   24.258   24.258
 qs_energies                          1  2.0    0.000    0.000   23.755   23.755
 ls_scf                               1  3.0    0.000    0.000   23.601   23.601
 ls_scf_main                          4  4.0    0.001    0.001   13.055   13.055
 ls_scf_dm_to_ks                      9  5.0    0.000    0.000   12.971   12.971
 qs_ks_update_qs_env                 10  6.0    0.000    0.000   10.751   10.751
 rebuild_ks_matrix                   10  7.0    0.000    0.000   10.750   10.750
 qs_ks_build_kohn_sham_matrix        10  8.0    0.001    0.001   10.750   10.750
 pao_update                           4  4.0    0.008    0.008    8.273    8.273
 pao_calc_energy                    411  5.0    0.003    0.003    7.455    7.455
 qs_vxc_create                       10  9.0    0.000    0.000    6.505    6.505
 xc_vxc_pw_create                    10 10.0    0.097    0.097    6.505    6.505
 dbcsr_multiply_generic           22522  8.4    0.416    0.416    6.421    6.421
 xc_rho_set_and_dset_create          10 11.0    0.027    0.027    4.790    4.790
 pw_transfer                        191 10.6    0.011    0.011    4.427    4.427
 qs_rho_update_rho                   10  6.0    0.000    0.000    4.422    4.422
 calculate_rho_elec                  10  7.0    3.435    3.435    4.422    4.422
 fft_wrap_pw1pw2                    171 11.7    0.001    0.001    4.350    4.350
 fft_wrap_pw1pw2_200                111 12.8    0.276    0.276    4.164    4.164
 pao_dm_trs4                        411  6.0    0.003    0.003    3.873    3.873
 density_matrix_trs4                420  7.0    0.149    0.149    3.728    3.728
 ls_scf_init_matrix_S               415  7.0    0.003    0.003    3.588    3.588
 pao_rebuild_S                      411  6.0    0.002    0.002    3.549    3.549
 sum_up_and_integrate                10  9.0    0.014    0.014    3.539    3.539
 integrate_v_rspace                  10 10.0    3.060    3.060    3.525    3.525
 xc_functional_eval                  10 12.0    0.000    0.000    3.290    3.290
 pbe_lda_eval                        10 13.0    3.290    3.290    3.290    3.290
 matrix_sqrt_Newton_Schulz          415  8.0    0.094    0.094    3.232    3.232
 multiply_cannon                  22522  9.4    1.060    1.060    3.003    3.003
 fft3d_s                            172 13.6    2.372    2.372    2.389    2.389
 pao_guess_initial_P                  1  4.0    0.000    0.000    2.206    2.206
 pao_read_preopt_dm                   1  5.0    0.000    0.000    2.206    2.206
 make_m2s                         45044  9.4    0.151    0.151    2.023    2.023
 make_images                      45044 10.4    0.492    0.492    1.785    1.785
 multiply_cannon_multrec          22522 10.4    1.018    1.018    1.117    1.117
 density_rs2pw                       10  8.0    0.001    0.001    0.974    0.974
 pw_gather_s                         81 13.1    0.863    0.863    0.863    0.863
 arnoldi_extremal                   835  8.5    0.004    0.004    0.862    0.862
 arnoldi_normal_ev                  835  9.5    0.011    0.011    0.859    0.859
 pw_scatter_s                        90 14.2    0.811    0.811    0.811    0.811
 pao_calc_AB                        542  5.8    0.001    0.001    0.799    0.799
 pao_calc_AB_direct                 542  6.8    0.021    0.021    0.799    0.799
 pao_calc_grad_lnv_wrt_AB           130  7.0    0.007    0.007    0.755    0.755
 build_subspace                     835 10.5    0.048    0.048    0.644    0.644
 dbcsr_finalize                   53706  9.6    0.103    0.103    0.598    0.598
 dbcsr_matrix_vector_mult         20029 11.5    0.096    0.096    0.580    0.580
 dbcsr_create_new                172233 10.7    0.296    0.296    0.551    0.551
 -------------------------------------------------------------------------------

 The number of warnings for this run is : 0
 
 -------------------------------------------------------------------------------
  **** **** ******  **  PROGRAM ENDED AT                 2019-03-28 17:34:56.738
 ***** ** ***  *** **   PROGRAM RAN ON            oleschuett.zrh.corp.google.com
 **    ****   ******    PROGRAM RAN BY                                oleschuett
 ***** **    ** ** **   PROGRAM PROCESS ID                                 37207
  **** **  *******  **  PROGRAM STOPPED IN /usr/local/google/home/oleschuett/git
                                           /pao_ml_equivar/2H2O_rotations/rand_1
                                           5
