 DBCSR| CPU Multiplication driver                                           XSMM (U)
 DBCSR| Multrec recursion limit                                              512 (U)
 DBCSR| Multiplication stack size                                           1000 (D)
 DBCSR| Maximum elements for images                                    UNLIMITED (U)
 DBCSR| Multiplicative factor virtual images                                   1 (U)
 DBCSR| Use multiplication densification                                       T (D)
 DBCSR| Multiplication size stacks                                             3 (U)
 DBCSR| Use memory pool for CPU allocation                                     F (U)
 DBCSR| OMP: Current number of threads                                         1
 DBCSR| OMP: Max number of threads                                             1
 DBCSR| Split modifier for TAS multiplication algorithm                  1.0E+00 (U)


  **** **** ******  **  PROGRAM STARTED AT               2023-02-01 10:43:54.933
 ***** ** ***  *** **   PROGRAM STARTED ON                                moritz
 **    ****   ******    PROGRAM STARTED BY                                   ole
 ***** **    ** ** **   PROGRAM PROCESS ID                                148518
  **** **  *******  **  PROGRAM STARTED IN /home/ole/git/pao_ml_equivar/2H2O_rot
                                           ations/rand_15

 CP2K| version string:                 CP2K version 2023.1 (Development Version)
 CP2K| source code revision number:                                  git:03b4147
 CP2K| cp2kflags: omp libint fftw3 libxc quip xsmm spglib libvori libbqb libtorc
 CP2K|            h
 CP2K| is freely available from                            https://www.cp2k.org/
 CP2K| Program compiled at                           Mi 01 Feb 2023 10:36:52 CET
 CP2K| Program compiled on                                                moritz
 CP2K| Program compiled for                                                local
 CP2K| Data directory path                               /home/ole/git/cp2k/data
 CP2K| Input file name                                            2H2O_pao44.inp

 GLOBAL| Force Environment number                                              1
 GLOBAL| Basis set file name                                        BASIS_MOLOPT
 GLOBAL| Potential file name                                      GTH_POTENTIALS
 GLOBAL| MM Potential file name                                     MM_POTENTIAL
 GLOBAL| Coordinate file name                                         coords.xyz
 GLOBAL| Method name                                                        CP2K
 GLOBAL| Project name                                                 2H2O_pao44
 GLOBAL| Run type                                                         ENERGY
 GLOBAL| FFT library                                                       FFTW3
 GLOBAL| Diagonalization library                                       ScaLAPACK
 GLOBAL| DGEMM library                                                      BLAS
 GLOBAL| Orthonormality check for eigenvectors                          DISABLED
 GLOBAL| Matrix multiplication library                                 ScaLAPACK
 GLOBAL| All-to-all communication in single precision                          F
 GLOBAL| FFTs using library dependent lengths                                  F
 GLOBAL| Grid backend                                                       AUTO
 GLOBAL| Global print level                                                  LOW
 GLOBAL| MPI I/O enabled                                                       T
 GLOBAL| Total number of message passing processes                             1
 GLOBAL| Number of threads for this process                                    1
 GLOBAL| This output is from process                                           0
 GLOBAL| Stack size for threads created by OpenMP (OMP_STACKSIZE)        default
 GLOBAL| CPU model name           AMD Ryzen Threadripper 3970X 32-Core Processor
 GLOBAL| CPUID                                                              1002
 GLOBAL| Compiled for CPUID                                                    0

 *** HINT in environment.F:884 :: The compiler target flags (generic) used ***
 *** to build this binary cannot exploit all extensions of this CPU model  ***
 *** (x86_avx2). Consider compiler target flags as part of FCFLAGS and     ***
 *** CFLAGS (ARCH file).                                                   ***


 MEMORY| system memory details [Kb]
 MEMORY|                        rank 0           min           max       average
 MEMORY| MemTotal            131773860     131773860     131773860     131773860
 MEMORY| MemFree             115394212     115394212     115394212     115394212
 MEMORY| Buffers                301492        301492        301492        301492
 MEMORY| Cached                7000768       7000768       7000768       7000768
 MEMORY| Slab                   776600        776600        776600        776600
 MEMORY| SReclaimable           330700        330700        330700        330700
 MEMORY| MemLikelyFree       123027172     123027172     123027172     123027172


 GENERATE|  Preliminary Number of Bonds generated:                             0
 GENERATE|  Achieved consistency in connectivity generation.

 *******************************************************************************
 *******************************************************************************
 **                                                                           **
 **     #####                         ##              ##                      **
 **    ##   ##            ##          ##              ##                      **
 **   ##     ##                       ##            ######                    **
 **   ##     ##  ##   ##  ##   #####  ##  ##   ####   ##    #####    #####    **
 **   ##     ##  ##   ##  ##  ##      ## ##   ##      ##   ##   ##  ##   ##   **
 **   ##  ## ##  ##   ##  ##  ##      ####     ###    ##   ######   ######    **
 **    ##  ###   ##   ##  ##  ##      ## ##      ##   ##   ##       ##        **
 **     #######   #####   ##   #####  ##  ##  ####    ##    #####   ##        **
 **           ##                                                    ##        **
 **                                                                           **
 **                                                ... make the atoms dance   **
 **                                                                           **
 **            Copyright (C) by CP2K developers group (2000-2023)             **
 **                      J. Chem. Phys. 152, 194103 (2020)                    **
 **                                                                           **
 *******************************************************************************


 TOTAL NUMBERS AND MAXIMUM NUMBERS

  Total number of            - Atomic kinds:                                   2
                             - Atoms:                                          6
                             - Shell sets:                                     6
                             - Shells:                                        22
                             - Primitive Cartesian functions:                 42
                             - Cartesian basis functions:                     48
                             - Spherical basis functions:                     46

  Maximum angular momentum of- Orbital basis functions:                        2
                             - Local part of the GTH pseudopotential:          2
                             - Non-local part of the GTH pseudopotential:      0

 ------------------------------ Linear scaling SCF -----------------------------
 eps_scf:                                                              0.100E-07
 eps_filter:                                                           0.100E-07
 mixing_fraction:                                                      0.450E+00
 max_scf:                                                                     25
 fixed chemical potential (mu)                                                 F
 has unit metric:                                                              F
 Computing inv(S):                                                             T
 Computing sqrt(S):                                                            T
 Computing S preconditioner                                                    F
 S sqrt method:                                                     NEWTONSCHULZ
 S sqrt order:                                                                 3
 Extrapolation order:                                                          1
 Use single precision matrices                                                 F
 S preconditioner type                                                      NONE
 Polarized Atomic Orbitals (PAO)                                               T
 Purification method                                   Trace resetting 4th order
 Cluster type                                                             ATOMIC
 Computing Chebyshev                                                       FALSE
 Using PAO                                                                     T
 -------------------------------------------------------------------------------

 
 PAO|                                  EPS_PAO                           0.1E-04
 PAO|                                  MIXING                            0.5E+00
 PAO|                                  MAX_PAO                              1000
 PAO|                                  MAX_CYCLES                           1000
 PAO|                                  PARAMETERIZATION              EQUIVARIANT
 PAO|                                  PRECONDITION                            F
 PAO|                                  REGULARIZATION                    0.0E+00
 PAO|                                  EPS_PGF                           0.1E-09
 PAO|                                  PENALTY_DISTANCE                  0.1E+00
 PAO|                                  PENALTY_STRENGTH                  0.5E-02
 PAO|                                  LINPOT_PRECONDITION_DELTA         0.0E+00
 PAO|                                  LINPOT_INITGUESS_DELT             0.0E+00
 PAO|                                  LINPOT_REGULARIZATION_DELTA       0.0E+00
 PAO|                                  LINPOT_REGULARIZATION_STRENGTH    0.0E+00
 PAO|                                  OPTIMIZER                              CG
 PAO|                                  CG_INIT_STEPS                           2
 PAO|                                  CG_RESET_LIMIT                    0.1E+00
 PAO|                                  CHECK_UNITARY_TOL                -0.1E+01
 PAO|                                  CHECK_GRADIENT_TOL               -0.1E+01
 PAO|                                  NUM_GRADIENT_ORDER                      2
 PAO|                                  NUM_GRADIENT_EPS                  0.1E-07
 PAO|                                  PRINT%RESTART%WRITE_CYCLES            100
 PAO|                                  RESTART_FILE 
 PAO|                                  PREOPT_DM_FILE 2H2O_ref_LS_DM_SPIN_1_RESTART.dm
 PAO|                                  MACHINE_LEARNING%METHOD       GAUSSIAN_PR
 PAO|                                  MACHINE_LEARNING%PRIOR               ZERO
 PAO|                                  MACHINE_LEARNING%DESCRIPTOR     POTENTIAL
 PAO|                                  MACHINE_LEARNING%TOLERANCE        0.1E-01
 PAO|                                  MACHINE_LEARNING%GP_NOISE_VAR     0.1E+00
 PAO|                                  MACHINE_LEARNING%GP_SCALE         0.5E-01
 

 Calculating atomic Fock matrix for atomic kind: O

 Electronic structure
    Total number of core electrons                                          2.00
    Total number of valence electrons                                       6.00
    Total number of electrons                                               8.00
    Multiplicity                                                   not specified
    S   [  2.00] 2.00
    P      4.00


 *******************************************************************************
                  Iteration          Convergence                     Energy [au]
 *******************************************************************************
                          1        0.708315                     -15.576645311500
                          2        0.608879                     -15.587933561584
                          3        0.102828E-01                 -15.656849565404
                          4        0.113889E-02                 -15.656866888140
                          5        0.434197E-03                 -15.656867072159
                          6        0.263771E-03                 -15.656867091904
                          7        0.478536E-06                 -15.656867103452

 Energy components [Hartree]           Total Energy ::          -15.656867103452
                                        Band Energy ::           -3.000198112285
                                     Kinetic Energy ::           11.759971203220
                                   Potential Energy ::          -27.416838306672
                                      Virial (-V/T) ::            2.331369510426
                                        Core Energy ::          -26.140716385623
                                          XC Energy ::           -3.154051012914
                                     Coulomb Energy ::           13.637900295084
                       Total Pseudopotential Energy ::          -37.935781716540
                       Local Pseudopotential Energy ::          -39.218907440693
                    Nonlocal Pseudopotential Energy ::            1.283125724153
                                        Confinement ::            0.350941276976

 Orbital energies  State     L     Occupation   Energy[a.u.]          Energy[eV]

                       1     0          2.000      -0.864471          -23.523463

                       1     1          4.000      -0.317814           -8.648154


 Total Electron Density at R=0:                                         0.000068

 Calculating atomic Fock matrix for atomic kind: H

 Electronic structure
    Total number of core electrons                                          0.00
    Total number of valence electrons                                       1.00
    Total number of electrons                                               1.00
    Multiplicity                                                   not specified
    S      1.00


 *******************************************************************************
                  Iteration          Convergence                     Energy [au]
 *******************************************************************************
                          1        0.437545E-02                  -0.424159432110
                          2        0.531356E-03                  -0.424178438213
                          3        0.259176E-06                  -0.424178722480

 Energy components [Hartree]           Total Energy ::           -0.424178722480
                                        Band Energy ::           -0.199015229016
                                     Kinetic Energy ::            0.464007633961
                                   Potential Energy ::           -0.888186356441
                                      Virial (-V/T) ::            1.914163240935
                                        Core Energy ::           -0.479160803564
                                          XC Energy ::           -0.244352904054
                                     Coulomb Energy ::            0.299334985138
                       Total Pseudopotential Energy ::           -0.962295316385
                       Local Pseudopotential Energy ::           -0.962295316385
                    Nonlocal Pseudopotential Energy ::            0.000000000000
                                        Confinement ::            0.191268788606

 Orbital energies  State     L     Occupation   Energy[a.u.]          Energy[eV]

                       1     0          1.000      -0.199015           -5.415480


 Total Electron Density at R=0:                                         0.242907
 PAO| Made initial guess for matrix_X with norm:   4.8989794855663558     

     Lanczos converged:  T threshold:   0.100E-02
     Est. extremal eigenvalues:    0.337E+01   0.114E+00
     Est. condition number :    0.296E+02

 Order=           3
     NS sqrt iter    1 1.00000000   0.823E+00       0.001       53.143
     NS sqrt iter    2 1.00000000   0.440E+00       0.001      103.801
     NS sqrt iter    3 1.00000000   0.170E+00       0.001      110.592
     NS sqrt iter    4 1.00000000   0.207E-01       0.001      110.592
     NS sqrt iter    5 1.00000000   0.548E-04       0.001       92.544
     Symmetrizing Results
     Final NS sqrt iter    5 1.00000000   0.302E-08

 PAO| Read restart DM 2H2O_ref_LS_DM_SPIN_1_RESTART.dm with checksum:    73.060579630514738     
 PAO| Quickstep energy from restart density:  -34.450346154211587     
 PAO| ======================= Iteration:         1 =============================

     Lanczos converged:  T threshold:   0.100E-02
     Est. extremal eigenvalues:    0.337E+01   0.114E+00
     Est. condition number :    0.296E+02

 Order=           3
     NS sqrt iter    1 1.00000000   0.823E+00       0.001       58.633
     NS sqrt iter    2 1.00000000   0.440E+00       0.001      102.464
     NS sqrt iter    3 1.00000000   0.170E+00       0.001      101.963
     NS sqrt iter    4 1.00000000   0.207E-01       0.001      102.127
     NS sqrt iter    5 1.00000000   0.548E-04       0.001       84.826
     Symmetrizing Results
     Final NS sqrt iter    5 1.00000000   0.302E-08

     Est. extremal eigenvalues     -0.91816     1.86842  converged:  T
     TRS4 it   1 1.00000000   0.885E+00       0.000       16.128   0.100E-07
     TRS4 it   2 1.00000000   0.688E+00       0.001       32.256   0.100E-07
     TRS4 it   3 1.00000000   0.496E+00       0.001       32.256   0.100E-07
     TRS4 it   4 1.00000000   0.310E+00       0.001       32.256   0.100E-07
     TRS4 it   5 1.00000000   0.153E+00       0.001       32.256   0.100E-07
     TRS4 it   6 1.00000000   0.477E-01       0.001       32.256   0.100E-07
     TRS4 it   7 1.00000000   0.639E-02       0.001       32.256   0.100E-07
     TRS4 it   8 1.00000000   0.162E-03       0.001       32.256   0.100E-07
     TRS4 it   9 1.00000000   0.117E-06       0.001       32.256   0.100E-07
     TRS4 it  10 1.00000000   0.612E-13       0.001       32.256   0.100E-07
     Final TRS4 iteration   10 1.00000000   0.612E-13
     Chemical potential (mu):      -0.06161
 
 PAO| energy:  -7.5881850167048999      penalty:   2.8349688781380110E-033
 PAO|CG| warming up with steepest descent
 PAO|CG| beta:    0.0000000000000000     
 PAO| norm of gradient:  0.78398430594296098     
 PAO|LS| adapt:  T F F
 PAO|LS| adapt: scan_steps:    0.0000000000000000        0.0000000000000000        0.0000000000000000     
 PAO|LS| adapt: energies:   -7.5881850167048999        0.0000000000000000        0.0000000000000000     
 PAO| ======================= Iteration:         2 =============================

     Lanczos converged:  T threshold:   0.100E-02
     Est. extremal eigenvalues:    0.328E+01   0.127E+00
     Est. condition number :    0.258E+02

 Order=           3
     NS sqrt iter    1 1.00000000   0.807E+00       0.001       59.197
     NS sqrt iter    2 1.00000000   0.425E+00       0.001       99.828
     NS sqrt iter    3 1.00000000   0.152E+00       0.001      101.780
     NS sqrt iter    4 1.00000000   0.142E-01       0.001      102.686
     NS sqrt iter    5 1.00000000   0.172E-04       0.001       77.374
     Symmetrizing Results
     Final NS sqrt iter    5 1.00000000   0.444E-09

     Est. extremal eigenvalues     -0.92184     1.81021  converged:  T
     TRS4 it   1 1.00000000   0.881E+00       0.000       16.128   0.100E-07
     TRS4 it   2 1.00000000   0.668E+00       0.001       32.256   0.100E-07
     TRS4 it   3 1.00000000   0.479E+00       0.001       32.256   0.100E-07
     TRS4 it   4 1.00000000   0.289E+00       0.001       32.256   0.100E-07
     TRS4 it   5 1.00000000   0.133E+00       0.001       32.256   0.100E-07
     TRS4 it   6 1.00000000   0.363E-01       0.001       32.256   0.100E-07
     TRS4 it   7 1.00000000   0.376E-02       0.001       32.256   0.100E-07
     TRS4 it   8 1.00000000   0.565E-04       0.001       32.256   0.100E-07
     TRS4 it   9 1.00000000   0.142E-07       0.001       32.256   0.100E-07
     Final TRS4 iteration    9 1.00000000   0.142E-07
     Chemical potential (mu):      -0.04971
 
 PAO| energy:  -7.6437399716589791      penalty:   2.2582485500846435E-008
 PAO|LS| adapt:  T T F
 PAO|LS| adapt: scan_steps:    0.0000000000000000       0.10000000000000001        0.0000000000000000     
 PAO|LS| adapt: energies:   -7.5881850167048999       -7.6437399716589791        0.0000000000000000     
 PAO| ======================= Iteration:         3 =============================

     Lanczos converged:  T threshold:   0.100E-02
     Est. extremal eigenvalues:    0.319E+01   0.139E+00
     Est. condition number :    0.229E+02

 Order=           3
     NS sqrt iter    1 1.00000000   0.789E+00       0.001       59.527
     NS sqrt iter    2 1.00000000   0.408E+00       0.001      100.051
     NS sqrt iter    3 1.00000000   0.135E+00       0.001      103.391
     NS sqrt iter    4 1.00000000   0.973E-02       0.001      100.770
     NS sqrt iter    5 1.00000000   0.553E-05       0.001       78.850
     Symmetrizing Results
     Final NS sqrt iter    5 1.00000000   0.461E-10

     Est. extremal eigenvalues     -0.92527     1.76325  converged:  T
     TRS4 it   1 1.00000000   0.876E+00       0.000       16.128   0.100E-07
     TRS4 it   2 1.00000000   0.650E+00       0.001       32.256   0.100E-07
     TRS4 it   3 1.00000000   0.462E+00       0.001       32.256   0.100E-07
     TRS4 it   4 1.00000000   0.268E+00       0.001       32.256   0.100E-07
     TRS4 it   5 1.00000000   0.114E+00       0.001       32.256   0.100E-07
     TRS4 it   6 1.00000000   0.267E-01       0.001       32.256   0.100E-07
     TRS4 it   7 1.00000000   0.204E-02       0.001       32.256   0.100E-07
     TRS4 it   8 1.00000000   0.166E-04       0.001       32.256   0.100E-07
     TRS4 it   9 1.00000000   0.123E-08       0.001       32.256   0.100E-07
     Final TRS4 iteration    9 1.00000000   0.123E-08
     Chemical potential (mu):      -0.03686
 
 PAO| energy:  -7.6868205424011906      penalty:   3.6131976694104641E-007
 PAO|LS| adapt:  T T F
 PAO|LS| adapt: scan_steps:    0.0000000000000000       0.20000000000000001        0.0000000000000000     
 PAO|LS| adapt: energies:   -7.5881850167048999       -7.6868205424011906        0.0000000000000000     
 PAO| ======================= Iteration:         4 =============================

     Lanczos converged:  T threshold:   0.100E-02
     Est. extremal eigenvalues:    0.299E+01   0.159E+00
     Est. condition number :    0.188E+02

 Order=           3
     NS sqrt iter    1 1.00000000   0.751E+00       0.001       60.205
     NS sqrt iter    2 1.00000000   0.373E+00       0.001       99.892
     NS sqrt iter    3 1.00000000   0.105E+00       0.001      101.391
     NS sqrt iter    4 1.00000000   0.466E-02       0.001      102.888
     NS sqrt iter    5 1.00000000   0.700E-06       0.001       78.496
     Symmetrizing Results
     Final NS sqrt iter    5 1.00000000   0.805E-12

     Est. extremal eigenvalues     -0.93058     1.69515  converged:  T
     TRS4 it   1 1.00000000   0.870E+00       0.000       16.128   0.100E-07
     TRS4 it   2 1.00000000   0.622E+00       0.001       32.256   0.100E-07
     TRS4 it   3 1.00000000   0.430E+00       0.001       32.256   0.100E-07
     TRS4 it   4 1.00000000   0.229E+00       0.001       32.256   0.100E-07
     TRS4 it   5 1.00000000   0.818E-01       0.001       32.256   0.100E-07
     TRS4 it   6 1.00000000   0.133E-01       0.001       32.256   0.100E-07
     TRS4 it   7 1.00000000   0.485E-03       0.001       32.256   0.100E-07
     TRS4 it   8 1.00000000   0.927E-06       0.001       32.256   0.100E-07
     TRS4 it   9 1.00000000   0.383E-11       0.001       32.256   0.100E-07
     Final TRS4 iteration    9 1.00000000   0.383E-11
     Chemical potential (mu):      -0.00872
 
 PAO| energy:  -7.7339818798715871      penalty:   5.7811162624891822E-006
 PAO|LS| Need extra step
 PAO|LS| adapt:  T T F
 PAO|LS| adapt: scan_steps:    0.0000000000000000       0.40000000000000002        0.0000000000000000     
 PAO|LS| adapt: energies:   -7.5881850167048999       -7.7339818798715871        0.0000000000000000     
 PAO| ======================= Iteration:         5 =============================

     Lanczos converged:  T threshold:   0.100E-02
     Est. extremal eigenvalues:    0.263E+01   0.189E+00
     Est. condition number :    0.139E+02

 Order=           3
     NS sqrt iter    1 1.00000000   0.684E+00       0.001       59.418
     NS sqrt iter    2 1.00000000   0.310E+00       0.001      100.476
     NS sqrt iter    3 1.00000000   0.643E-01       0.001      102.944
     NS sqrt iter    4 1.00000000   0.122E-02       0.001      101.293
     NS sqrt iter    5 1.00000000   0.149E-07       0.001       48.497
     Symmetrizing Results
     Final NS sqrt iter    5 1.00000000   0.485E-08

     Est. extremal eigenvalues     -0.93176     1.62162  converged:  T
     TRS4 it   1 1.00000000   0.863E+00       0.000       16.128   0.100E-07
     TRS4 it   2 1.00000000   0.584E+00       0.001       32.256   0.100E-07
     TRS4 it   3 1.00000000   0.378E+00       0.001       32.256   0.100E-07
     TRS4 it   4 1.00000000   0.169E+00       0.001       32.256   0.100E-07
     TRS4 it   5 1.00000000   0.420E-01       0.001       32.256   0.100E-07
     TRS4 it   6 1.00000000   0.320E-02       0.001       32.256   0.100E-07
     TRS4 it   7 1.00000000   0.240E-04       0.001       32.256   0.100E-07
     TRS4 it   8 1.00000000   0.168E-08       0.001       32.256   0.100E-07
     Final TRS4 iteration    8 1.00000000   0.168E-08
     Chemical potential (mu):       0.03997
 
 PAO| energy:  -7.6790279442586264      penalty:   9.2497860131338935E-005
 PAO|LS| Need extra step
 PAO|LS| adapt:  T T T
 PAO|LS| adapt: scan_steps:    0.0000000000000000       0.40000000000000002       0.80000000000000004     
 PAO|LS| adapt: energies:   -7.5881850167048999       -7.7339818798715871       -7.6790279442586264     
 PAO|LS| adapt: suggested step_size:   0.49050317917134623     
 PAO|LS| adapt: predicted energy  -7.7391203634646146     
 PAO| ======================= Iteration:         6 =============================

     Lanczos converged:  T threshold:   0.100E-02
     Est. extremal eigenvalues:    0.290E+01   0.167E+00
     Est. condition number :    0.174E+02

 Order=           3
     NS sqrt iter    1 1.00000000   0.734E+00       0.001       59.451
     NS sqrt iter    2 1.00000000   0.358E+00       0.001       99.060
     NS sqrt iter    3 1.00000000   0.940E-01       0.001       99.868
     NS sqrt iter    4 1.00000000   0.339E-02       0.001      101.511
     NS sqrt iter    5 1.00000000   0.290E-06       0.001       76.332
     Symmetrizing Results
     Final NS sqrt iter    5 1.00000000   0.209E-09

     Est. extremal eigenvalues     -0.93205     1.67275  converged:  T
     TRS4 it   1 1.00000000   0.868E+00       0.000       16.128   0.100E-07
     TRS4 it   2 1.00000000   0.611E+00       0.001       32.256   0.100E-07
     TRS4 it   3 1.00000000   0.417E+00       0.001       32.256   0.100E-07
     TRS4 it   4 1.00000000   0.213E+00       0.001       32.256   0.100E-07
     TRS4 it   5 1.00000000   0.699E-01       0.001       32.256   0.100E-07
     TRS4 it   6 1.00000000   0.949E-02       0.001       32.256   0.100E-07
     TRS4 it   7 1.00000000   0.238E-03       0.001       32.256   0.100E-07
     TRS4 it   8 1.00000000   0.215E-06       0.001       32.256   0.100E-07
     TRS4 it   9 1.00000000   0.203E-12       0.001       32.256   0.100E-07
     Final TRS4 iteration    9 1.00000000   0.203E-12
     Chemical potential (mu):       0.00474
 
 PAO| energy:  -7.7383667617220846      penalty:   1.3071909857303126E-005
 PAO|CG| warming up with steepest descent
 PAO|CG| beta:    0.0000000000000000     
 PAO| norm of gradient:  0.41697091755848192     
 PAO| energy improvement: -0.15018174501718473     
 PAO| step      6                   -7.738366762  0.261E-01  0.491E+00     0.091
 PAO|LS| adapt:  T F F
 PAO|LS| adapt: scan_steps:    0.0000000000000000        0.0000000000000000        0.0000000000000000     
 PAO|LS| adapt: energies:   -7.7383667617220846        0.0000000000000000        0.0000000000000000     
 PAO| ======================= Iteration:         7 =============================

     Lanczos converged:  T threshold:   0.100E-02
     Est. extremal eigenvalues:    0.281E+01   0.181E+00
     Est. condition number :    0.155E+02

 Order=           3
     NS sqrt iter    1 1.00000000   0.716E+00       0.001       59.427
     NS sqrt iter    2 1.00000000   0.337E+00       0.001       99.875
     NS sqrt iter    3 1.00000000   0.783E-01       0.001      101.074
     NS sqrt iter    4 1.00000000   0.202E-02       0.001      102.093
     NS sqrt iter    5 1.00000000   0.689E-07       0.001       67.919
     Symmetrizing Results
     Final NS sqrt iter    5 1.00000000   0.650E-09

     Est. extremal eigenvalues     -0.93375     1.66031  converged:  T
     TRS4 it   1 1.00000000   0.867E+00       0.000       16.128   0.100E-07
     TRS4 it   2 1.00000000   0.609E+00       0.001       32.256   0.100E-07
     TRS4 it   3 1.00000000   0.416E+00       0.001       32.256   0.100E-07
     TRS4 it   4 1.00000000   0.214E+00       0.001       32.256   0.100E-07
     TRS4 it   5 1.00000000   0.705E-01       0.001       32.256   0.100E-07
     TRS4 it   6 1.00000000   0.941E-02       0.001       32.256   0.100E-07
     TRS4 it   7 1.00000000   0.223E-03       0.001       32.256   0.100E-07
     TRS4 it   8 1.00000000   0.179E-06       0.001       32.256   0.100E-07
     TRS4 it   9 1.00000000   0.140E-12       0.001       32.256   0.100E-07
     Final TRS4 iteration    9 1.00000000   0.140E-12
     Chemical potential (mu):       0.00641
 
 PAO| energy:  -7.7324693306394829      penalty:   1.9731626016527307E-005
 PAO|LS| adapt:  T F T
 PAO|LS| adapt: scan_steps:    0.0000000000000000        0.0000000000000000       0.49050317917134623     
 PAO|LS| adapt: energies:   -7.7383667617220846        0.0000000000000000       -7.7324693306394829     
 PAO| ======================= Iteration:         8 =============================

     Lanczos converged:  T threshold:   0.100E-02
     Est. extremal eigenvalues:    0.286E+01   0.174E+00
     Est. condition number :    0.165E+02

 Order=           3
     NS sqrt iter    1 1.00000000   0.725E+00       0.001       59.211
     NS sqrt iter    2 1.00000000   0.347E+00       0.001       98.565
     NS sqrt iter    3 1.00000000   0.860E-01       0.001      101.785
     NS sqrt iter    4 1.00000000   0.264E-02       0.001      101.135
     NS sqrt iter    5 1.00000000   0.144E-06       0.001       73.537
     Symmetrizing Results
     Final NS sqrt iter    5 1.00000000   0.101E-08

     Est. extremal eigenvalues     -0.93388     1.66582  converged:  T
     TRS4 it   1 1.00000000   0.867E+00       0.000       16.128   0.100E-07
     TRS4 it   2 1.00000000   0.610E+00       0.001       32.256   0.100E-07
     TRS4 it   3 1.00000000   0.416E+00       0.001       32.256   0.100E-07
     TRS4 it   4 1.00000000   0.213E+00       0.001       32.256   0.100E-07
     TRS4 it   5 1.00000000   0.700E-01       0.001       32.256   0.100E-07
     TRS4 it   6 1.00000000   0.950E-02       0.001       32.256   0.100E-07
     TRS4 it   7 1.00000000   0.237E-03       0.001       32.256   0.100E-07
     TRS4 it   8 1.00000000   0.209E-06       0.001       32.256   0.100E-07
     TRS4 it   9 1.00000000   0.192E-12       0.001       32.256   0.100E-07
     Final TRS4 iteration    9 1.00000000   0.192E-12
     Chemical potential (mu):       0.00512
 
 PAO| energy:  -7.7579748171799121      penalty:   1.4163934010289780E-005
 PAO|LS| adapt:  T T T
 PAO|LS| adapt: scan_steps:    0.0000000000000000       0.24525158958567311       0.49050317917134623     
 PAO|LS| adapt: energies:   -7.7383667617220846       -7.7579748171799121       -7.7324693306394829     
 PAO|LS| adapt: suggested step_size:   0.22922143230456329     
 PAO|LS| adapt: predicted energy  -7.7580711842900785     
 PAO| ======================= Iteration:         9 =============================

     Lanczos converged:  T threshold:   0.100E-02
     Est. extremal eigenvalues:    0.286E+01   0.173E+00
     Est. condition number :    0.165E+02

 Order=           3
     NS sqrt iter    1 1.00000000   0.726E+00       0.001       59.518
     NS sqrt iter    2 1.00000000   0.348E+00       0.001       98.917
     NS sqrt iter    3 1.00000000   0.865E-01       0.001      100.210
     NS sqrt iter    4 1.00000000   0.268E-02       0.001       98.953
     NS sqrt iter    5 1.00000000   0.151E-06       0.001       74.750
     Symmetrizing Results
     Final NS sqrt iter    5 1.00000000   0.101E-08

     Est. extremal eigenvalues     -0.93383     1.66623  converged:  T
     TRS4 it   1 1.00000000   0.867E+00       0.000       16.128   0.100E-07
     TRS4 it   2 1.00000000   0.610E+00       0.001       32.256   0.100E-07
     TRS4 it   3 1.00000000   0.416E+00       0.001       32.256   0.100E-07
     TRS4 it   4 1.00000000   0.213E+00       0.001       32.256   0.100E-07
     TRS4 it   5 1.00000000   0.700E-01       0.001       32.256   0.100E-07
     TRS4 it   6 1.00000000   0.950E-02       0.001       32.256   0.100E-07
     TRS4 it   7 1.00000000   0.237E-03       0.001       32.256   0.100E-07
     TRS4 it   8 1.00000000   0.210E-06       0.001       32.256   0.100E-07
     TRS4 it   9 1.00000000   0.195E-12       0.001       32.256   0.100E-07
     Final TRS4 iteration    9 1.00000000   0.195E-12
     Chemical potential (mu):       0.00507
 
 PAO| energy:  -7.7580949975260873      penalty:   1.3993825203219777E-005
 PAO|CG| trace_G_new    3.6621552151503936E-002
 PAO|CG| trace_G_prev   0.17386474608956232     
 PAO|CG| trace_G_mix   -1.4381820048338344E-003
 PAO|CG| trace_D   0.17386474608956232     
 PAO|CG| trace_D_Gnew   1.4381820048338344E-003
 PAO|CG| beta:   0.21890426329862295     
 PAO| norm of gradient:  0.19136758385762187     
 PAO| energy improvement:  -1.9728235804002736E-002
 PAO| step      9                   -7.758094998  0.120E-01  0.229E+00     0.057
 PAO|LS| adapt:  T F F
 PAO|LS| adapt: scan_steps:    0.0000000000000000        0.0000000000000000        0.0000000000000000     
 PAO|LS| adapt: energies:   -7.7580949975260873        0.0000000000000000        0.0000000000000000     
 PAO| ======================= Iteration:        10 =============================

     Lanczos converged:  T threshold:   0.100E-02
     Est. extremal eigenvalues:    0.282E+01   0.179E+00
     Est. condition number :    0.157E+02

 Order=           3
     NS sqrt iter    1 1.00000000   0.718E+00       0.001       59.225
     NS sqrt iter    2 1.00000000   0.339E+00       0.001      100.027
     NS sqrt iter    3 1.00000000   0.809E-01       0.001      101.129
     NS sqrt iter    4 1.00000000   0.220E-02       0.001      103.621
     NS sqrt iter    5 1.00000000   0.824E-07       0.001       70.054
     Symmetrizing Results
     Final NS sqrt iter    5 1.00000000   0.883E-09

     Est. extremal eigenvalues     -0.93471     1.66222  converged:  T
     TRS4 it   1 1.00000000   0.865E+00       0.000       16.128   0.100E-07
     TRS4 it   2 1.00000000   0.608E+00       0.001       32.256   0.100E-07
     TRS4 it   3 1.00000000   0.414E+00       0.001       32.256   0.100E-07
     TRS4 it   4 1.00000000   0.210E+00       0.001       32.256   0.100E-07
     TRS4 it   5 1.00000000   0.680E-01       0.001       32.256   0.100E-07
     TRS4 it   6 1.00000000   0.893E-02       0.001       32.256   0.100E-07
     TRS4 it   7 1.00000000   0.207E-03       0.001       32.256   0.100E-07
     TRS4 it   8 1.00000000   0.156E-06       0.001       32.256   0.100E-07
     TRS4 it   9 1.00000000   0.106E-12       0.001       32.256   0.100E-07
     Final TRS4 iteration    9 1.00000000   0.106E-12
     Chemical potential (mu):       0.00805
 
 PAO| energy:  -7.7630937597270773      penalty:   1.4523258581939548E-005
 PAO|LS| adapt:  T T F
 PAO|LS| adapt: scan_steps:    0.0000000000000000       0.22922143230456329        0.0000000000000000     
 PAO|LS| adapt: energies:   -7.7580949975260873       -7.7630937597270773        0.0000000000000000     
 PAO| ======================= Iteration:        11 =============================

     Lanczos converged:  T threshold:   0.100E-02
     Est. extremal eigenvalues:    0.278E+01   0.185E+00
     Est. condition number :    0.150E+02

 Order=           3
     NS sqrt iter    1 1.00000000   0.710E+00       0.001       58.470
     NS sqrt iter    2 1.00000000   0.331E+00       0.001      101.183
     NS sqrt iter    3 1.00000000   0.755E-01       0.001      100.597
     NS sqrt iter    4 1.00000000   0.179E-02       0.001      102.428
     NS sqrt iter    5 1.00000000   0.443E-07       0.001       64.820
     Symmetrizing Results
     Final NS sqrt iter    5 1.00000000   0.302E-09

     Est. extremal eigenvalues     -0.93463     1.65966  converged:  T
     TRS4 it   1 1.00000000   0.864E+00       0.000       16.128   0.100E-07
     TRS4 it   2 1.00000000   0.607E+00       0.001       32.256   0.100E-07
     TRS4 it   3 1.00000000   0.412E+00       0.001       32.256   0.100E-07
     TRS4 it   4 1.00000000   0.208E+00       0.001       32.256   0.100E-07
     TRS4 it   5 1.00000000   0.662E-01       0.001       32.256   0.100E-07
     TRS4 it   6 1.00000000   0.841E-02       0.001       32.256   0.100E-07
     TRS4 it   7 1.00000000   0.180E-03       0.001       32.256   0.100E-07
     TRS4 it   8 1.00000000   0.115E-06       0.001       32.256   0.100E-07
     TRS4 it   9 1.00000000   0.571E-13       0.001       32.256   0.100E-07
     Final TRS4 iteration    9 1.00000000   0.571E-13
     Chemical potential (mu):       0.01114
 
 PAO| energy:  -7.7616865505388040      penalty:   1.5715025556633806E-005
 PAO|LS| adapt:  T T T
 PAO|LS| adapt: scan_steps:    0.0000000000000000       0.22922143230456329       0.45844286460912659     
 PAO|LS| adapt: energies:   -7.7580949975260873       -7.7630937597270773       -7.7616865505388040     
 PAO|LS| adapt: suggested step_size:   0.29347873816394521     
 PAO|LS| adapt: predicted energy  -7.7633454634160914     
 PAO| ======================= Iteration:        12 =============================

     Lanczos converged:  T threshold:   0.100E-02
     Est. extremal eigenvalues:    0.281E+01   0.181E+00
     Est. condition number :    0.155E+02

 Order=           3
     NS sqrt iter    1 1.00000000   0.715E+00       0.001       59.322
     NS sqrt iter    2 1.00000000   0.337E+00       0.001      100.475
     NS sqrt iter    3 1.00000000   0.793E-01       0.001       99.444
     NS sqrt iter    4 1.00000000   0.208E-02       0.001      101.117
     NS sqrt iter    5 1.00000000   0.693E-07       0.001       68.315
     Symmetrizing Results
     Final NS sqrt iter    5 1.00000000   0.701E-09

     Est. extremal eigenvalues     -0.93478     1.66136  converged:  T
     TRS4 it   1 1.00000000   0.865E+00       0.000       16.128   0.100E-07
     TRS4 it   2 1.00000000   0.608E+00       0.001       32.256   0.100E-07
     TRS4 it   3 1.00000000   0.413E+00       0.001       32.256   0.100E-07
     TRS4 it   4 1.00000000   0.209E+00       0.001       32.256   0.100E-07
     TRS4 it   5 1.00000000   0.675E-01       0.001       32.256   0.100E-07
     TRS4 it   6 1.00000000   0.878E-02       0.001       32.256   0.100E-07
     TRS4 it   7 1.00000000   0.199E-03       0.001       32.256   0.100E-07
     TRS4 it   8 1.00000000   0.143E-06       0.001       32.256   0.100E-07
     TRS4 it   9 1.00000000   0.885E-13       0.001       32.256   0.100E-07
     Final TRS4 iteration    9 1.00000000   0.885E-13
     Chemical potential (mu):       0.00890
 
 PAO| energy:  -7.7633294690048187      penalty:   1.4783005258912001E-005
 PAO|CG| trace_G_new    1.1741166174564825E-002
 PAO|CG| trace_G_prev    3.6621552151503936E-002
 PAO|CG| trace_G_mix   -4.5516615016712170E-004
 PAO|CG| trace_D    4.4323341873823523E-002
 PAO|CG| trace_D_Gnew   2.0758293224834275E-004
 PAO|CG| beta:   0.33303701258416163     
 PAO| norm of gradient:  0.10835666188363698     
 PAO| energy improvement:  -5.2344714787313507E-003
 PAO| step     12                   -7.763329469  0.677E-02  0.293E+00     0.057
 PAO|LS| adapt:  T F F
 PAO|LS| adapt: scan_steps:    0.0000000000000000        0.0000000000000000        0.0000000000000000     
 PAO|LS| adapt: energies:   -7.7633294690048187        0.0000000000000000        0.0000000000000000     
 PAO| ======================= Iteration:        13 =============================

     Lanczos converged:  T threshold:   0.100E-02
     Est. extremal eigenvalues:    0.278E+01   0.185E+00
     Est. condition number :    0.150E+02

 Order=           3
     NS sqrt iter    1 1.00000000   0.708E+00       0.001       59.851
     NS sqrt iter    2 1.00000000   0.330E+00       0.001      100.502
     NS sqrt iter    3 1.00000000   0.749E-01       0.001       99.569
     NS sqrt iter    4 1.00000000   0.176E-02       0.001      102.164
     NS sqrt iter    5 1.00000000   0.423E-07       0.001       63.898
     Symmetrizing Results
     Final NS sqrt iter    5 1.00000000   0.347E-09

     Est. extremal eigenvalues     -0.93526     1.65472  converged:  T
     TRS4 it   1 1.00000000   0.864E+00       0.000       16.128   0.100E-07
     TRS4 it   2 1.00000000   0.605E+00       0.001       32.256   0.100E-07
     TRS4 it   3 1.00000000   0.409E+00       0.001       32.256   0.100E-07
     TRS4 it   4 1.00000000   0.204E+00       0.001       32.256   0.100E-07
     TRS4 it   5 1.00000000   0.640E-01       0.001       32.256   0.100E-07
     TRS4 it   6 1.00000000   0.784E-02       0.001       32.256   0.100E-07
     TRS4 it   7 1.00000000   0.157E-03       0.001       32.256   0.100E-07
     TRS4 it   8 1.00000000   0.868E-07       0.001       32.256   0.100E-07
     TRS4 it   9 1.00000000   0.323E-13       0.001       32.256   0.100E-07
     Final TRS4 iteration    9 1.00000000   0.323E-13
     Chemical potential (mu):       0.01328
 
 PAO| energy:  -7.7653878010844100      penalty:   1.5082168218669604E-005
 PAO|LS| adapt:  T T F
 PAO|LS| adapt: scan_steps:    0.0000000000000000       0.29347873816394521        0.0000000000000000     
 PAO|LS| adapt: energies:   -7.7633294690048187       -7.7653878010844100        0.0000000000000000     
 PAO| ======================= Iteration:        14 =============================

     Lanczos converged:  T threshold:   0.100E-02
     Est. extremal eigenvalues:    0.274E+01   0.190E+00
     Est. condition number :    0.144E+02

 Order=           3
     NS sqrt iter    1 1.00000000   0.701E+00       0.001       59.694
     NS sqrt iter    2 1.00000000   0.323E+00       0.001       99.543
     NS sqrt iter    3 1.00000000   0.708E-01       0.001      101.977
     NS sqrt iter    4 1.00000000   0.149E-02       0.001      101.668
     NS sqrt iter    5 1.00000000   0.257E-07       0.001       59.294
     Symmetrizing Results
     Final NS sqrt iter    5 1.00000000   0.327E-08

     Est. extremal eigenvalues     -0.93525     1.64841  converged:  T
     TRS4 it   1 1.00000000   0.863E+00       0.000       16.128   0.100E-07
     TRS4 it   2 1.00000000   0.602E+00       0.001       32.256   0.100E-07
     TRS4 it   3 1.00000000   0.405E+00       0.001       32.256   0.100E-07
     TRS4 it   4 1.00000000   0.199E+00       0.001       32.256   0.100E-07
     TRS4 it   5 1.00000000   0.606E-01       0.001       32.256   0.100E-07
     TRS4 it   6 1.00000000   0.701E-02       0.001       32.256   0.100E-07
     TRS4 it   7 1.00000000   0.124E-03       0.001       32.256   0.100E-07
     TRS4 it   8 1.00000000   0.527E-07       0.001       32.256   0.100E-07
     Final TRS4 iteration    8 1.00000000   0.527E-07
     Chemical potential (mu):       0.01522
 
 PAO| energy:  -7.7647613274222387      penalty:   1.5856872273149644E-005
 PAO|LS| adapt:  T T T
 PAO|LS| adapt: scan_steps:    0.0000000000000000       0.29347873816394521       0.58695747632789042     
 PAO|LS| adapt: energies:   -7.7633294690048187       -7.7653878010844100       -7.7647613274222387     
 PAO|LS| adapt: suggested step_size:   0.37173765929132119     
 PAO|LS| adapt: predicted energy  -7.7654832557804259     
 PAO| ======================= Iteration:        15 =============================

     Lanczos converged:  T threshold:   0.100E-02
     Est. extremal eigenvalues:    0.277E+01   0.187E+00
     Est. condition number :    0.148E+02

 Order=           3
     NS sqrt iter    1 1.00000000   0.706E+00       0.001       59.275
     NS sqrt iter    2 1.00000000   0.328E+00       0.001      100.410
     NS sqrt iter    3 1.00000000   0.738E-01       0.001      100.660
     NS sqrt iter    4 1.00000000   0.168E-02       0.001      100.512
     NS sqrt iter    5 1.00000000   0.371E-07       0.001       63.874
     Symmetrizing Results
     Final NS sqrt iter    5 1.00000000   0.395E-09

     Est. extremal eigenvalues     -0.93531     1.65301  converged:  T
     TRS4 it   1 1.00000000   0.864E+00       0.000       16.128   0.100E-07
     TRS4 it   2 1.00000000   0.604E+00       0.001       32.256   0.100E-07
     TRS4 it   3 1.00000000   0.408E+00       0.001       32.256   0.100E-07
     TRS4 it   4 1.00000000   0.203E+00       0.001       32.256   0.100E-07
     TRS4 it   5 1.00000000   0.631E-01       0.001       32.256   0.100E-07
     TRS4 it   6 1.00000000   0.761E-02       0.001       32.256   0.100E-07
     TRS4 it   7 1.00000000   0.147E-03       0.001       32.256   0.100E-07
     TRS4 it   8 1.00000000   0.760E-07       0.001       32.256   0.100E-07
     Final TRS4 iteration    8 1.00000000   0.760E-07
     Chemical potential (mu):       0.01238
 
 PAO| energy:  -7.7654800605728154      penalty:   1.5239202862224131E-005
 PAO|CG| trace_G_new    2.6011859947096842E-003
 PAO|CG| trace_G_prev    1.1741166174564825E-002
 PAO|CG| trace_G_mix    6.2458690186214689E-005
 PAO|CG| trace_D    1.6518964280358952E-002
 PAO|CG| trace_D_Gnew   3.3448900848058051E-005
 PAO|CG| beta:   0.21622445903399071     
 PAO| norm of gradient:   5.1001823444948358E-002
 PAO| energy improvement:  -2.1505915679966847E-003
 PAO| step     15                   -7.765480061  0.319E-02  0.372E+00     0.056
 PAO|LS| adapt:  T F F
 PAO|LS| adapt: scan_steps:    0.0000000000000000        0.0000000000000000        0.0000000000000000     
 PAO|LS| adapt: energies:   -7.7654800605728154        0.0000000000000000        0.0000000000000000     
 PAO| ======================= Iteration:        16 =============================

     Lanczos converged:  T threshold:   0.100E-02
     Est. extremal eigenvalues:    0.276E+01   0.187E+00
     Est. condition number :    0.147E+02

 Order=           3
     NS sqrt iter    1 1.00000000   0.704E+00       0.001       58.869
     NS sqrt iter    2 1.00000000   0.327E+00       0.001      100.202
     NS sqrt iter    3 1.00000000   0.731E-01       0.001      100.201
     NS sqrt iter    4 1.00000000   0.163E-02       0.001      101.790
     NS sqrt iter    5 1.00000000   0.335E-07       0.001       63.744
     Symmetrizing Results
     Final NS sqrt iter    5 1.00000000   0.444E-09

     Est. extremal eigenvalues     -0.93533     1.65227  converged:  T
     TRS4 it   1 1.00000000   0.864E+00       0.000       16.128   0.100E-07
     TRS4 it   2 1.00000000   0.603E+00       0.001       32.256   0.100E-07
     TRS4 it   3 1.00000000   0.406E+00       0.001       32.256   0.100E-07
     TRS4 it   4 1.00000000   0.201E+00       0.001       32.256   0.100E-07
     TRS4 it   5 1.00000000   0.619E-01       0.001       32.256   0.100E-07
     TRS4 it   6 1.00000000   0.735E-02       0.001       32.256   0.100E-07
     TRS4 it   7 1.00000000   0.138E-03       0.001       32.256   0.100E-07
     TRS4 it   8 1.00000000   0.677E-07       0.001       32.256   0.100E-07
     Final TRS4 iteration    8 1.00000000   0.677E-07
     Chemical potential (mu):       0.01333
 
 PAO| energy:  -7.7656020904624068      penalty:   1.5017270460297952E-005
 PAO|LS| adapt:  T T F
 PAO|LS| adapt: scan_steps:    0.0000000000000000       0.37173765929132119        0.0000000000000000     
 PAO|LS| adapt: energies:   -7.7654800605728154       -7.7656020904624068        0.0000000000000000     
 PAO| ======================= Iteration:        17 =============================

     Lanczos converged:  T threshold:   0.100E-02
     Est. extremal eigenvalues:    0.275E+01   0.188E+00
     Est. condition number :    0.146E+02

 Order=           3
     NS sqrt iter    1 1.00000000   0.702E+00       0.001       59.111
     NS sqrt iter    2 1.00000000   0.325E+00       0.001       99.562
     NS sqrt iter    3 1.00000000   0.724E-01       0.001      100.155
     NS sqrt iter    4 1.00000000   0.158E-02       0.001       99.122
     NS sqrt iter    5 1.00000000   0.304E-07       0.001       63.681
     Symmetrizing Results
     Final NS sqrt iter    5 1.00000000   0.418E-09

     Est. extremal eigenvalues     -0.93524     1.65161  converged:  T
     TRS4 it   1 1.00000000   0.864E+00       0.000       16.128   0.100E-07
     TRS4 it   2 1.00000000   0.602E+00       0.001       32.256   0.100E-07
     TRS4 it   3 1.00000000   0.405E+00       0.001       32.256   0.100E-07
     TRS4 it   4 1.00000000   0.200E+00       0.001       32.256   0.100E-07
     TRS4 it   5 1.00000000   0.608E-01       0.001       32.256   0.100E-07
     TRS4 it   6 1.00000000   0.710E-02       0.001       32.256   0.100E-07
     TRS4 it   7 1.00000000   0.130E-03       0.001       32.256   0.100E-07
     TRS4 it   8 1.00000000   0.603E-07       0.001       32.256   0.100E-07
     Final TRS4 iteration    8 1.00000000   0.603E-07
     Chemical potential (mu):       0.01426
 
 PAO| energy:  -7.7640341564402702      penalty:   1.4921120853215803E-005
 PAO|LS| adapt:  T T T
 PAO|LS| adapt: scan_steps:    0.0000000000000000       0.37173765929132119       0.74347531858264237     
 PAO|LS| adapt: energies:   -7.7654800605728154       -7.7656020904624068       -7.7640341564402702     
 PAO|LS| adapt: suggested step_size:   0.21271147711610813     
 PAO|LS| adapt: predicted energy  -7.7657567268089291     
 PAO| ======================= Iteration:        18 =============================

     Lanczos converged:  T threshold:   0.100E-02
     Est. extremal eigenvalues:    0.276E+01   0.187E+00
     Est. condition number :    0.148E+02

 Order=           3
     NS sqrt iter    1 1.00000000   0.705E+00       0.001       59.052
     NS sqrt iter    2 1.00000000   0.327E+00       0.001      100.234
     NS sqrt iter    3 1.00000000   0.734E-01       0.001       97.271
     NS sqrt iter    4 1.00000000   0.165E-02       0.001       99.993
     NS sqrt iter    5 1.00000000   0.350E-07       0.001       63.013
     Symmetrizing Results
     Final NS sqrt iter    5 1.00000000   0.461E-09

     Est. extremal eigenvalues     -0.93534     1.65257  converged:  T
     TRS4 it   1 1.00000000   0.864E+00       0.000       16.128   0.100E-07
     TRS4 it   2 1.00000000   0.603E+00       0.001       32.256   0.100E-07
     TRS4 it   3 1.00000000   0.407E+00       0.001       32.256   0.100E-07
     TRS4 it   4 1.00000000   0.202E+00       0.001       32.256   0.100E-07
     TRS4 it   5 1.00000000   0.624E-01       0.001       32.256   0.100E-07
     TRS4 it   6 1.00000000   0.746E-02       0.001       32.256   0.100E-07
     TRS4 it   7 1.00000000   0.142E-03       0.001       32.256   0.100E-07
     TRS4 it   8 1.00000000   0.711E-07       0.001       32.256   0.100E-07
     Final TRS4 iteration    8 1.00000000   0.711E-07
     Chemical potential (mu):       0.01292
 
 PAO| energy:  -7.7657562779123515      penalty:   1.5097092787984964E-005
 PAO|CG| trace_G_new    7.2257297586786459E-004
 PAO|CG| trace_G_prev    2.6011859947096842E-003
 PAO|CG| trace_G_mix    1.3773211625611240E-006
 PAO|CG| trace_D    3.3590324663383534E-003
 PAO|CG| trace_D_Gnew  -1.6464181920612464E-006
 PAO|CG| beta:   0.27725647307500412     
 PAO| norm of gradient:   2.6880717547488657E-002
 PAO| energy improvement:  -2.7621733953608896E-004
 PAO| step     18                   -7.765756278  0.168E-02  0.213E+00     0.055
 PAO|LS| adapt:  T F F
 PAO|LS| adapt: scan_steps:    0.0000000000000000        0.0000000000000000        0.0000000000000000     
 PAO|LS| adapt: energies:   -7.7657562779123515        0.0000000000000000        0.0000000000000000     
 PAO| ======================= Iteration:        19 =============================

     Lanczos converged:  T threshold:   0.100E-02
     Est. extremal eigenvalues:    0.276E+01   0.187E+00
     Est. condition number :    0.148E+02

 Order=           3
     NS sqrt iter    1 1.00000000   0.705E+00       0.001       58.756
     NS sqrt iter    2 1.00000000   0.327E+00       0.001       99.627
     NS sqrt iter    3 1.00000000   0.736E-01       0.001      101.062
     NS sqrt iter    4 1.00000000   0.166E-02       0.001      100.785
     NS sqrt iter    5 1.00000000   0.354E-07       0.001       61.205
     Symmetrizing Results
     Final NS sqrt iter    5 1.00000000   0.466E-09

     Est. extremal eigenvalues     -0.93534     1.65291  converged:  T
     TRS4 it   1 1.00000000   0.864E+00       0.000       16.128   0.100E-07
     TRS4 it   2 1.00000000   0.603E+00       0.001       32.256   0.100E-07
     TRS4 it   3 1.00000000   0.407E+00       0.001       32.256   0.100E-07
     TRS4 it   4 1.00000000   0.202E+00       0.001       32.256   0.100E-07
     TRS4 it   5 1.00000000   0.623E-01       0.001       32.256   0.100E-07
     TRS4 it   6 1.00000000   0.746E-02       0.001       32.256   0.100E-07
     TRS4 it   7 1.00000000   0.142E-03       0.001       32.256   0.100E-07
     TRS4 it   8 1.00000000   0.724E-07       0.001       32.256   0.100E-07
     Final TRS4 iteration    8 1.00000000   0.724E-07
     Chemical potential (mu):       0.01278
 
 PAO| energy:  -7.7658734141359247      penalty:   1.4807441111493282E-005
 PAO|LS| adapt:  T T F
 PAO|LS| adapt: scan_steps:    0.0000000000000000       0.21271147711610813        0.0000000000000000     
 PAO|LS| adapt: energies:   -7.7657562779123515       -7.7658734141359247        0.0000000000000000     
 PAO| ======================= Iteration:        20 =============================

     Lanczos converged:  T threshold:   0.100E-02
     Est. extremal eigenvalues:    0.276E+01   0.187E+00
     Est. condition number :    0.148E+02

 Order=           3
     NS sqrt iter    1 1.00000000   0.705E+00       0.001       58.997
     NS sqrt iter    2 1.00000000   0.328E+00       0.001      100.421
     NS sqrt iter    3 1.00000000   0.738E-01       0.001      101.055
     NS sqrt iter    4 1.00000000   0.167E-02       0.001       99.544
     NS sqrt iter    5 1.00000000   0.359E-07       0.001       63.127
     Symmetrizing Results
     Final NS sqrt iter    5 1.00000000   0.402E-09

     Est. extremal eigenvalues     -0.93534     1.65326  converged:  T
     TRS4 it   1 1.00000000   0.864E+00       0.000       16.128   0.100E-07
     TRS4 it   2 1.00000000   0.603E+00       0.001       32.256   0.100E-07
     TRS4 it   3 1.00000000   0.407E+00       0.001       32.256   0.100E-07
     TRS4 it   4 1.00000000   0.202E+00       0.001       32.256   0.100E-07
     TRS4 it   5 1.00000000   0.623E-01       0.001       32.256   0.100E-07
     TRS4 it   6 1.00000000   0.745E-02       0.001       32.256   0.100E-07
     TRS4 it   7 1.00000000   0.143E-03       0.001       32.256   0.100E-07
     TRS4 it   8 1.00000000   0.736E-07       0.001       32.256   0.100E-07
     Final TRS4 iteration    8 1.00000000   0.736E-07
     Chemical potential (mu):       0.01262
 
 PAO| energy:  -7.7659168411538415      penalty:   1.4530185219214787E-005
 PAO|LS| adapt:  T T F
 PAO|LS| adapt: scan_steps:    0.0000000000000000       0.42542295423221627        0.0000000000000000     
 PAO|LS| adapt: energies:   -7.7657562779123515       -7.7659168411538415        0.0000000000000000     
 PAO| ======================= Iteration:        21 =============================

     Lanczos converged:  T threshold:   0.100E-02
     Est. extremal eigenvalues:    0.276E+01   0.186E+00
     Est. condition number :    0.148E+02

 Order=           3
     NS sqrt iter    1 1.00000000   0.705E+00       0.001       59.246
     NS sqrt iter    2 1.00000000   0.328E+00       0.001       99.203
     NS sqrt iter    3 1.00000000   0.742E-01       0.001       99.728
     NS sqrt iter    4 1.00000000   0.169E-02       0.001       99.412
     NS sqrt iter    5 1.00000000   0.368E-07       0.001       63.415
     Symmetrizing Results
     Final NS sqrt iter    5 1.00000000   0.348E-09

     Est. extremal eigenvalues     -0.93533     1.65396  converged:  T
     TRS4 it   1 1.00000000   0.864E+00       0.000       16.128   0.100E-07
     TRS4 it   2 1.00000000   0.603E+00       0.001       32.256   0.100E-07
     TRS4 it   3 1.00000000   0.407E+00       0.001       32.256   0.100E-07
     TRS4 it   4 1.00000000   0.201E+00       0.001       32.256   0.100E-07
     TRS4 it   5 1.00000000   0.621E-01       0.001       32.256   0.100E-07
     TRS4 it   6 1.00000000   0.745E-02       0.001       32.256   0.100E-07
     TRS4 it   7 1.00000000   0.144E-03       0.001       32.256   0.100E-07
     TRS4 it   8 1.00000000   0.763E-07       0.001       32.256   0.100E-07
     Final TRS4 iteration    8 1.00000000   0.763E-07
     Chemical potential (mu):       0.01230
 
 PAO| energy:  -7.7657802061157986      penalty:   1.4012283269200347E-005
 PAO|LS| Need extra step
 PAO|LS| adapt:  T T T
 PAO|LS| adapt: scan_steps:    0.0000000000000000       0.42542295423221627       0.85084590846443253     
 PAO|LS| adapt: energies:   -7.7657562779123515       -7.7659168411538415       -7.7657802061157986     
 PAO|LS| adapt: suggested step_size:   0.44254890633383964     
 PAO|LS| adapt: predicted energy  -7.7659170819690484     
 PAO| ======================= Iteration:        22 =============================

     Lanczos converged:  T threshold:   0.100E-02
     Est. extremal eigenvalues:    0.276E+01   0.187E+00
     Est. condition number :    0.148E+02

 Order=           3
     NS sqrt iter    1 1.00000000   0.705E+00       0.001       60.378
     NS sqrt iter    2 1.00000000   0.328E+00       0.001      100.049
     NS sqrt iter    3 1.00000000   0.738E-01       0.001      100.227
     NS sqrt iter    4 1.00000000   0.167E-02       0.001      100.323
     NS sqrt iter    5 1.00000000   0.359E-07       0.001       63.183
     Symmetrizing Results
     Final NS sqrt iter    5 1.00000000   0.403E-09

     Est. extremal eigenvalues     -0.93534     1.65329  converged:  T
     TRS4 it   1 1.00000000   0.864E+00       0.000       16.128   0.100E-07
     TRS4 it   2 1.00000000   0.603E+00       0.001       32.256   0.100E-07
     TRS4 it   3 1.00000000   0.407E+00       0.001       32.256   0.100E-07
     TRS4 it   4 1.00000000   0.202E+00       0.001       32.256   0.100E-07
     TRS4 it   5 1.00000000   0.622E-01       0.001       32.256   0.100E-07
     TRS4 it   6 1.00000000   0.745E-02       0.001       32.256   0.100E-07
     TRS4 it   7 1.00000000   0.143E-03       0.001       32.256   0.100E-07
     TRS4 it   8 1.00000000   0.737E-07       0.001       32.256   0.100E-07
     Final TRS4 iteration    8 1.00000000   0.737E-07
     Chemical potential (mu):       0.01261
 
 PAO| energy:  -7.7659171136317173      penalty:   1.4508396487014516E-005
 PAO|CG| trace_G_new    2.1846758157647705E-004
 PAO|CG| trace_G_prev    7.2257297586786459E-004
 PAO|CG| trace_G_mix    3.0090429575756201E-006
 PAO|CG| trace_D    9.8169863089939157E-004
 PAO|CG| trace_D_Gnew  -1.8518164541277982E-006
 PAO|CG| beta:   0.29818239238759170     
 PAO| norm of gradient:   1.4780648888884312E-002
 PAO| energy improvement:  -1.6083571936587049E-004
 PAO| step     22                   -7.765917114  0.924E-03  0.443E+00     0.072
 PAO|LS| adapt:  T F F
 PAO|LS| adapt: scan_steps:    0.0000000000000000        0.0000000000000000        0.0000000000000000     
 PAO|LS| adapt: energies:   -7.7659171136317173        0.0000000000000000        0.0000000000000000     
 PAO| ======================= Iteration:        23 =============================

     Lanczos converged:  T threshold:   0.100E-02
     Est. extremal eigenvalues:    0.276E+01   0.187E+00
     Est. condition number :    0.148E+02

 Order=           3
     NS sqrt iter    1 1.00000000   0.705E+00       0.001       61.252
     NS sqrt iter    2 1.00000000   0.328E+00       0.001       99.041
     NS sqrt iter    3 1.00000000   0.739E-01       0.001      100.615
     NS sqrt iter    4 1.00000000   0.167E-02       0.001      100.798
     NS sqrt iter    5 1.00000000   0.360E-07       0.001       62.681
     Symmetrizing Results
     Final NS sqrt iter    5 1.00000000   0.406E-09

     Est. extremal eigenvalues     -0.93534     1.65346  converged:  T
     TRS4 it   1 1.00000000   0.864E+00       0.000       16.128   0.100E-07
     TRS4 it   2 1.00000000   0.604E+00       0.001       32.256   0.100E-07
     TRS4 it   3 1.00000000   0.407E+00       0.001       32.256   0.100E-07
     TRS4 it   4 1.00000000   0.202E+00       0.001       32.256   0.100E-07
     TRS4 it   5 1.00000000   0.624E-01       0.001       32.256   0.100E-07
     TRS4 it   6 1.00000000   0.750E-02       0.001       32.256   0.100E-07
     TRS4 it   7 1.00000000   0.145E-03       0.001       32.256   0.100E-07
     TRS4 it   8 1.00000000   0.760E-07       0.001       32.256   0.100E-07
     Final TRS4 iteration    8 1.00000000   0.760E-07
     Chemical potential (mu):       0.01233
 
 PAO| energy:  -7.7659655185958485      penalty:   1.3831077259519065E-005
 PAO|LS| adapt:  T T F
 PAO|LS| adapt: scan_steps:    0.0000000000000000       0.44254890633383964        0.0000000000000000     
 PAO|LS| adapt: energies:   -7.7659171136317173       -7.7659655185958485        0.0000000000000000     
 PAO| ======================= Iteration:        24 =============================

     Lanczos converged:  T threshold:   0.100E-02
     Est. extremal eigenvalues:    0.276E+01   0.187E+00
     Est. condition number :    0.148E+02

 Order=           3
     NS sqrt iter    1 1.00000000   0.705E+00       0.001       59.559
     NS sqrt iter    2 1.00000000   0.328E+00       0.001      102.599
     NS sqrt iter    3 1.00000000   0.739E-01       0.001       99.489
     NS sqrt iter    4 1.00000000   0.167E-02       0.001      100.715
     NS sqrt iter    5 1.00000000   0.362E-07       0.001       62.126
     Symmetrizing Results
     Final NS sqrt iter    5 1.00000000   0.410E-09

     Est. extremal eigenvalues     -0.93533     1.65363  converged:  T
     TRS4 it   1 1.00000000   0.864E+00       0.000       16.128   0.100E-07
     TRS4 it   2 1.00000000   0.604E+00       0.001       32.256   0.100E-07
     TRS4 it   3 1.00000000   0.407E+00       0.001       32.256   0.100E-07
     TRS4 it   4 1.00000000   0.202E+00       0.001       32.256   0.100E-07
     TRS4 it   5 1.00000000   0.625E-01       0.001       32.256   0.100E-07
     TRS4 it   6 1.00000000   0.754E-02       0.001       32.256   0.100E-07
     TRS4 it   7 1.00000000   0.147E-03       0.001       32.256   0.100E-07
     TRS4 it   8 1.00000000   0.784E-07       0.001       32.256   0.100E-07
     Final TRS4 iteration    8 1.00000000   0.784E-07
     Chemical potential (mu):       0.01205
 
 PAO| energy:  -7.7659162745051278      penalty:   1.3181494156877479E-005
 PAO|LS| adapt:  T T T
 PAO|LS| adapt: scan_steps:    0.0000000000000000       0.44254890633383964       0.88509781266767928     
 PAO|LS| adapt: energies:   -7.7659171136317173       -7.7659655185958485       -7.7659162745051278     
 PAO|LS| adapt: suggested step_size:   0.44064743091739600     
 PAO|LS| adapt: predicted energy  -7.7659655194972066     
 PAO| ======================= Iteration:        25 =============================

     Lanczos converged:  T threshold:   0.100E-02
     Est. extremal eigenvalues:    0.276E+01   0.187E+00
     Est. condition number :    0.148E+02

 Order=           3
     NS sqrt iter    1 1.00000000   0.705E+00       0.001       59.102
     NS sqrt iter    2 1.00000000   0.328E+00       0.001      101.807
     NS sqrt iter    3 1.00000000   0.739E-01       0.001      101.922
     NS sqrt iter    4 1.00000000   0.167E-02       0.001      100.240
     NS sqrt iter    5 1.00000000   0.360E-07       0.001       63.428
     Symmetrizing Results
     Final NS sqrt iter    5 1.00000000   0.406E-09

     Est. extremal eigenvalues     -0.93534     1.65346  converged:  T
     TRS4 it   1 1.00000000   0.864E+00       0.000       16.128   0.100E-07
     TRS4 it   2 1.00000000   0.604E+00       0.001       32.256   0.100E-07
     TRS4 it   3 1.00000000   0.407E+00       0.001       32.256   0.100E-07
     TRS4 it   4 1.00000000   0.202E+00       0.001       32.256   0.100E-07
     TRS4 it   5 1.00000000   0.624E-01       0.001       32.256   0.100E-07
     TRS4 it   6 1.00000000   0.750E-02       0.001       32.256   0.100E-07
     TRS4 it   7 1.00000000   0.145E-03       0.001       32.256   0.100E-07
     TRS4 it   8 1.00000000   0.760E-07       0.001       32.256   0.100E-07
     Final TRS4 iteration    8 1.00000000   0.760E-07
     Chemical potential (mu):       0.01233
 
 PAO| energy:  -7.7659655188404786      penalty:   1.3833927707671962E-005
 PAO|CG| trace_G_new    7.6925820489772383E-005
 PAO|CG| trace_G_prev    2.1846758157647705E-004
 PAO|CG| trace_G_mix    6.6711648085973759E-007
 PAO|CG| trace_D    3.0685745397100982E-004
 PAO|CG| trace_D_Gnew  -3.5273225631169980E-007
 PAO|CG| beta:   0.34906187663462290     
 PAO| norm of gradient:   8.7707365990418607E-003
 PAO| energy improvement:  -4.8405208761259644E-005
 PAO| step     25                   -7.765965519  0.548E-03  0.441E+00     0.055
 PAO|LS| adapt:  T F F
 PAO|LS| adapt: scan_steps:    0.0000000000000000        0.0000000000000000        0.0000000000000000     
 PAO|LS| adapt: energies:   -7.7659655188404786        0.0000000000000000        0.0000000000000000     
 PAO| ======================= Iteration:        26 =============================

     Lanczos converged:  T threshold:   0.100E-02
     Est. extremal eigenvalues:    0.276E+01   0.187E+00
     Est. condition number :    0.148E+02

 Order=           3
     NS sqrt iter    1 1.00000000   0.704E+00       0.001       59.121
     NS sqrt iter    2 1.00000000   0.328E+00       0.001       99.186
     NS sqrt iter    3 1.00000000   0.738E-01       0.001      103.707
     NS sqrt iter    4 1.00000000   0.167E-02       0.001      100.705
     NS sqrt iter    5 1.00000000   0.358E-07       0.001       63.041
     Symmetrizing Results
     Final NS sqrt iter    5 1.00000000   0.403E-09

     Est. extremal eigenvalues     -0.93534     1.65341  converged:  T
     TRS4 it   1 1.00000000   0.864E+00       0.000       16.128   0.100E-07
     TRS4 it   2 1.00000000   0.604E+00       0.001       32.256   0.100E-07
     TRS4 it   3 1.00000000   0.407E+00       0.001       32.256   0.100E-07
     TRS4 it   4 1.00000000   0.202E+00       0.001       32.256   0.100E-07
     TRS4 it   5 1.00000000   0.623E-01       0.001       32.256   0.100E-07
     TRS4 it   6 1.00000000   0.749E-02       0.001       32.256   0.100E-07
     TRS4 it   7 1.00000000   0.145E-03       0.001       32.256   0.100E-07
     TRS4 it   8 1.00000000   0.754E-07       0.001       32.256   0.100E-07
     Final TRS4 iteration    8 1.00000000   0.754E-07
     Chemical potential (mu):       0.01241
 
 PAO| energy:  -7.7659688048036566      penalty:   1.3117881295043021E-005
 PAO|LS| adapt:  T T F
 PAO|LS| adapt: scan_steps:    0.0000000000000000       0.44064743091739600        0.0000000000000000     
 PAO|LS| adapt: energies:   -7.7659655188404786       -7.7659688048036566        0.0000000000000000     
 PAO| ======================= Iteration:        27 =============================

     Lanczos converged:  T threshold:   0.100E-02
     Est. extremal eigenvalues:    0.276E+01   0.187E+00
     Est. condition number :    0.148E+02

 Order=           3
     NS sqrt iter    1 1.00000000   0.704E+00       0.001       59.574
     NS sqrt iter    2 1.00000000   0.327E+00       0.001       99.745
     NS sqrt iter    3 1.00000000   0.737E-01       0.001      101.335
     NS sqrt iter    4 1.00000000   0.166E-02       0.001      103.118
     NS sqrt iter    5 1.00000000   0.355E-07       0.001       63.199
     Symmetrizing Results
     Final NS sqrt iter    5 1.00000000   0.401E-09

     Est. extremal eigenvalues     -0.93534     1.65337  converged:  T
     TRS4 it   1 1.00000000   0.864E+00       0.000       16.128   0.100E-07
     TRS4 it   2 1.00000000   0.604E+00       0.001       32.256   0.100E-07
     TRS4 it   3 1.00000000   0.407E+00       0.001       32.256   0.100E-07
     TRS4 it   4 1.00000000   0.202E+00       0.001       32.256   0.100E-07
     TRS4 it   5 1.00000000   0.623E-01       0.001       32.256   0.100E-07
     TRS4 it   6 1.00000000   0.748E-02       0.001       32.256   0.100E-07
     TRS4 it   7 1.00000000   0.144E-03       0.001       32.256   0.100E-07
     TRS4 it   8 1.00000000   0.747E-07       0.001       32.256   0.100E-07
     Final TRS4 iteration    8 1.00000000   0.747E-07
     Chemical potential (mu):       0.01249
 
 PAO| energy:  -7.7659106577645467      penalty:   1.2424884523274781E-005
 PAO|LS| adapt:  T T T
 PAO|LS| adapt: scan_steps:    0.0000000000000000       0.44064743091739600       0.88129486183479200     
 PAO|LS| adapt: energies:   -7.7659655188404786       -7.7659688048036566       -7.7659106577645467     
 PAO|LS| adapt: suggested step_size:   0.24389331451052290     
 PAO|LS| adapt: predicted energy  -7.7659749288280828     
 PAO| ======================= Iteration:        28 =============================

     Lanczos converged:  T threshold:   0.100E-02
     Est. extremal eigenvalues:    0.276E+01   0.187E+00
     Est. condition number :    0.148E+02

 Order=           3
     NS sqrt iter    1 1.00000000   0.704E+00       0.001       58.520
     NS sqrt iter    2 1.00000000   0.328E+00       0.001      100.864
     NS sqrt iter    3 1.00000000   0.738E-01       0.001      100.446
     NS sqrt iter    4 1.00000000   0.167E-02       0.001      102.745
     NS sqrt iter    5 1.00000000   0.359E-07       0.001       63.689
     Symmetrizing Results
     Final NS sqrt iter    5 1.00000000   0.405E-09

     Est. extremal eigenvalues     -0.93534     1.65343  converged:  T
     TRS4 it   1 1.00000000   0.864E+00       0.000       16.128   0.100E-07
     TRS4 it   2 1.00000000   0.604E+00       0.001       32.256   0.100E-07
     TRS4 it   3 1.00000000   0.407E+00       0.001       32.256   0.100E-07
     TRS4 it   4 1.00000000   0.202E+00       0.001       32.256   0.100E-07
     TRS4 it   5 1.00000000   0.624E-01       0.001       32.256   0.100E-07
     TRS4 it   6 1.00000000   0.749E-02       0.001       32.256   0.100E-07
     TRS4 it   7 1.00000000   0.145E-03       0.001       32.256   0.100E-07
     TRS4 it   8 1.00000000   0.757E-07       0.001       32.256   0.100E-07
     Final TRS4 iteration    8 1.00000000   0.757E-07
     Chemical potential (mu):       0.01238
 
 PAO| energy:  -7.7659749198945720      penalty:   1.3434738064571293E-005
 PAO|CG| trace_G_new    2.8824397786457264E-005
 PAO|CG| trace_G_prev    7.6925820489772383E-005
 PAO|CG| trace_G_mix    3.7429046296001135E-008
 PAO|CG| trace_D    1.1456087032242080E-004
 PAO|CG| trace_D_Gnew  -2.0786478635058874E-008
 PAO|CG| beta:   0.37421724665242423     
 PAO| norm of gradient:   5.3688357943279721E-003
 PAO| energy improvement:  -9.4010540934164055E-006
 PAO| step     28                   -7.765974920  0.336E-03  0.244E+00     0.055
 PAO|LS| adapt:  T F F
 PAO|LS| adapt: scan_steps:    0.0000000000000000        0.0000000000000000        0.0000000000000000     
 PAO|LS| adapt: energies:   -7.7659749198945720        0.0000000000000000        0.0000000000000000     
 PAO| ======================= Iteration:        29 =============================

     Lanczos converged:  T threshold:   0.100E-02
     Est. extremal eigenvalues:    0.276E+01   0.187E+00
     Est. condition number :    0.148E+02

 Order=           3
     NS sqrt iter    1 1.00000000   0.704E+00       0.001       59.781
     NS sqrt iter    2 1.00000000   0.328E+00       0.001       99.365
     NS sqrt iter    3 1.00000000   0.737E-01       0.001      100.317
     NS sqrt iter    4 1.00000000   0.167E-02       0.001      100.908
     NS sqrt iter    5 1.00000000   0.358E-07       0.001       64.920
     Symmetrizing Results
     Final NS sqrt iter    5 1.00000000   0.403E-09

     Est. extremal eigenvalues     -0.93534     1.65343  converged:  T
     TRS4 it   1 1.00000000   0.864E+00       0.000       16.128   0.100E-07
     TRS4 it   2 1.00000000   0.604E+00       0.001       32.256   0.100E-07
     TRS4 it   3 1.00000000   0.407E+00       0.001       32.256   0.100E-07
     TRS4 it   4 1.00000000   0.202E+00       0.001       32.256   0.100E-07
     TRS4 it   5 1.00000000   0.623E-01       0.001       32.256   0.100E-07
     TRS4 it   6 1.00000000   0.747E-02       0.001       32.256   0.100E-07
     TRS4 it   7 1.00000000   0.144E-03       0.001       32.256   0.100E-07
     TRS4 it   8 1.00000000   0.748E-07       0.001       32.256   0.100E-07
     Final TRS4 iteration    8 1.00000000   0.748E-07
     Chemical potential (mu):       0.01247
 
 PAO| energy:  -7.7659811334498539      penalty:   1.3023128727351656E-005
 PAO|LS| adapt:  T T F
 PAO|LS| adapt: scan_steps:    0.0000000000000000       0.24389331451052290        0.0000000000000000     
 PAO|LS| adapt: energies:   -7.7659749198945720       -7.7659811334498539        0.0000000000000000     
 PAO| ======================= Iteration:        30 =============================

     Lanczos converged:  T threshold:   0.100E-02
     Est. extremal eigenvalues:    0.276E+01   0.187E+00
     Est. condition number :    0.148E+02

 Order=           3
     NS sqrt iter    1 1.00000000   0.704E+00       0.001       59.319
     NS sqrt iter    2 1.00000000   0.327E+00       0.001      100.177
     NS sqrt iter    3 1.00000000   0.737E-01       0.001       99.672
     NS sqrt iter    4 1.00000000   0.166E-02       0.001      100.795
     NS sqrt iter    5 1.00000000   0.357E-07       0.001       63.754
     Symmetrizing Results
     Final NS sqrt iter    5 1.00000000   0.402E-09

     Est. extremal eigenvalues     -0.93534     1.65343  converged:  T
     TRS4 it   1 1.00000000   0.865E+00       0.000       16.128   0.100E-07
     TRS4 it   2 1.00000000   0.604E+00       0.001       32.256   0.100E-07
     TRS4 it   3 1.00000000   0.407E+00       0.001       32.256   0.100E-07
     TRS4 it   4 1.00000000   0.202E+00       0.001       32.256   0.100E-07
     TRS4 it   5 1.00000000   0.622E-01       0.001       32.256   0.100E-07
     TRS4 it   6 1.00000000   0.746E-02       0.001       32.256   0.100E-07
     TRS4 it   7 1.00000000   0.143E-03       0.001       32.256   0.100E-07
     TRS4 it   8 1.00000000   0.740E-07       0.001       32.256   0.100E-07
     Final TRS4 iteration    8 1.00000000   0.740E-07
     Chemical potential (mu):       0.01257
 
 PAO| energy:  -7.7659857078864096      penalty:   1.2618603331432526E-005
 PAO|LS| adapt:  T T F
 PAO|LS| adapt: scan_steps:    0.0000000000000000       0.48778662902104580        0.0000000000000000     
 PAO|LS| adapt: energies:   -7.7659749198945720       -7.7659857078864096        0.0000000000000000     
 PAO| ======================= Iteration:        31 =============================

     Lanczos converged:  T threshold:   0.100E-02
     Est. extremal eigenvalues:    0.276E+01   0.187E+00
     Est. condition number :    0.148E+02

 Order=           3
     NS sqrt iter    1 1.00000000   0.704E+00       0.001       59.646
     NS sqrt iter    2 1.00000000   0.327E+00       0.001      100.033
     NS sqrt iter    3 1.00000000   0.736E-01       0.001      101.099
     NS sqrt iter    4 1.00000000   0.166E-02       0.001      100.396
     NS sqrt iter    5 1.00000000   0.355E-07       0.001       62.879
     Symmetrizing Results
     Final NS sqrt iter    5 1.00000000   0.383E-09

     Est. extremal eigenvalues     -0.93534     1.65341  converged:  T
     TRS4 it   1 1.00000000   0.865E+00       0.000       16.128   0.100E-07
     TRS4 it   2 1.00000000   0.603E+00       0.001       32.256   0.100E-07
     TRS4 it   3 1.00000000   0.407E+00       0.001       32.256   0.100E-07
     TRS4 it   4 1.00000000   0.201E+00       0.001       32.256   0.100E-07
     TRS4 it   5 1.00000000   0.621E-01       0.001       32.256   0.100E-07
     TRS4 it   6 1.00000000   0.742E-02       0.001       32.256   0.100E-07
     TRS4 it   7 1.00000000   0.142E-03       0.001       32.256   0.100E-07
     TRS4 it   8 1.00000000   0.724E-07       0.001       32.256   0.100E-07
     Final TRS4 iteration    8 1.00000000   0.724E-07
     Chemical potential (mu):       0.01277
 
 PAO| energy:  -7.7659899393162748      penalty:   1.1830676783804324E-005
 PAO|LS| Need extra step
 PAO|LS| adapt:  T T F
 PAO|LS| adapt: scan_steps:    0.0000000000000000       0.97557325804209161        0.0000000000000000     
 PAO|LS| adapt: energies:   -7.7659749198945720       -7.7659899393162748        0.0000000000000000     
 PAO| ======================= Iteration:        32 =============================

     Lanczos converged:  T threshold:   0.100E-02
     Est. extremal eigenvalues:    0.276E+01   0.187E+00
     Est. condition number :    0.148E+02

 Order=           3
     NS sqrt iter    1 1.00000000   0.703E+00       0.001       59.556
     NS sqrt iter    2 1.00000000   0.327E+00       0.001       99.389
     NS sqrt iter    3 1.00000000   0.733E-01       0.001      100.767
     NS sqrt iter    4 1.00000000   0.165E-02       0.001      100.224
     NS sqrt iter    5 1.00000000   0.351E-07       0.001       62.525
     Symmetrizing Results
     Final NS sqrt iter    5 1.00000000   0.391E-09

     Est. extremal eigenvalues     -0.93535     1.65339  converged:  T
     TRS4 it   1 1.00000000   0.865E+00       0.000       16.128   0.100E-07
     TRS4 it   2 1.00000000   0.603E+00       0.001       32.256   0.100E-07
     TRS4 it   3 1.00000000   0.406E+00       0.001       32.256   0.100E-07
     TRS4 it   4 1.00000000   0.201E+00       0.001       32.256   0.100E-07
     TRS4 it   5 1.00000000   0.618E-01       0.001       32.256   0.100E-07
     TRS4 it   6 1.00000000   0.736E-02       0.001       32.256   0.100E-07
     TRS4 it   7 1.00000000   0.139E-03       0.001       32.256   0.100E-07
     TRS4 it   8 1.00000000   0.692E-07       0.001       32.256   0.100E-07
     Final TRS4 iteration    8 1.00000000   0.692E-07
     Chemical potential (mu):       0.01316
 
 PAO| energy:  -7.7659787282060488      penalty:   1.0338434659607191E-005
 PAO|LS| Need extra step
 PAO|LS| adapt:  T T T
[...]
     Symmetrizing Results
     Final NS sqrt iter    5 1.00000000   0.353E-09

     Est. extremal eigenvalues     -0.93506     1.63661  converged:  T
     TRS4 it   1 1.00000000   0.886E+00       0.000       16.128   0.100E-07
     TRS4 it   2 1.00000000   0.634E+00       0.000       32.256   0.100E-07
     TRS4 it   3 1.00000000   0.455E+00       0.000       32.256   0.100E-07
     TRS4 it   4 1.00000000   0.278E+00       0.000       32.256   0.100E-07
     TRS4 it   5 1.00000000   0.137E+00       0.000       32.256   0.100E-07
     TRS4 it   6 1.00000000   0.428E-01       0.000       32.256   0.100E-07
     TRS4 it   7 1.00000000   0.574E-02       0.000       32.256   0.100E-07
     TRS4 it   8 1.00000000   0.140E-03       0.000       32.256   0.100E-07
     TRS4 it   9 1.00000000   0.876E-07       0.000       32.256   0.100E-07
     TRS4 it  10 1.00000000   0.347E-13       0.000       32.256   0.100E-07
     Final TRS4 iteration   10 1.00000000   0.347E-13
     Chemical potential (mu):      -0.07157
 
 PAO| energy:  -7.7655225965668802      penalty:   2.8971131179830902E-008
 PAO|CG| warming up with steepest descent
 PAO|CG| beta:    0.0000000000000000     
 PAO| norm of gradient:   1.3221348458781421E-004
 PAO| energy improvement:  -5.3579540804093995E-009
 PAO| step    411                   -7.765522597  0.826E-05  0.252E+00     0.052
 PAO| converged after          411  steps :-)
 PAO| Recalculating energy after mixing.

     Lanczos converged:  T threshold:   0.100E-02
     Est. extremal eigenvalues:    0.250E+01   0.191E+00
     Est. condition number :    0.131E+02

 Order=           3
     NS sqrt iter    1 1.00000000   0.632E+00       0.001       64.512
     NS sqrt iter    2 1.00000000   0.274E+00       0.001      110.592
     NS sqrt iter    3 1.00000000   0.485E-01       0.001      110.592
     NS sqrt iter    4 1.00000000   0.766E-03       0.001      110.592
     NS sqrt iter    5 1.00000000   0.596E-08       0.001       38.272
     Symmetrizing Results
     Final NS sqrt iter    5 1.00000000   0.353E-09

     Est. extremal eigenvalues     -0.93506     1.63661  converged:  T
     TRS4 it   1 1.00000000   0.886E+00       0.000       16.128   0.100E-07
     TRS4 it   2 1.00000000   0.634E+00       0.000       32.256   0.100E-07
     TRS4 it   3 1.00000000   0.455E+00       0.000       32.256   0.100E-07
     TRS4 it   4 1.00000000   0.278E+00       0.000       32.256   0.100E-07
     TRS4 it   5 1.00000000   0.137E+00       0.000       32.256   0.100E-07
     TRS4 it   6 1.00000000   0.428E-01       0.000       32.256   0.100E-07
     TRS4 it   7 1.00000000   0.574E-02       0.000       32.256   0.100E-07
     TRS4 it   8 1.00000000   0.140E-03       0.000       32.256   0.100E-07
     TRS4 it   9 1.00000000   0.876E-07       0.000       32.256   0.100E-07
     TRS4 it  10 1.00000000   0.351E-13       0.000       32.256   0.100E-07
     Final TRS4 iteration   10 1.00000000   0.351E-13
     Chemical potential (mu):      -0.07157
 
 PAO| energy:  -7.7655225952273819      penalty:   2.9267068781039742E-008
 PAO| Writing restart file.
     Est. extremal eigenvalues     -0.93506     1.63661  converged:  T
     TRS4 it   1 1.00000000   0.886E+00       0.000       16.128   0.100E-07
     TRS4 it   2 1.00000000   0.634E+00       0.000       32.256   0.100E-07
     TRS4 it   3 1.00000000   0.455E+00       0.000       32.256   0.100E-07
     TRS4 it   4 1.00000000   0.278E+00       0.000       32.256   0.100E-07
     TRS4 it   5 1.00000000   0.137E+00       0.000       32.256   0.100E-07
     TRS4 it   6 1.00000000   0.428E-01       0.000       32.256   0.100E-07
     TRS4 it   7 1.00000000   0.574E-02       0.000       32.256   0.100E-07
     TRS4 it   8 1.00000000   0.140E-03       0.000       32.256   0.100E-07
     TRS4 it   9 1.00000000   0.876E-07       0.000       32.256   0.100E-07
     TRS4 it  10 1.00000000   0.351E-13       0.000       32.256   0.100E-07
     Final TRS4 iteration   10 1.00000000   0.351E-13
     Chemical potential (mu):      -0.07157

 SCF     1       -34.449803691       -34.449803691    1.885958

*********************************************************
 Using MIXING_FRACTION=0.450 to mix KS matrix:  iscf=  2
 KS_nw=0.450*KS + 0.550*KS_old
*********************************************************
     Est. extremal eigenvalues     -0.93507     1.63662  converged:  T
     TRS4 it   1 1.00000000   0.886E+00       0.000       16.128   0.100E-07
     TRS4 it   2 1.00000000   0.634E+00       0.001       32.256   0.100E-07
     TRS4 it   3 1.00000000   0.455E+00       0.000       32.256   0.100E-07
     TRS4 it   4 1.00000000   0.278E+00       0.000       32.256   0.100E-07
     TRS4 it   5 1.00000000   0.137E+00       0.000       32.256   0.100E-07
     TRS4 it   6 1.00000000   0.428E-01       0.000       32.256   0.100E-07
     TRS4 it   7 1.00000000   0.574E-02       0.000       32.256   0.100E-07
     TRS4 it   8 1.00000000   0.140E-03       0.000       32.256   0.100E-07
     TRS4 it   9 1.00000000   0.877E-07       0.000       32.256   0.100E-07
     TRS4 it  10 1.00000000   0.349E-13       0.000       32.256   0.100E-07
     Final TRS4 iteration   10 1.00000000   0.349E-13
     Chemical potential (mu):      -0.07157

 SCF     2       -34.449803691        -0.000000000    1.320895


 SCF run converged in     2 steps.

 PAO| Storing density matrix for ASPC guess in slot:           1

 ENERGY| Total FORCE_EVAL ( QS ) energy [a.u.]:              -34.449803690792798

 -------------------------------------------------------------------------------
 -                                                                             -
 -                                DBCSR STATISTICS                             -
 -                                                                             -
 -------------------------------------------------------------------------------
 COUNTER                                    TOTAL       BLAS       SMM       ACC
 flops     5 x     5 x     4                20000       0.0%    100.0%      0.0%
 flops    13 x     5 x     4                20800       0.0%    100.0%      0.0%
 flops     5 x    13 x     4                20800       0.0%    100.0%      0.0%
 flops    13 x    13 x     4                40560       0.0%    100.0%      0.0%
 flops     4 x     4 x     5              3229440       0.0%    100.0%      0.0%
 flops     5 x     4 x     5              3939200       0.0%    100.0%      0.0%
 flops     4 x     4 x    13              4198272       0.0%    100.0%      0.0%
 flops    13 x     4 x     5              5120960       0.0%    100.0%      0.0%
 flops     5 x     4 x    13              5120960       0.0%    100.0%      0.0%
 flops     5 x     4 x     4              6401600       0.0%    100.0%      0.0%
 flops    13 x     4 x    13              6657248       0.0%    100.0%      0.0%
 flops    13 x     4 x     4              8577088       0.0%    100.0%      0.0%
 flops     4 x     4 x     4            414036224       0.0%    100.0%      0.0%
 flops inhomo. stacks                           0       0.0%      0.0%      0.0%
 flops total                       457.383152E+06       0.0%    100.0%      0.0%
 flops max/rank                    457.383152E+06       0.0%    100.0%      0.0%
 matmuls inhomo. stacks                         0       0.0%      0.0%      0.0%
 matmuls total                            3370088       0.0%    100.0%      0.0%
 number of processed stacks                 26879       0.0%    100.0%      0.0%
 average stack size                                     0.0     125.4       0.0
 marketing flops                   743.469504E+06
 -------------------------------------------------------------------------------
 # multiplications                          22435
 max memory usage/rank             506.474496E+06
 # max total images/rank                        1
 # max 3D layers                                1
 # MPI messages exchanged                       0
 -------------------------------------------------------------------------------

 -------------------------------------------------------------------------------
 -                                                                             -
 -                                DBM STATISTICS                               -
 -                                                                             -
 -------------------------------------------------------------------------------
    M  x    N  x    K                                          COUNT     PERCENT
 -------------------------------------------------------------------------------

 -------------------------------------------------------------------------------
 -                                                                             -
 -                                GRID STATISTICS                              -
 -                                                                             -
 -------------------------------------------------------------------------------
 LP    KERNEL             BACKEND                              COUNT     PERCENT
 2     collocate ortho    REF                                  38030      30.67%
 2     integrate ortho    REF                                  38030      30.67%
 3     collocate ortho    REF                                  19700      15.89%
 3     integrate ortho    REF                                  19700      15.89%
 4     collocate ortho    REF                                   4260       3.44%
 4     integrate ortho    REF                                   4260       3.44%
 0     collocate general  REF                                      6       0.00%
 -------------------------------------------------------------------------------

 MEMORY| Estimated peak process memory [MiB]                                 484

 -------------------------------------------------------------------------------
 -                                                                             -
 -                           R E F E R E N C E S                               -
 -                                                                             -
 -------------------------------------------------------------------------------
 
 CP2K version 2023.1 (Development Version), the CP2K developers group (2023).
 CP2K is freely available from https://www.cp2k.org/ .

 Kuehne,Thomas D.; Iannuzzi,Marcella; Del Ben,Mauro;
 Rybkin,Vladimir V.; Seewald,Patrick; Stein,Frederick; Laino,Teodoro;
 Khaliullin,Rustam Z.; Schuett,Ole; Schiffmann,Florian; Golze,Dorothea;
 Wilhelm,Jan; Chulkov,Sergey; Bani-Hashemian,Mohammad Hossein;
 Weber,Valery; Borstnik,Urban; Taillefumier,Mathieu;
 Jakobovits,Alice Shoshana; Lazzaro,Alfio; Pabst,Hans; Mueller,Tiziano;
 Schade,Robert; Guidon,Manuel; Andermatt,Samuel; Holmberg,Nico;
 Schenter,Gregory K.; Hehn,Anna; Bussy,Augustin; Belleflamme,Fabian;
 Tabacchi,Gloria; Gloess,Andreas; Lass,Michael; Bethune,Iain;
 Mundy,Christopher J.; Plessl,Christian; Watkins,Matt;
 VandeVondele,Joost; Krack,Matthias; Hutter,Juerg. 
 The Journal of Chemical Physics, 152 (19), (2020). 
 CP2K: An electronic structure and molecular dynamics software package -
 Quickstep: Efficient and accurate electronic structure calculations.
 https://doi.org/10.1063/5.0007045

 Schuett, O; VandeVondele, J. 
 Journal of Chemical Theory and Computation, 14, (2018). 
 Machine Learning Adaptive Basis Sets for Efficient Large Scale
 Density Functional Theory Simulation.
 https://doi.org/10.1021/acs.jctc.8b00378

 Schuett, Ole; Messmer, Peter; Hutter, Juerg; VandeVondele, Joost. 
 Electronic Structure Calculations on Graphics Processing Units, John
 Wiley & Sons, Ltd, 173-190 (2016). 
 GPU-Accelerated Sparse Matrix-Matrix Multiplication for
 Linear Scaling Density Functional Theory.
 https://doi.org/10.1002/9781118670712.ch8

 Heinecke, A; Henry, G; Hutchinson, M; Pabst, H. 
 Proceedings of Intl. Supercomputing Conference, 981-991 (2016). 
 LIBXSMM: Accelerating Small Matrix Multiplications
 by Runtime Code Generation.
 https://doi.org/10.1109/SC.2016.83

 Borstnik, U; VandeVondele, J; Weber, V; Hutter, J. 
 PARALLEL COMPUTING, 40 (5-6), 47-58 (2014). 
 Sparse matrix multiplication: The distributed block-compressed sparse
 row library.
 https://doi.org/10.1016/j.parco.2014.03.012

 Hutter, J; Iannuzzi, M; Schiffmann, F; VandeVondele, J. 
 WIREs Comput Mol Sci., 4 (1), 15-25 (2014). 
 CP2K: atomistic simulations of condensed matter systems.
 https://doi.org/10.1002/wcms.1159

 VandeVondele, J; Borstnik, U; Hutter, J. 
 JOURNAL OF CHEMICAL THEORY AND COMPUTATION, 8 (10), 3565-3573 (2012). 
 Linear Scaling Self-Consistent Field Calculations with Millions of Atoms
 in the Condensed Phase.
 https://doi.org/10.1021/ct200897x

 VandeVondele, J; Hutter, J. 
 JOURNAL OF CHEMICAL PHYSICS, 127 (11), 114105 (2007). 
 Gaussian basis sets for accurate calculations on molecular systems in
 gas and condensed phases.
 https://doi.org/10.1063/1.2770708

 Krack, M. 
 THEORETICAL CHEMISTRY ACCOUNTS, 114 (1-3), 145-152 (2005). 
 Pseudopotentials for H to Kr optimized for gradient-corrected
 exchange-correlation functionals.
 https://doi.org/10.1007/s00214-005-0655-y

 VandeVondele, J; Krack, M; Mohamed, F; Parrinello, M; Chassaing, T;
 Hutter, J. COMPUTER PHYSICS COMMUNICATIONS, 167 (2), 103-128 (2005). 
 QUICKSTEP: Fast and accurate density functional calculations using a
 mixed Gaussian and plane waves approach.
 https://doi.org/10.1016/j.cpc.2004.12.014

 Frigo, M; Johnson, SG. 
 PROCEEDINGS OF THE IEEE, 93 (2), 216-231 (2005). 
 The design and implementation of FFTW3.
 https://doi.org/10.1109/JPROC.2004.840301

 Niklasson, AMN; Tymczak, CJ; Challacombe, M. 
 JOURNAL OF CHEMICAL PHYSICS, 118 (19), 8611-8620 (2003). 
 Trace resetting density matrix purification in O(N)
 self-consistent-field theory.
 https://doi.org/10.1063/1.1559913

 Hartwigsen, C; Goedecker, S; Hutter, J. 
 PHYSICAL REVIEW B, 58 (7), 3641-3662 (1998). 
 Relativistic separable dual-space Gaussian pseudopotentials from H to Rn.
 https://doi.org/10.1103/PhysRevB.58.3641

 Lippert, G; Hutter, J; Parrinello, M. 
 MOLECULAR PHYSICS, 92 (3), 477-487 (1997). 
 A hybrid Gaussian and plane wave density functional scheme.
 https://doi.org/10.1080/002689797170220

 Perdew, JP; Burke, K; Ernzerhof, M. 
 PHYSICAL REVIEW LETTERS, 77 (18), 3865-3868 (1996). 
 Generalized gradient approximation made simple.
 https://doi.org/10.1103/PhysRevLett.77.3865

 Goedecker, S; Teter, M; Hutter, J. 
 PHYSICAL REVIEW B, 54 (3), 1703-1710 (1996). 
 Separable dual-space Gaussian pseudopotentials.
 https://doi.org/10.1103/PhysRevB.54.1703


 -------------------------------------------------------------------------------
 -                                                                             -
 -                                T I M I N G                                  -
 -                                                                             -
 -------------------------------------------------------------------------------
 SUBROUTINE                       CALLS  ASD         SELF TIME        TOTAL TIME
                                MAXIMUM       AVERAGE  MAXIMUM  AVERAGE  MAXIMUM
 CP2K                                 1  1.0    0.009    0.009   39.167   39.167
 qs_energies                          1  2.0    0.000    0.000   38.526   38.526
 ls_scf                               1  3.0    0.000    0.000   38.276   38.276
 ls_scf_main                          4  4.0    0.001    0.001   26.462   26.462
 ls_scf_dm_to_ks                      9  5.0    0.000    0.000   26.381   26.381
 qs_ks_update_qs_env                 10  6.0    0.000    0.000   23.285   23.285
 rebuild_ks_matrix                   10  7.0    0.000    0.000   23.284   23.284
 qs_ks_build_kohn_sham_matrix        10  8.0    0.003    0.003   23.284   23.284
 qs_vxc_create                       10  9.0    0.000    0.000   14.592   14.592
 xc_vxc_pw_create                    10 10.0    0.237    0.237   14.592   14.592
 pw_transfer                        191 11.1    0.034    0.034   14.117   14.117
 fft_wrap_pw1pw2                    171 12.3    0.004    0.004   13.732   13.732
 fft_wrap_pw1pw2_200                111 13.7    1.256    1.256   13.301   13.301
 xc_pw_derive                        60 12.0    0.001    0.001    9.327    9.327
 xc_rho_set_and_dset_create          10 11.0    0.263    0.263    8.073    8.073
 pao_update                           4  4.0    0.008    0.008    7.975    7.975
 pao_calc_energy                    414  5.0    0.003    0.003    7.219    7.219
 qs_rho_update_rho_low               10  6.0    0.000    0.000    6.884    6.884
 calculate_rho_elec                  10  7.0    0.049    0.049    6.884    6.884
 fft3d_s                            172 14.2    6.139    6.139    6.174    6.174
 sum_up_and_integrate                10  9.0    0.195    0.195    6.101    6.101
 xc_pw_divergence                    10 11.0    0.001    0.001    6.096    6.096
 integrate_v_rspace                  10 10.0    0.001    0.001    5.905    5.905
 dbcsr_multiply_generic           22435  8.4    0.358    0.358    5.727    5.727
 grid_integrate_task_list            10 11.0    4.360    4.360    4.360    4.360
 grid_collocate_task_list            10  8.0    3.944    3.944    3.944    3.944
 pao_guess_initial_P                  1  4.0    0.000    0.000    3.793    3.793
 pao_read_preopt_dm                   1  5.0    0.000    0.000    3.793    3.793
 pao_dm_trs4                        414  6.0    0.002    0.002    3.741    3.741
 density_matrix_trs4                423  7.0    0.114    0.114    3.599    3.599
 ls_scf_init_matrix_S               418  7.0    0.003    0.003    3.457    3.457
 pao_rebuild_S                      414  6.0    0.001    0.001    3.427    3.427
 pw_scatter_s                        90 14.7    3.423    3.423    3.423    3.423
 matrix_sqrt_Newton_Schulz          418  8.0    0.073    0.073    3.125    3.125
 density_rs2pw                       10  8.0    0.001    0.001    2.890    2.890
 pw_gather_s                         81 13.8    2.830    2.830    2.830    2.830
 xc_functional_eval                  10 12.0    0.000    0.000    2.761    2.761
 pbe_lda_eval                        10 13.0    2.761    2.761    2.761    2.761
 make_m2s                         44870  9.4    0.137    0.137    2.146    2.146
 multiply_cannon                  22435  9.4    0.886    0.886    2.144    2.144
 make_images                      44870 10.4    0.535    0.535    1.901    1.901
 potential_pw2rs                     10 11.0    0.003    0.003    1.544    1.544
 pw_derive                           60 13.0    1.537    1.537    1.537    1.537
 pw_copy                            120 11.8    1.177    1.177    1.177    1.177
 arnoldi_extremal                   841  8.5    0.003    0.003    1.147    1.147
 arnoldi_normal_ev                  841  9.5    0.009    0.009    1.144    1.144
 pw_poisson_solve                    10  9.0    0.167    0.167    0.933    0.933
 build_subspace                     841 10.5    0.046    0.046    0.901    0.901
 pw_axpy                             90 10.3    0.848    0.848    0.848    0.848
 dbcsr_matrix_vector_mult         20161 11.5    0.097    0.097    0.835    0.835
 -------------------------------------------------------------------------------

 The number of warnings for this run is : 0
 
 -------------------------------------------------------------------------------
  **** **** ******  **  PROGRAM ENDED AT                 2023-02-01 10:44:34.377
 ***** ** ***  *** **   PROGRAM RAN ON                                    moritz
 **    ****   ******    PROGRAM RAN BY                                       ole
 ***** **    ** ** **   PROGRAM PROCESS ID                                148518
  **** **  *******  **  PROGRAM STOPPED IN /home/ole/git/pao_ml_equivar/2H2O_rot
                                           ations/rand_15
