       6
 i =      700, time =      140.000, E =       -34.4478132503
  O         2.5140805791        4.2535146293        3.6840161323
  H         2.0013951390        4.6512128834        4.4137805007
  H         1.9090459715        3.7492371485        3.1068491300
  O         5.3596881385        4.2557018995        4.3311592262
  H         4.8386421459        3.9486412853        5.0951908648
  H         4.6370909322        4.4005707951        3.6551725446
