 DBCSR| CPU Multiplication driver                                           XSMM (U)
 DBCSR| Multrec recursion limit                                              512 (U)
 DBCSR| Multiplication stack size                                           1000 (D)
 DBCSR| Maximum elements for images                                    UNLIMITED (U)
 DBCSR| Multiplicative factor virtual images                                   1 (U)
 DBCSR| Use multiplication densification                                       T (D)
 DBCSR| Multiplication size stacks                                             3 (U)
 DBCSR| Use memory pool for CPU allocation                                     F (U)
 DBCSR| OMP: Current number of threads                                         1
 DBCSR| OMP: Max number of threads                                             1
 DBCSR| Split modifier for TAS multiplication algorithm                  1.0E+00 (U)


  **** **** ******  **  PROGRAM STARTED AT               2023-02-01 10:47:55.437
 ***** ** ***  *** **   PROGRAM STARTED ON                                moritz
 **    ****   ******    PROGRAM STARTED BY                                   ole
 ***** **    ** ** **   PROGRAM PROCESS ID                                148801
  **** **  *******  **  PROGRAM STARTED IN /home/ole/git/pao_ml_equivar/2H2O_MD/
                                           frame_1625

 CP2K| version string:                 CP2K version 2023.1 (Development Version)
 CP2K| source code revision number:                                  git:03b4147
 CP2K| cp2kflags: omp libint fftw3 libxc quip xsmm spglib libvori libbqb libtorc
 CP2K|            h
 CP2K| is freely available from                            https://www.cp2k.org/
 CP2K| Program compiled at                           Mi 01 Feb 2023 10:36:52 CET
 CP2K| Program compiled on                                                moritz
 CP2K| Program compiled for                                                local
 CP2K| Data directory path                               /home/ole/git/cp2k/data
 CP2K| Input file name                                            2H2O_pao44.inp

 GLOBAL| Force Environment number                                              1
 GLOBAL| Basis set file name                                        BASIS_MOLOPT
 GLOBAL| Potential file name                                      GTH_POTENTIALS
 GLOBAL| MM Potential file name                                     MM_POTENTIAL
 GLOBAL| Coordinate file name                                         coords.xyz
 GLOBAL| Method name                                                        CP2K
 GLOBAL| Project name                                                 2H2O_pao44
 GLOBAL| Run type                                                         ENERGY
 GLOBAL| FFT library                                                       FFTW3
 GLOBAL| Diagonalization library                                       ScaLAPACK
 GLOBAL| DGEMM library                                                      BLAS
 GLOBAL| Orthonormality check for eigenvectors                          DISABLED
 GLOBAL| Matrix multiplication library                                 ScaLAPACK
 GLOBAL| All-to-all communication in single precision                          F
 GLOBAL| FFTs using library dependent lengths                                  F
 GLOBAL| Grid backend                                                       AUTO
 GLOBAL| Global print level                                                  LOW
 GLOBAL| MPI I/O enabled                                                       T
 GLOBAL| Total number of message passing processes                             1
 GLOBAL| Number of threads for this process                                    1
 GLOBAL| This output is from process                                           0
 GLOBAL| Stack size for threads created by OpenMP (OMP_STACKSIZE)        default
 GLOBAL| CPU model name           AMD Ryzen Threadripper 3970X 32-Core Processor
 GLOBAL| CPUID                                                              1002
 GLOBAL| Compiled for CPUID                                                    0

 *** HINT in environment.F:884 :: The compiler target flags (generic) used ***
 *** to build this binary cannot exploit all extensions of this CPU model  ***
 *** (x86_avx2). Consider compiler target flags as part of FCFLAGS and     ***
 *** CFLAGS (ARCH file).                                                   ***


 MEMORY| system memory details [Kb]
 MEMORY|                        rank 0           min           max       average
 MEMORY| MemTotal            131773860     131773860     131773860     131773860
 MEMORY| MemFree             109948324     109948324     109948324     109948324
 MEMORY| Buffers                302624        302624        302624        302624
 MEMORY| Cached                7056636       7056636       7056636       7056636
 MEMORY| Slab                   780228        780228        780228        780228
 MEMORY| SReclaimable           332704        332704        332704        332704
 MEMORY| MemLikelyFree       117640288     117640288     117640288     117640288


 GENERATE|  Preliminary Number of Bonds generated:                             0
 GENERATE|  Achieved consistency in connectivity generation.

 *******************************************************************************
 *******************************************************************************
 **                                                                           **
 **     #####                         ##              ##                      **
 **    ##   ##            ##          ##              ##                      **
 **   ##     ##                       ##            ######                    **
 **   ##     ##  ##   ##  ##   #####  ##  ##   ####   ##    #####    #####    **
 **   ##     ##  ##   ##  ##  ##      ## ##   ##      ##   ##   ##  ##   ##   **
 **   ##  ## ##  ##   ##  ##  ##      ####     ###    ##   ######   ######    **
 **    ##  ###   ##   ##  ##  ##      ## ##      ##   ##   ##       ##        **
 **     #######   #####   ##   #####  ##  ##  ####    ##    #####   ##        **
 **           ##                                                    ##        **
 **                                                                           **
 **                                                ... make the atoms dance   **
 **                                                                           **
 **            Copyright (C) by CP2K developers group (2000-2023)             **
 **                      J. Chem. Phys. 152, 194103 (2020)                    **
 **                                                                           **
 *******************************************************************************


 TOTAL NUMBERS AND MAXIMUM NUMBERS

  Total number of            - Atomic kinds:                                   2
                             - Atoms:                                          6
                             - Shell sets:                                     6
                             - Shells:                                        22
                             - Primitive Cartesian functions:                 42
                             - Cartesian basis functions:                     48
                             - Spherical basis functions:                     46

  Maximum angular momentum of- Orbital basis functions:                        2
                             - Local part of the GTH pseudopotential:          2
                             - Non-local part of the GTH pseudopotential:      0

 ------------------------------ Linear scaling SCF -----------------------------
 eps_scf:                                                              0.100E-07
 eps_filter:                                                           0.100E-07
 mixing_fraction:                                                      0.450E+00
 max_scf:                                                                     25
 fixed chemical potential (mu)                                                 F
 has unit metric:                                                              F
 Computing inv(S):                                                             T
 Computing sqrt(S):                                                            T
 Computing S preconditioner                                                    F
 S sqrt method:                                                     NEWTONSCHULZ
 S sqrt order:                                                                 3
 Extrapolation order:                                                          1
 Use single precision matrices                                                 F
 S preconditioner type                                                      NONE
 Polarized Atomic Orbitals (PAO)                                               T
 Purification method                                   Trace resetting 4th order
 Cluster type                                                             ATOMIC
 Computing Chebyshev                                                       FALSE
 Using PAO                                                                     T
 -------------------------------------------------------------------------------

 
 PAO|                                  EPS_PAO                           0.5E-06
 PAO|                                  MIXING                            0.5E+00
 PAO|                                  MAX_PAO                              1500
 PAO|                                  MAX_CYCLES                           1000
 PAO|                                  PARAMETERIZATION              EQUIVARIANT
 PAO|                                  PRECONDITION                            F
 PAO|                                  REGULARIZATION                    0.0E+00
 PAO|                                  EPS_PGF                           0.1E-09
 PAO|                                  PENALTY_DISTANCE                  0.1E+00
 PAO|                                  PENALTY_STRENGTH                  0.5E-02
 PAO|                                  LINPOT_PRECONDITION_DELTA         0.0E+00
 PAO|                                  LINPOT_INITGUESS_DELT             0.0E+00
 PAO|                                  LINPOT_REGULARIZATION_DELTA       0.0E+00
 PAO|                                  LINPOT_REGULARIZATION_STRENGTH    0.0E+00
 PAO|                                  OPTIMIZER                              CG
 PAO|                                  CG_INIT_STEPS                           2
 PAO|                                  CG_RESET_LIMIT                    0.1E+00
 PAO|                                  CHECK_UNITARY_TOL                -0.1E+01
 PAO|                                  CHECK_GRADIENT_TOL               -0.1E+01
 PAO|                                  NUM_GRADIENT_ORDER                      2
 PAO|                                  NUM_GRADIENT_EPS                  0.1E-07
 PAO|                                  PRINT%RESTART%WRITE_CYCLES            100
 PAO|                                  RESTART_FILE 
 PAO|                                  PREOPT_DM_FILE 2H2O_ref_LS_DM_SPIN_1_RESTART.dm
 PAO|                                  MACHINE_LEARNING%METHOD       GAUSSIAN_PR
 PAO|                                  MACHINE_LEARNING%PRIOR               ZERO
 PAO|                                  MACHINE_LEARNING%DESCRIPTOR     POTENTIAL
 PAO|                                  MACHINE_LEARNING%TOLERANCE        0.1E-01
 PAO|                                  MACHINE_LEARNING%GP_NOISE_VAR     0.1E+00
 PAO|                                  MACHINE_LEARNING%GP_SCALE         0.5E-01
 

 Calculating atomic Fock matrix for atomic kind: O

 Electronic structure
    Total number of core electrons                                          2.00
    Total number of valence electrons                                       6.00
    Total number of electrons                                               8.00
    Multiplicity                                                   not specified
    S   [  2.00] 2.00
    P      4.00


 *******************************************************************************
                  Iteration          Convergence                     Energy [au]
 *******************************************************************************
                          1        0.708315                     -15.576645311500
                          2        0.608879                     -15.587933561584
                          3        0.102828E-01                 -15.656849565404
                          4        0.113889E-02                 -15.656866888140
                          5        0.434197E-03                 -15.656867072159
                          6        0.263771E-03                 -15.656867091904
                          7        0.478536E-06                 -15.656867103452

 Energy components [Hartree]           Total Energy ::          -15.656867103452
                                        Band Energy ::           -3.000198112285
                                     Kinetic Energy ::           11.759971203220
                                   Potential Energy ::          -27.416838306672
                                      Virial (-V/T) ::            2.331369510426
                                        Core Energy ::          -26.140716385623
                                          XC Energy ::           -3.154051012914
                                     Coulomb Energy ::           13.637900295084
                       Total Pseudopotential Energy ::          -37.935781716540
                       Local Pseudopotential Energy ::          -39.218907440693
                    Nonlocal Pseudopotential Energy ::            1.283125724153
                                        Confinement ::            0.350941276976

 Orbital energies  State     L     Occupation   Energy[a.u.]          Energy[eV]

                       1     0          2.000      -0.864471          -23.523463

                       1     1          4.000      -0.317814           -8.648154


 Total Electron Density at R=0:                                         0.000068

 Calculating atomic Fock matrix for atomic kind: H

 Electronic structure
    Total number of core electrons                                          0.00
    Total number of valence electrons                                       1.00
    Total number of electrons                                               1.00
    Multiplicity                                                   not specified
    S      1.00


 *******************************************************************************
                  Iteration          Convergence                     Energy [au]
 *******************************************************************************
                          1        0.437545E-02                  -0.424159432110
                          2        0.531356E-03                  -0.424178438213
                          3        0.259176E-06                  -0.424178722480

 Energy components [Hartree]           Total Energy ::           -0.424178722480
                                        Band Energy ::           -0.199015229016
                                     Kinetic Energy ::            0.464007633961
                                   Potential Energy ::           -0.888186356441
                                      Virial (-V/T) ::            1.914163240935
                                        Core Energy ::           -0.479160803564
                                          XC Energy ::           -0.244352904054
                                     Coulomb Energy ::            0.299334985138
                       Total Pseudopotential Energy ::           -0.962295316385
                       Local Pseudopotential Energy ::           -0.962295316385
                    Nonlocal Pseudopotential Energy ::            0.000000000000
                                        Confinement ::            0.191268788606

 Orbital energies  State     L     Occupation   Energy[a.u.]          Energy[eV]

                       1     0          1.000      -0.199015           -5.415480


 Total Electron Density at R=0:                                         0.242907
 PAO| Made initial guess for matrix_X with norm:   4.8989794855663558     

     Lanczos converged:  T threshold:   0.100E-02
     Est. extremal eigenvalues:    0.320E+01   0.116E+00
     Est. condition number :    0.277E+02

 Order=           3
     NS sqrt iter    1 1.00000000   0.779E+00       0.001       61.604
     NS sqrt iter    2 1.00000000   0.413E+00       0.001      107.569
     NS sqrt iter    3 1.00000000   0.156E+00       0.001      109.709
     NS sqrt iter    4 1.00000000   0.167E-01       0.001      108.727
     NS sqrt iter    5 1.00000000   0.314E-04       0.001       83.968
     Symmetrizing Results
     Final NS sqrt iter    5 1.00000000   0.157E-08

 PAO| Read restart DM 2H2O_ref_LS_DM_SPIN_1_RESTART.dm with checksum:    65.044500170706300     
 PAO| Quickstep energy from restart density:  -34.446837515846148     
 PAO| ======================= Iteration:         1 =============================

     Lanczos converged:  T threshold:   0.100E-02
     Est. extremal eigenvalues:    0.320E+01   0.116E+00
     Est. condition number :    0.277E+02

 Order=           3
     NS sqrt iter    1 1.00000000   0.779E+00       0.001       64.512
     NS sqrt iter    2 1.00000000   0.413E+00       0.001      110.592
     NS sqrt iter    3 1.00000000   0.156E+00       0.001      110.592
     NS sqrt iter    4 1.00000000   0.167E-01       0.001      110.592
     NS sqrt iter    5 1.00000000   0.314E-04       0.001       83.968
     Symmetrizing Results
     Final NS sqrt iter    5 1.00000000   0.157E-08

     Est. extremal eigenvalues     -0.89854     1.74890  converged:  T
     TRS4 it   1 1.00000000   0.870E+00       0.000       16.128   0.100E-07
     TRS4 it   2 1.00000000   0.666E+00       0.001       32.256   0.100E-07
     TRS4 it   3 1.00000000   0.484E+00       0.001       32.256   0.100E-07
     TRS4 it   4 1.00000000   0.304E+00       0.001       32.256   0.100E-07
     TRS4 it   5 1.00000000   0.149E+00       0.001       32.256   0.100E-07
     TRS4 it   6 1.00000000   0.431E-01       0.001       32.256   0.100E-07
     TRS4 it   7 1.00000000   0.459E-02       0.001       32.256   0.100E-07
     TRS4 it   8 1.00000000   0.661E-04       0.001       32.256   0.100E-07
     TRS4 it   9 1.00000000   0.167E-07       0.001       32.256   0.100E-07
     Final TRS4 iteration    9 1.00000000   0.167E-07
     Chemical potential (mu):      -0.06892
 
 PAO| energy:  -7.5426722419035830      penalty:   2.7733391199176194E-033
 PAO|CG| warming up with steepest descent
 PAO|CG| beta:    0.0000000000000000     
 PAO| norm of gradient:  0.79018983670453080     
 PAO|LS| adapt:  T F F
 PAO|LS| adapt: scan_steps:    0.0000000000000000        0.0000000000000000        0.0000000000000000     
 PAO|LS| adapt: energies:   -7.5426722419035830        0.0000000000000000        0.0000000000000000     
 PAO| ======================= Iteration:         2 =============================

     Lanczos converged:  T threshold:   0.100E-02
     Est. extremal eigenvalues:    0.313E+01   0.129E+00
     Est. condition number :    0.242E+02

 Order=           3
     NS sqrt iter    1 1.00000000   0.767E+00       0.001       58.307
     NS sqrt iter    2 1.00000000   0.399E+00       0.001       96.898
     NS sqrt iter    3 1.00000000   0.139E+00       0.001       97.879
     NS sqrt iter    4 1.00000000   0.113E-01       0.001       98.169
     NS sqrt iter    5 1.00000000   0.952E-05       0.001       76.342
     Symmetrizing Results
     Final NS sqrt iter    5 1.00000000   0.147E-09

     Est. extremal eigenvalues     -0.90212     1.70480  converged:  T
     TRS4 it   1 1.00000000   0.867E+00       0.000       16.128   0.100E-07
     TRS4 it   2 1.00000000   0.648E+00       0.001       32.256   0.100E-07
     TRS4 it   3 1.00000000   0.466E+00       0.001       32.256   0.100E-07
     TRS4 it   4 1.00000000   0.282E+00       0.001       32.256   0.100E-07
     TRS4 it   5 1.00000000   0.128E+00       0.001       32.256   0.100E-07
     TRS4 it   6 1.00000000   0.321E-01       0.001       32.256   0.100E-07
     TRS4 it   7 1.00000000   0.256E-02       0.001       32.256   0.100E-07
     TRS4 it   8 1.00000000   0.208E-04       0.017        1.927   0.100E-07
     TRS4 it   9 1.00000000   0.167E-08       0.001       32.256   0.100E-07
     Final TRS4 iteration    9 1.00000000   0.167E-08
     Chemical potential (mu):      -0.05735
 
 PAO| energy:  -7.5989885554570709      penalty:   2.3216630285281931E-008
 PAO|LS| adapt:  T T F
 PAO|LS| adapt: scan_steps:    0.0000000000000000       0.10000000000000001        0.0000000000000000     
 PAO|LS| adapt: energies:   -7.5426722419035830       -7.5989885554570709        0.0000000000000000     
 PAO| ======================= Iteration:         3 =============================

     Lanczos converged:  T threshold:   0.100E-02
     Est. extremal eigenvalues:    0.305E+01   0.142E+00
     Est. condition number :    0.216E+02

 Order=           3
     NS sqrt iter    1 1.00000000   0.753E+00       0.001       58.615
     NS sqrt iter    2 1.00000000   0.384E+00       0.001       97.852
     NS sqrt iter    3 1.00000000   0.123E+00       0.001       98.503
     NS sqrt iter    4 1.00000000   0.763E-02       0.001       97.225
     NS sqrt iter    5 1.00000000   0.306E-05       0.001       77.669
     Symmetrizing Results
     Final NS sqrt iter    5 1.00000000   0.475E-10

     Est. extremal eigenvalues     -0.90545     1.67477  converged:  T
     TRS4 it   1 1.00000000   0.867E+00       0.000       16.128   0.100E-07
     TRS4 it   2 1.00000000   0.634E+00       0.001       32.256   0.100E-07
     TRS4 it   3 1.00000000   0.450E+00       0.001       32.256   0.100E-07
     TRS4 it   4 1.00000000   0.261E+00       0.001       32.256   0.100E-07
     TRS4 it   5 1.00000000   0.110E+00       0.001       32.256   0.100E-07
     TRS4 it   6 1.00000000   0.233E-01       0.017        1.927   0.100E-07
     TRS4 it   7 1.00000000   0.134E-02       0.001       32.256   0.100E-07
     TRS4 it   8 1.00000000   0.571E-05       0.001       32.256   0.100E-07
     TRS4 it   9 1.00000000   0.128E-09       0.001       32.256   0.100E-07
     Final TRS4 iteration    9 1.00000000   0.128E-09
     Chemical potential (mu):      -0.04470
 
 PAO| energy:  -7.6423742518991133      penalty:   3.7146609177557453E-007
 PAO|LS| adapt:  T T F
 PAO|LS| adapt: scan_steps:    0.0000000000000000       0.20000000000000001        0.0000000000000000     
 PAO|LS| adapt: energies:   -7.5426722419035830       -7.6423742518991133        0.0000000000000000     
 PAO| ======================= Iteration:         4 =============================

     Lanczos converged:  T threshold:   0.100E-02
     Est. extremal eigenvalues:    0.288E+01   0.160E+00
     Est. condition number :    0.181E+02

 Order=           3
     NS sqrt iter    1 1.00000000   0.721E+00       0.001       58.255
     NS sqrt iter    2 1.00000000   0.352E+00       0.001       97.916
     NS sqrt iter    3 1.00000000   0.950E-01       0.001       98.082
     NS sqrt iter    4 1.00000000   0.368E-02       0.001       97.293
     NS sqrt iter    5 1.00000000   0.443E-06       0.001       74.751
     Symmetrizing Results
     Final NS sqrt iter    5 1.00000000   0.583E-09

     Est. extremal eigenvalues     -0.91055     1.64021  converged:  T
     TRS4 it   1 1.00000000   0.871E+00       0.000       16.128   0.100E-07
     TRS4 it   2 1.00000000   0.613E+00       0.001       32.256   0.100E-07
     TRS4 it   3 1.00000000   0.422E+00       0.017        1.928   0.100E-07
     TRS4 it   4 1.00000000   0.225E+00       0.001       32.256   0.100E-07
     TRS4 it   5 1.00000000   0.795E-01       0.001       32.256   0.100E-07
     TRS4 it   6 1.00000000   0.117E-01       0.001       32.256   0.100E-07
     TRS4 it   7 1.00000000   0.320E-03       0.001       32.256   0.100E-07
     TRS4 it   8 1.00000000   0.319E-06       0.001       32.256   0.100E-07
     TRS4 it   9 1.00000000   0.411E-12       0.001       32.256   0.100E-07
     Final TRS4 iteration    9 1.00000000   0.411E-12
     Chemical potential (mu):      -0.01727
 
 PAO| energy:  -7.6886997804481725      penalty:   5.9434575260969991E-006
 PAO|LS| Need extra step
 PAO|LS| adapt:  T T F
 PAO|LS| adapt: scan_steps:    0.0000000000000000       0.40000000000000002        0.0000000000000000     
 PAO|LS| adapt: energies:   -7.5426722419035830       -7.6886997804481725        0.0000000000000000     
 PAO| ======================= Iteration:         5 =============================

     Lanczos converged:  T threshold:   0.100E-02
     Est. extremal eigenvalues:    0.256E+01   0.185E+00
     Est. condition number :    0.138E+02

 Order=           3
     NS sqrt iter    1 1.00000000   0.664E+00       0.001       57.843
     NS sqrt iter    2 1.00000000   0.292E+00       0.001      100.636
     NS sqrt iter    3 1.00000000   0.577E-01       0.001       97.859
     NS sqrt iter    4 1.00000000   0.104E-02       0.001       98.914
     NS sqrt iter    5 1.00000000   0.130E-07       0.001       43.339
     Symmetrizing Results
     Final NS sqrt iter    5 1.00000000   0.406E-08

     Est. extremal eigenvalues     -0.91131     1.61162  converged:  T
     TRS4 it   1 1.00000000   0.880E+00       0.000       16.128   0.100E-07
     TRS4 it   2 1.00000000   0.587E+00       0.001       32.256   0.100E-07
     TRS4 it   3 1.00000000   0.380E+00       0.001       32.256   0.100E-07
     TRS4 it   4 1.00000000   0.173E+00       0.001       32.256   0.100E-07
     TRS4 it   5 1.00000000   0.432E-01       0.001       32.256   0.100E-07
     TRS4 it   6 1.00000000   0.311E-02       0.001       32.256   0.100E-07
     TRS4 it   7 1.00000000   0.196E-04       0.001       32.256   0.100E-07
     TRS4 it   8 1.00000000   0.110E-08       0.001       32.256   0.100E-07
     Final TRS4 iteration    8 1.00000000   0.110E-08
     Chemical potential (mu):       0.02976
 
 PAO| energy:  -7.6264186594782535      penalty:   9.5095320879057520E-005
 PAO|LS| Need extra step
 PAO|LS| adapt:  T T T
 PAO|LS| adapt: scan_steps:    0.0000000000000000       0.40000000000000002       0.80000000000000004     
 PAO|LS| adapt: energies:   -7.5426722419035830       -7.6886997804481725       -7.6264186594782535     
 PAO|LS| adapt: suggested step_size:   0.48040608371236504     
 PAO|LS| adapt: predicted energy  -7.6929083563619969     
 PAO| ======================= Iteration:         6 =============================

     Lanczos converged:  T threshold:   0.100E-02
     Est. extremal eigenvalues:    0.281E+01   0.165E+00
     Est. condition number :    0.170E+02

 Order=           3
     NS sqrt iter    1 1.00000000   0.709E+00       0.001       64.512
     NS sqrt iter    2 1.00000000   0.339E+00       0.001      110.592
     NS sqrt iter    3 1.00000000   0.856E-01       0.001      110.592
     NS sqrt iter    4 1.00000000   0.281E-02       0.001      110.592
     NS sqrt iter    5 1.00000000   0.218E-06       0.001       76.160
     Symmetrizing Results
     Final NS sqrt iter    5 1.00000000   0.640E-09

     Est. extremal eigenvalues     -0.91179     1.63180  converged:  T
     TRS4 it   1 1.00000000   0.873E+00       0.000       16.128   0.100E-07
     TRS4 it   2 1.00000000   0.607E+00       0.017        1.937   0.100E-07
     TRS4 it   3 1.00000000   0.412E+00       0.001       32.256   0.100E-07
     TRS4 it   4 1.00000000   0.213E+00       0.001       32.256   0.100E-07
     TRS4 it   5 1.00000000   0.698E-01       0.001       32.256   0.100E-07
     TRS4 it   6 1.00000000   0.882E-02       0.001       32.256   0.100E-07
     TRS4 it   7 1.00000000   0.174E-03       0.001       32.256   0.100E-07
     TRS4 it   8 1.00000000   0.931E-07       0.001       32.256   0.100E-07
     TRS4 it   9 1.00000000   0.347E-13       0.001       32.256   0.100E-07
     Final TRS4 iteration    9 1.00000000   0.347E-13
     Chemical potential (mu):      -0.00594
 
 PAO| energy:  -7.6922229524922017      penalty:   1.2366112495053307E-005
 PAO|CG| warming up with steepest descent
 PAO|CG| beta:    0.0000000000000000     
 PAO| norm of gradient:  0.41629554706229382     
 PAO| energy improvement: -0.14955071058861868     
 PAO| step      6                   -7.692222952  0.260E-01  0.480E+00     0.178
 PAO|LS| adapt:  T F F
 PAO|LS| adapt: scan_steps:    0.0000000000000000        0.0000000000000000        0.0000000000000000     
 PAO|LS| adapt: energies:   -7.6922229524922017        0.0000000000000000        0.0000000000000000     
 PAO| ======================= Iteration:         7 =============================

     Lanczos converged:  T threshold:   0.100E-02
     Est. extremal eigenvalues:    0.273E+01   0.180E+00
     Est. condition number :    0.152E+02

 Order=           3
     NS sqrt iter    1 1.00000000   0.692E+00       0.001       58.702
     NS sqrt iter    2 1.00000000   0.318E+00       0.001       98.279
     NS sqrt iter    3 1.00000000   0.709E-01       0.017        6.443
     NS sqrt iter    4 1.00000000   0.167E-02       0.001       96.478
     NS sqrt iter    5 1.00000000   0.501E-07       0.001       57.458
     Symmetrizing Results
     Final NS sqrt iter    5 1.00000000   0.367E-08

     Est. extremal eigenvalues     -0.91341     1.63336  converged:  T
     TRS4 it   1 1.00000000   0.876E+00       0.000       16.128   0.100E-07
     TRS4 it   2 1.00000000   0.609E+00       0.001       32.256   0.100E-07
     TRS4 it   3 1.00000000   0.415E+00       0.001       32.256   0.100E-07
     TRS4 it   4 1.00000000   0.216E+00       0.001       32.256   0.100E-07
     TRS4 it   5 1.00000000   0.718E-01       0.001       32.256   0.100E-07
     TRS4 it   6 1.00000000   0.918E-02       0.001       32.256   0.100E-07
     TRS4 it   7 1.00000000   0.183E-03       0.001       32.256   0.100E-07
     TRS4 it   8 1.00000000   0.995E-07       0.001       32.256   0.100E-07
     TRS4 it   9 1.00000000   0.394E-13       0.001       32.256   0.100E-07
     Final TRS4 iteration    9 1.00000000   0.394E-13
     Chemical potential (mu):      -0.00550
 
 PAO| energy:  -7.6893095218008600      penalty:   1.8497999158566149E-005
 PAO|LS| adapt:  T F T
 PAO|LS| adapt: scan_steps:    0.0000000000000000        0.0000000000000000       0.48040608371236504     
 PAO|LS| adapt: energies:   -7.6922229524922017        0.0000000000000000       -7.6893095218008600     
 PAO| ======================= Iteration:         8 =============================

     Lanczos converged:  T threshold:   0.100E-02
     Est. extremal eigenvalues:    0.277E+01   0.172E+00
     Est. condition number :    0.161E+02

 Order=           3
     NS sqrt iter    1 1.00000000   0.700E+00       0.001       59.002
     NS sqrt iter    2 1.00000000   0.329E+00       0.017        6.434
     NS sqrt iter    3 1.00000000   0.781E-01       0.001      101.337
     NS sqrt iter    4 1.00000000   0.218E-02       0.001       98.179
     NS sqrt iter    5 1.00000000   0.107E-06       0.001       62.017
     Symmetrizing Results
     Final NS sqrt iter    5 1.00000000   0.713E-09

     Est. extremal eigenvalues     -0.91347     1.63226  converged:  T
     TRS4 it   1 1.00000000   0.874E+00       0.000       16.128   0.100E-07
     TRS4 it   2 1.00000000   0.607E+00       0.001       32.256   0.100E-07
     TRS4 it   3 1.00000000   0.413E+00       0.001       32.256   0.100E-07
     TRS4 it   4 1.00000000   0.214E+00       0.001       32.256   0.100E-07
     TRS4 it   5 1.00000000   0.707E-01       0.001       32.256   0.100E-07
     TRS4 it   6 1.00000000   0.910E-02       0.001       32.256   0.100E-07
     TRS4 it   7 1.00000000   0.185E-03       0.001       32.256   0.100E-07
     TRS4 it   8 1.00000000   0.103E-06       0.001       32.256   0.100E-07
     TRS4 it   9 1.00000000   0.435E-13       0.001       32.256   0.100E-07
     Final TRS4 iteration    9 1.00000000   0.435E-13
     Chemical potential (mu):      -0.00620
 
 PAO| energy:  -7.7120930644886938      penalty:   1.3386177758983755E-005
 PAO|LS| adapt:  T T T
 PAO|LS| adapt: scan_steps:    0.0000000000000000       0.24020304185618252       0.48040608371236504     
 PAO|LS| adapt: energies:   -7.6922229524922017       -7.7120930644886938       -7.6893095218008600     
 PAO|LS| adapt: suggested step_size:   0.23199958403437732     
 PAO|LS| adapt: predicted energy  -7.7121179394919501     
 PAO| ======================= Iteration:         9 =============================

     Lanczos converged:  T threshold:   0.100E-02
     Est. extremal eigenvalues:    0.277E+01   0.172E+00
     Est. condition number :    0.161E+02

 Order=           3
     NS sqrt iter    1 1.00000000   0.701E+00       0.001       56.822
     NS sqrt iter    2 1.00000000   0.329E+00       0.001       97.827
     NS sqrt iter    3 1.00000000   0.783E-01       0.001       99.235
     NS sqrt iter    4 1.00000000   0.220E-02       0.001       99.870
     NS sqrt iter    5 1.00000000   0.110E-06       0.001       63.346
     Symmetrizing Results
     Final NS sqrt iter    5 1.00000000   0.221E-08

     Est. extremal eigenvalues     -0.91344     1.63223  converged:  T
     TRS4 it   1 1.00000000   0.874E+00       0.000       16.128   0.100E-07
     TRS4 it   2 1.00000000   0.607E+00       0.001       32.256   0.100E-07
     TRS4 it   3 1.00000000   0.413E+00       0.001       32.256   0.100E-07
     TRS4 it   4 1.00000000   0.214E+00       0.001       32.256   0.100E-07
     TRS4 it   5 1.00000000   0.707E-01       0.001       32.256   0.100E-07
     TRS4 it   6 1.00000000   0.910E-02       0.001       32.256   0.100E-07
     TRS4 it   7 1.00000000   0.185E-03       0.001       32.256   0.100E-07
     TRS4 it   8 1.00000000   0.103E-06       0.001       32.256   0.100E-07
     TRS4 it   9 1.00000000   0.427E-13       0.001       32.256   0.100E-07
     Final TRS4 iteration    9 1.00000000   0.427E-13
     Chemical potential (mu):      -0.00621
 
 PAO| energy:  -7.7121293893245690      penalty:   1.3301642472510780E-005
 PAO|CG| trace_G_new    3.7769593719570851E-002
 PAO|CG| trace_G_prev   0.17330198250389448     
 PAO|CG| trace_G_mix   -1.3756922892036718E-003
 PAO|CG| trace_D   0.17330198250389448     
 PAO|CG| trace_D_Gnew   1.3756922892036718E-003
 PAO|CG| beta:   0.22587904329308434     
 PAO| norm of gradient:  0.19434400870510737     
 PAO| energy improvement:  -1.9906436832367369E-002
 PAO| step      9                   -7.712129389  0.121E-01  0.232E+00     0.123
 PAO|LS| adapt:  T F F
 PAO|LS| adapt: scan_steps:    0.0000000000000000        0.0000000000000000        0.0000000000000000     
 PAO|LS| adapt: energies:   -7.7121293893245690        0.0000000000000000        0.0000000000000000     
 PAO| ======================= Iteration:        10 =============================

     Lanczos converged:  T threshold:   0.100E-02
     Est. extremal eigenvalues:    0.274E+01   0.178E+00
     Est. condition number :    0.154E+02

 Order=           3
     NS sqrt iter    1 1.00000000   0.693E+00       0.001       57.030
     NS sqrt iter    2 1.00000000   0.320E+00       0.001       98.411
     NS sqrt iter    3 1.00000000   0.729E-01       0.001       98.542
     NS sqrt iter    4 1.00000000   0.180E-02       0.001      101.236
     NS sqrt iter    5 1.00000000   0.612E-07       0.001       60.134
     Symmetrizing Results
     Final NS sqrt iter    5 1.00000000   0.554E-09

     Est. extremal eigenvalues     -0.91431     1.63816  converged:  T
     TRS4 it   1 1.00000000   0.876E+00       0.000       16.128   0.100E-07
     TRS4 it   2 1.00000000   0.609E+00       0.001       32.256   0.100E-07
     TRS4 it   3 1.00000000   0.413E+00       0.001       32.256   0.100E-07
     TRS4 it   4 1.00000000   0.213E+00       0.001       32.256   0.100E-07
     TRS4 it   5 1.00000000   0.698E-01       0.001       32.256   0.100E-07
     TRS4 it   6 1.00000000   0.880E-02       0.001       32.256   0.100E-07
     TRS4 it   7 1.00000000   0.171E-03       0.001       32.256   0.100E-07
     TRS4 it   8 1.00000000   0.868E-07       0.001       32.256   0.100E-07
     TRS4 it   9 1.00000000   0.294E-13       0.001       32.256   0.100E-07
     Final TRS4 iteration    9 1.00000000   0.294E-13
     Chemical potential (mu):      -0.00361
 
 PAO| energy:  -7.7172392862374553      penalty:   1.3873833205652533E-005
 PAO|LS| adapt:  T T F
 PAO|LS| adapt: scan_steps:    0.0000000000000000       0.23199958403437732        0.0000000000000000     
 PAO|LS| adapt: energies:   -7.7121293893245690       -7.7172392862374553        0.0000000000000000     
 PAO| ======================= Iteration:        11 =============================

     Lanczos converged:  T threshold:   0.100E-02
     Est. extremal eigenvalues:    0.270E+01   0.183E+00
     Est. condition number :    0.147E+02

 Order=           3
     NS sqrt iter    1 1.00000000   0.685E+00       0.001       58.464
     NS sqrt iter    2 1.00000000   0.312E+00       0.001      100.422
     NS sqrt iter    3 1.00000000   0.676E-01       0.001       99.750
     NS sqrt iter    4 1.00000000   0.146E-02       0.001       98.602
     NS sqrt iter    5 1.00000000   0.331E-07       0.001       50.968
     Symmetrizing Results
     Final NS sqrt iter    5 1.00000000   0.504E-08

     Est. extremal eigenvalues     -0.91402     1.64477  converged:  T
     TRS4 it   1 1.00000000   0.878E+00       0.000       16.128   0.100E-07
     TRS4 it   2 1.00000000   0.610E+00       0.001       32.256   0.100E-07
     TRS4 it   3 1.00000000   0.414E+00       0.001       32.256   0.100E-07
     TRS4 it   4 1.00000000   0.212E+00       0.001       32.256   0.100E-07
     TRS4 it   5 1.00000000   0.688E-01       0.001       32.256   0.100E-07
     TRS4 it   6 1.00000000   0.850E-02       0.001       32.256   0.100E-07
     TRS4 it   7 1.00000000   0.157E-03       0.001       32.256   0.100E-07
     TRS4 it   8 1.00000000   0.723E-07       0.001       32.256   0.100E-07
     Final TRS4 iteration    8 1.00000000   0.723E-07
     Chemical potential (mu):      -0.00088
 
 PAO| energy:  -7.7154525956451190      penalty:   1.5143943057594012E-005
 PAO|LS| adapt:  T T T
 PAO|LS| adapt: scan_steps:    0.0000000000000000       0.23199958403437732       0.46399916806875463     
 PAO|LS| adapt: energies:   -7.7121293893245690       -7.7172392862374553       -7.7154525956451190     
 PAO|LS| adapt: suggested step_size:   0.28789552412389030     
 PAO|LS| adapt: predicted energy  -7.7174394522659542     
 PAO| ======================= Iteration:        12 =============================

     Lanczos converged:  T threshold:   0.100E-02
     Est. extremal eigenvalues:    0.273E+01   0.179E+00
     Est. condition number :    0.152E+02

 Order=           3
     NS sqrt iter    1 1.00000000   0.691E+00       0.001       57.969
     NS sqrt iter    2 1.00000000   0.318E+00       0.001       98.669
     NS sqrt iter    3 1.00000000   0.716E-01       0.001      100.947
     NS sqrt iter    4 1.00000000   0.171E-02       0.001       98.029
     NS sqrt iter    5 1.00000000   0.530E-07       0.001       60.658
     Symmetrizing Results
     Final NS sqrt iter    5 1.00000000   0.485E-09

     Est. extremal eigenvalues     -0.91434     1.63970  converged:  T
     TRS4 it   1 1.00000000   0.876E+00       0.000       16.128   0.100E-07
     TRS4 it   2 1.00000000   0.609E+00       0.001       32.256   0.100E-07
     TRS4 it   3 1.00000000   0.413E+00       0.001       32.256   0.100E-07
     TRS4 it   4 1.00000000   0.213E+00       0.001       32.256   0.100E-07
     TRS4 it   5 1.00000000   0.695E-01       0.001       32.256   0.100E-07
     TRS4 it   6 1.00000000   0.872E-02       0.001       32.256   0.100E-07
     TRS4 it   7 1.00000000   0.167E-03       0.001       32.256   0.100E-07
     TRS4 it   8 1.00000000   0.831E-07       0.001       32.256   0.100E-07
     TRS4 it   9 1.00000000   0.276E-13       0.001       32.256   0.100E-07
     Final TRS4 iteration    9 1.00000000   0.276E-13
     Chemical potential (mu):      -0.00297
 
 PAO| energy:  -7.7174241185771253      penalty:   1.4108650359049845E-005
 PAO|CG| trace_G_new    1.2394845254952366E-002
 PAO|CG| trace_G_prev    3.7769593719570851E-002
 PAO|CG| trace_G_mix   -5.1665768779408840E-004
 PAO|CG| trace_D    4.5990213356364974E-002
 PAO|CG| trace_D_Gnew   2.4137768964613390E-004
 PAO|CG| beta:   0.34184913501084807     
 PAO| norm of gradient:  0.11133213936214631     
 PAO| energy improvement:  -5.2947292525562517E-003
 PAO| step     12                   -7.717424119  0.696E-02  0.288E+00     0.058
 PAO|LS| adapt:  T F F
 PAO|LS| adapt: scan_steps:    0.0000000000000000        0.0000000000000000        0.0000000000000000     
 PAO|LS| adapt: energies:   -7.7174241185771253        0.0000000000000000        0.0000000000000000     
 PAO| ======================= Iteration:        13 =============================

     Lanczos converged:  T threshold:   0.100E-02
     Est. extremal eigenvalues:    0.270E+01   0.183E+00
     Est. condition number :    0.147E+02

 Order=           3
     NS sqrt iter    1 1.00000000   0.684E+00       0.001       58.626
     NS sqrt iter    2 1.00000000   0.311E+00       0.001       97.324
     NS sqrt iter    3 1.00000000   0.674E-01       0.001       99.159
     NS sqrt iter    4 1.00000000   0.145E-02       0.001      101.047
     NS sqrt iter    5 1.00000000   0.332E-07       0.001       52.069
     Symmetrizing Results
     Final NS sqrt iter    5 1.00000000   0.498E-08

     Est. extremal eigenvalues     -0.91482     1.63951  converged:  T
     TRS4 it   1 1.00000000   0.878E+00       0.000       16.128   0.100E-07
     TRS4 it   2 1.00000000   0.608E+00       0.001       32.256   0.100E-07
     TRS4 it   3 1.00000000   0.411E+00       0.001       32.256   0.100E-07
     TRS4 it   4 1.00000000   0.209E+00       0.001       32.256   0.100E-07
     TRS4 it   5 1.00000000   0.666E-01       0.001       32.256   0.100E-07
     TRS4 it   6 1.00000000   0.794E-02       0.001       32.256   0.100E-07
     TRS4 it   7 1.00000000   0.137E-03       0.001       32.256   0.100E-07
     TRS4 it   8 1.00000000   0.550E-07       0.001       32.256   0.100E-07
     Final TRS4 iteration    8 1.00000000   0.550E-07
     Chemical potential (mu):       0.00107
 
 PAO| energy:  -7.7195519139130306      penalty:   1.4445891390542993E-005
 PAO|LS| adapt:  T T F
 PAO|LS| adapt: scan_steps:    0.0000000000000000       0.28789552412389030        0.0000000000000000     
 PAO|LS| adapt: energies:   -7.7174241185771253       -7.7195519139130306        0.0000000000000000     
 PAO| ======================= Iteration:        14 =============================

     Lanczos converged:  T threshold:   0.100E-02
     Est. extremal eigenvalues:    0.266E+01   0.187E+00
     Est. condition number :    0.143E+02

 Order=           3
     NS sqrt iter    1 1.00000000   0.677E+00       0.001       59.086
     NS sqrt iter    2 1.00000000   0.304E+00       0.001       98.237
     NS sqrt iter    3 1.00000000   0.636E-01       0.001       98.998
     NS sqrt iter    4 1.00000000   0.124E-02       0.001      100.532
     NS sqrt iter    5 1.00000000   0.205E-07       0.001       45.522
     Symmetrizing Results
     Final NS sqrt iter    5 1.00000000   0.520E-08

     Est. extremal eigenvalues     -0.91477     1.63928  converged:  T
     TRS4 it   1 1.00000000   0.880E+00       0.000       16.128   0.100E-07
     TRS4 it   2 1.00000000   0.606E+00       0.001       32.256   0.100E-07
     TRS4 it   3 1.00000000   0.408E+00       0.001       32.256   0.100E-07
     TRS4 it   4 1.00000000   0.205E+00       0.001       32.256   0.100E-07
     TRS4 it   5 1.00000000   0.637E-01       0.001       32.256   0.100E-07
     TRS4 it   6 1.00000000   0.723E-02       0.001       32.256   0.100E-07
     TRS4 it   7 1.00000000   0.112E-03       0.001       32.256   0.100E-07
     TRS4 it   8 1.00000000   0.365E-07       0.001       32.256   0.100E-07
     Final TRS4 iteration    8 1.00000000   0.365E-07
     Chemical potential (mu):       0.00476
 
 PAO| energy:  -7.7188971275331699      penalty:   1.5264162901044625E-005
 PAO|LS| adapt:  T T T
 PAO|LS| adapt: scan_steps:    0.0000000000000000       0.28789552412389030       0.57579104824778060     
 PAO|LS| adapt: energies:   -7.7174241185771253       -7.7195519139130306       -7.7188971275331699     
 PAO|LS| adapt: suggested step_size:   0.36409682362874657     
 PAO|LS| adapt: predicted energy  -7.7196493843382612     
 PAO| ======================= Iteration:        15 =============================

     Lanczos converged:  T threshold:   0.100E-02
     Est. extremal eigenvalues:    0.269E+01   0.184E+00
     Est. condition number :    0.146E+02

 Order=           3
     NS sqrt iter    1 1.00000000   0.682E+00       0.001       59.278
     NS sqrt iter    2 1.00000000   0.310E+00       0.001       98.574
     NS sqrt iter    3 1.00000000   0.664E-01       0.001      101.187
     NS sqrt iter    4 1.00000000   0.139E-02       0.001      100.264
     NS sqrt iter    5 1.00000000   0.294E-07       0.001       50.936
     Symmetrizing Results
     Final NS sqrt iter    5 1.00000000   0.447E-08

     Est. extremal eigenvalues     -0.91486     1.63946  converged:  T
     TRS4 it   1 1.00000000   0.878E+00       0.000       16.128   0.100E-07
     TRS4 it   2 1.00000000   0.607E+00       0.001       32.256   0.100E-07
     TRS4 it   3 1.00000000   0.410E+00       0.001       32.256   0.100E-07
     TRS4 it   4 1.00000000   0.208E+00       0.001       32.256   0.100E-07
     TRS4 it   5 1.00000000   0.658E-01       0.001       32.256   0.100E-07
     TRS4 it   6 1.00000000   0.774E-02       0.001       32.256   0.100E-07
     TRS4 it   7 1.00000000   0.130E-03       0.001       32.256   0.100E-07
     TRS4 it   8 1.00000000   0.494E-07       0.001       32.256   0.100E-07
     Final TRS4 iteration    8 1.00000000   0.494E-07
     Chemical potential (mu):       0.00206
 
 PAO| energy:  -7.7196462415559894      penalty:   1.4612416496320205E-005
 PAO|CG| trace_G_new    2.5775291781636135E-003
 PAO|CG| trace_G_prev    1.2394845254952366E-002
 PAO|CG| trace_G_mix    9.0472378387825424E-005
 PAO|CG| trace_D    1.7604270301763120E-002
 PAO|CG| trace_D_Gnew   3.5210230988135706E-005
 PAO|CG| beta:   0.20065250905670512     
 PAO| norm of gradient:   5.0769372442089664E-002
 PAO| energy improvement:  -2.2221229788641494E-003
 PAO| step     15                   -7.719646242  0.317E-02  0.364E+00     0.056
 PAO|LS| adapt:  T F F
 PAO|LS| adapt: scan_steps:    0.0000000000000000        0.0000000000000000        0.0000000000000000     
 PAO|LS| adapt: energies:   -7.7196462415559894        0.0000000000000000        0.0000000000000000     
 PAO| ======================= Iteration:        16 =============================

     Lanczos converged:  T threshold:   0.100E-02
     Est. extremal eigenvalues:    0.268E+01   0.184E+00
     Est. condition number :    0.145E+02

 Order=           3
     NS sqrt iter    1 1.00000000   0.680E+00       0.001       58.899
     NS sqrt iter    2 1.00000000   0.308E+00       0.001       99.506
     NS sqrt iter    3 1.00000000   0.659E-01       0.001      100.396
     NS sqrt iter    4 1.00000000   0.136E-02       0.001       98.627
     NS sqrt iter    5 1.00000000   0.272E-07       0.001       50.866
     Symmetrizing Results
     Final NS sqrt iter    5 1.00000000   0.376E-08

     Est. extremal eigenvalues     -0.91488     1.64055  converged:  T
     TRS4 it   1 1.00000000   0.879E+00       0.000       16.128   0.100E-07
     TRS4 it   2 1.00000000   0.607E+00       0.001       32.256   0.100E-07
     TRS4 it   3 1.00000000   0.409E+00       0.001       32.256   0.100E-07
     TRS4 it   4 1.00000000   0.206E+00       0.001       32.256   0.100E-07
     TRS4 it   5 1.00000000   0.649E-01       0.001       32.256   0.100E-07
     TRS4 it   6 1.00000000   0.755E-02       0.001       32.256   0.100E-07
     TRS4 it   7 1.00000000   0.124E-03       0.001       32.256   0.100E-07
     TRS4 it   8 1.00000000   0.455E-07       0.001       32.256   0.100E-07
     Final TRS4 iteration    8 1.00000000   0.455E-07
     Chemical potential (mu):       0.00284
 
 PAO| energy:  -7.7197938954705831      penalty:   1.4409430783431562E-005
 PAO|LS| adapt:  T T F
 PAO|LS| adapt: scan_steps:    0.0000000000000000       0.36409682362874657        0.0000000000000000     
 PAO|LS| adapt: energies:   -7.7196462415559894       -7.7197938954705831        0.0000000000000000     
 PAO| ======================= Iteration:        17 =============================

     Lanczos converged:  T threshold:   0.100E-02
     Est. extremal eigenvalues:    0.267E+01   0.185E+00
     Est. condition number :    0.144E+02

 Order=           3
     NS sqrt iter    1 1.00000000   0.679E+00       0.001       58.667
     NS sqrt iter    2 1.00000000   0.307E+00       0.017        6.444
     NS sqrt iter    3 1.00000000   0.654E-01       0.001       98.102
     NS sqrt iter    4 1.00000000   0.133E-02       0.001       99.314
     NS sqrt iter    5 1.00000000   0.250E-07       0.001       48.900
     Symmetrizing Results
     Final NS sqrt iter    5 1.00000000   0.387E-08

     Est. extremal eigenvalues     -0.91477     1.64173  converged:  T
     TRS4 it   1 1.00000000   0.880E+00       0.000       16.128   0.100E-07
     TRS4 it   2 1.00000000   0.607E+00       0.001       32.256   0.100E-07
     TRS4 it   3 1.00000000   0.408E+00       0.001       32.256   0.100E-07
     TRS4 it   4 1.00000000   0.205E+00       0.001       32.256   0.100E-07
     TRS4 it   5 1.00000000   0.640E-01       0.001       32.256   0.100E-07
     TRS4 it   6 1.00000000   0.736E-02       0.001       32.256   0.100E-07
     TRS4 it   7 1.00000000   0.119E-03       0.001       32.256   0.100E-07
     TRS4 it   8 1.00000000   0.420E-07       0.001       32.256   0.100E-07
     Final TRS4 iteration    8 1.00000000   0.420E-07
     Chemical potential (mu):       0.00360
 
 PAO| energy:  -7.7183592797973670      penalty:   1.4318741475279000E-005
 PAO|LS| adapt:  T T T
 PAO|LS| adapt: scan_steps:    0.0000000000000000       0.36409682362874657       0.72819364725749314     
 PAO|LS| adapt: energies:   -7.7196462415559894       -7.7197938954705831       -7.7183592797973670     
 PAO|LS| adapt: suggested step_size:   0.21602512584218489     
 PAO|LS| adapt: predicted energy  -7.7199247415808898     
 PAO| ======================= Iteration:        18 =============================

     Lanczos converged:  T threshold:   0.100E-02
     Est. extremal eigenvalues:    0.268E+01   0.184E+00
     Est. condition number :    0.146E+02

 Order=           3
     NS sqrt iter    1 1.00000000   0.681E+00       0.001       58.762
     NS sqrt iter    2 1.00000000   0.309E+00       0.017        6.428
     NS sqrt iter    3 1.00000000   0.661E-01       0.001       97.688
     NS sqrt iter    4 1.00000000   0.137E-02       0.001       98.537
     NS sqrt iter    5 1.00000000   0.281E-07       0.001       50.664
     Symmetrizing Results
     Final NS sqrt iter    5 1.00000000   0.386E-08

     Est. extremal eigenvalues     -0.91489     1.64009  converged:  T
     TRS4 it   1 1.00000000   0.879E+00       0.000       16.128   0.100E-07
     TRS4 it   2 1.00000000   0.607E+00       0.001       32.256   0.100E-07
     TRS4 it   3 1.00000000   0.409E+00       0.001       32.256   0.100E-07
     TRS4 it   4 1.00000000   0.207E+00       0.001       32.256   0.100E-07
     TRS4 it   5 1.00000000   0.653E-01       0.001       32.256   0.100E-07
     TRS4 it   6 1.00000000   0.763E-02       0.001       32.256   0.100E-07
     TRS4 it   7 1.00000000   0.126E-03       0.001       32.256   0.100E-07
     TRS4 it   8 1.00000000   0.470E-07       0.001       32.256   0.100E-07
     Final TRS4 iteration    8 1.00000000   0.470E-07
     Chemical potential (mu):       0.00252
 
 PAO| energy:  -7.7199242735857680      penalty:   1.4478670878418895E-005
 PAO|CG| trace_G_new    7.6560055682818964E-004
 PAO|CG| trace_G_prev    2.5775291781636135E-003
 PAO|CG| trace_G_mix    2.0420737151320401E-006
 PAO|CG| trace_D    3.2721722215092752E-003
 PAO|CG| trace_D_Gnew  -1.9887770357711322E-006
 PAO|CG| beta:   0.29623660115345912     
 PAO| norm of gradient:   2.7669487830969869E-002
 PAO| energy improvement:  -2.7803202977860764E-004
 PAO| step     18                   -7.719924274  0.173E-02  0.216E+00     0.104
 PAO|LS| adapt:  T F F
 PAO|LS| adapt: scan_steps:    0.0000000000000000        0.0000000000000000        0.0000000000000000     
 PAO|LS| adapt: energies:   -7.7199242735857680        0.0000000000000000        0.0000000000000000     
 PAO| ======================= Iteration:        19 =============================

     Lanczos converged:  T threshold:   0.100E-02
     Est. extremal eigenvalues:    0.268E+01   0.184E+00
     Est. condition number :    0.146E+02

 Order=           3
     NS sqrt iter    1 1.00000000   0.681E+00       0.001       58.761
     NS sqrt iter    2 1.00000000   0.309E+00       0.001       99.496
     NS sqrt iter    3 1.00000000   0.663E-01       0.001       98.475
     NS sqrt iter    4 1.00000000   0.138E-02       0.001       99.716
     NS sqrt iter    5 1.00000000   0.283E-07       0.001       52.400
     Symmetrizing Results
     Final NS sqrt iter    5 1.00000000   0.391E-08

     Est. extremal eigenvalues     -0.91489     1.64053  converged:  T
     TRS4 it   1 1.00000000   0.879E+00       0.000       16.128   0.100E-07
     TRS4 it   2 1.00000000   0.607E+00       0.001       32.256   0.100E-07
     TRS4 it   3 1.00000000   0.409E+00       0.017        1.930   0.100E-07
     TRS4 it   4 1.00000000   0.207E+00       0.001       32.256   0.100E-07
     TRS4 it   5 1.00000000   0.652E-01       0.001       32.256   0.100E-07
     TRS4 it   6 1.00000000   0.763E-02       0.001       32.256   0.100E-07
     TRS4 it   7 1.00000000   0.127E-03       0.001       32.256   0.100E-07
     TRS4 it   8 1.00000000   0.479E-07       0.001       32.256   0.100E-07
     Final TRS4 iteration    8 1.00000000   0.479E-07
     Chemical potential (mu):       0.00235
 
 PAO| energy:  -7.7200482226395923      penalty:   1.4196275647683623E-005
 PAO|LS| adapt:  T T F
 PAO|LS| adapt: scan_steps:    0.0000000000000000       0.21602512584218489        0.0000000000000000     
 PAO|LS| adapt: energies:   -7.7199242735857680       -7.7200482226395923        0.0000000000000000     
 PAO| ======================= Iteration:        20 =============================

     Lanczos converged:  T threshold:   0.100E-02
     Est. extremal eigenvalues:    0.268E+01   0.184E+00
     Est. condition number :    0.146E+02

 Order=           3
     NS sqrt iter    1 1.00000000   0.681E+00       0.001       58.151
     NS sqrt iter    2 1.00000000   0.309E+00       0.001       98.354
     NS sqrt iter    3 1.00000000   0.665E-01       0.001      101.127
     NS sqrt iter    4 1.00000000   0.139E-02       0.001      101.543
     NS sqrt iter    5 1.00000000   0.286E-07       0.001       51.976
     Symmetrizing Results
     Final NS sqrt iter    5 1.00000000   0.446E-08

     Est. extremal eigenvalues     -0.91488     1.64098  converged:  T
     TRS4 it   1 1.00000000   0.879E+00       0.000       16.128   0.100E-07
     TRS4 it   2 1.00000000   0.607E+00       0.017        1.923   0.100E-07
     TRS4 it   3 1.00000000   0.409E+00       0.001       32.256   0.100E-07
     TRS4 it   4 1.00000000   0.207E+00       0.001       32.256   0.100E-07
     TRS4 it   5 1.00000000   0.651E-01       0.001       32.256   0.100E-07
     TRS4 it   6 1.00000000   0.763E-02       0.001       32.256   0.100E-07
     TRS4 it   7 1.00000000   0.128E-03       0.001       32.256   0.100E-07
     TRS4 it   8 1.00000000   0.488E-07       0.001       32.256   0.100E-07
     Final TRS4 iteration    8 1.00000000   0.488E-07
     Chemical potential (mu):       0.00218
 
 PAO| energy:  -7.7200885715123091      penalty:   1.3927009662114356E-005
 PAO|LS| adapt:  T T F
 PAO|LS| adapt: scan_steps:    0.0000000000000000       0.43205025168436978        0.0000000000000000     
 PAO|LS| adapt: energies:   -7.7199242735857680       -7.7200885715123091        0.0000000000000000     
 PAO| ======================= Iteration:        21 =============================

     Lanczos converged:  T threshold:   0.100E-02
     Est. extremal eigenvalues:    0.268E+01   0.184E+00
     Est. condition number :    0.146E+02

 Order=           3
     NS sqrt iter    1 1.00000000   0.681E+00       0.001       58.860
     NS sqrt iter    2 1.00000000   0.310E+00       0.001       99.200
     NS sqrt iter    3 1.00000000   0.670E-01       0.001       98.122
     NS sqrt iter    4 1.00000000   0.141E-02       0.001      100.486
     NS sqrt iter    5 1.00000000   0.293E-07       0.001       52.297
     Symmetrizing Results
     Final NS sqrt iter    5 1.00000000   0.466E-08

     Est. extremal eigenvalues     -0.91487     1.64188  converged:  T
     TRS4 it   1 1.00000000   0.879E+00       0.000       16.128   0.100E-07
     TRS4 it   2 1.00000000   0.607E+00       0.001       32.256   0.100E-07
     TRS4 it   3 1.00000000   0.409E+00       0.001       32.256   0.100E-07
     TRS4 it   4 1.00000000   0.206E+00       0.001       32.256   0.100E-07
     TRS4 it   5 1.00000000   0.650E-01       0.001       32.256   0.100E-07
     TRS4 it   6 1.00000000   0.764E-02       0.001       32.256   0.100E-07
     TRS4 it   7 1.00000000   0.130E-03       0.001       32.256   0.100E-07
     TRS4 it   8 1.00000000   0.507E-07       0.001       32.256   0.100E-07
     Final TRS4 iteration    8 1.00000000   0.507E-07
     Chemical potential (mu):       0.00183
 
 PAO| energy:  -7.7199156270598221      penalty:   1.3427327761933886E-005
 PAO|LS| Need extra step
 PAO|LS| adapt:  T T T
 PAO|LS| adapt: scan_steps:    0.0000000000000000       0.43205025168436978       0.86410050336873956     
 PAO|LS| adapt: energies:   -7.7199242735857680       -7.7200885715123091       -7.7199156270598221     
 PAO|LS| adapt: suggested step_size:   0.42651160360299833     
 PAO|LS| adapt: predicted energy  -7.7200885992232431     
 PAO| ======================= Iteration:        22 =============================

     Lanczos converged:  T threshold:   0.100E-02
     Est. extremal eigenvalues:    0.268E+01   0.184E+00
     Est. condition number :    0.146E+02

 Order=           3
     NS sqrt iter    1 1.00000000   0.681E+00       0.001       59.061
     NS sqrt iter    2 1.00000000   0.309E+00       0.001       99.788
     NS sqrt iter    3 1.00000000   0.665E-01       0.001       99.736
     NS sqrt iter    4 1.00000000   0.139E-02       0.001       98.015
     NS sqrt iter    5 1.00000000   0.286E-07       0.001       51.432
     Symmetrizing Results
     Final NS sqrt iter    5 1.00000000   0.446E-08

     Est. extremal eigenvalues     -0.91488     1.64097  converged:  T
     TRS4 it   1 1.00000000   0.879E+00       0.000       16.128   0.100E-07
     TRS4 it   2 1.00000000   0.607E+00       0.001       32.256   0.100E-07
     TRS4 it   3 1.00000000   0.409E+00       0.001       32.256   0.100E-07
     TRS4 it   4 1.00000000   0.207E+00       0.001       32.256   0.100E-07
     TRS4 it   5 1.00000000   0.651E-01       0.001       32.256   0.100E-07
     TRS4 it   6 1.00000000   0.763E-02       0.001       32.256   0.100E-07
     TRS4 it   7 1.00000000   0.128E-03       0.001       32.256   0.100E-07
     TRS4 it   8 1.00000000   0.488E-07       0.001       32.256   0.100E-07
     Final TRS4 iteration    8 1.00000000   0.488E-07
     Chemical potential (mu):       0.00219
 
 PAO| energy:  -7.7200885870889104      penalty:   1.3933750811989465E-005
 PAO|CG| trace_G_new    2.1591296964588284E-004
 PAO|CG| trace_G_prev    7.6560055682818964E-004
 PAO|CG| trace_G_mix    3.4997171997518048E-006
 PAO|CG| trace_D    1.0539320046989316E-003
 PAO|CG| trace_D_Gnew  -2.1961862641964345E-006
 PAO|CG| beta:   0.27744657517771271     
 PAO| norm of gradient:   1.4693977325621638E-002
 PAO| energy improvement:  -1.6431350314238813E-004
 PAO| step     22                   -7.720088587  0.918E-03  0.427E+00     0.105
 PAO|LS| adapt:  T F F
 PAO|LS| adapt: scan_steps:    0.0000000000000000        0.0000000000000000        0.0000000000000000     
 PAO|LS| adapt: energies:   -7.7200885870889104        0.0000000000000000        0.0000000000000000     
 PAO| ======================= Iteration:        23 =============================

     Lanczos converged:  T threshold:   0.100E-02
     Est. extremal eigenvalues:    0.268E+01   0.184E+00
     Est. condition number :    0.146E+02

 Order=           3
     NS sqrt iter    1 1.00000000   0.681E+00       0.001       59.562
     NS sqrt iter    2 1.00000000   0.309E+00       0.001       98.729
     NS sqrt iter    3 1.00000000   0.665E-01       0.001       98.920
     NS sqrt iter    4 1.00000000   0.139E-02       0.001       98.980
     NS sqrt iter    5 1.00000000   0.284E-07       0.001       50.127
     Symmetrizing Results
     Final NS sqrt iter    5 1.00000000   0.448E-08

     Est. extremal eigenvalues     -0.91488     1.64114  converged:  T
     TRS4 it   1 1.00000000   0.879E+00       0.000       16.128   0.100E-07
     TRS4 it   2 1.00000000   0.607E+00       0.001       32.256   0.100E-07
     TRS4 it   3 1.00000000   0.409E+00       0.001       32.256   0.100E-07
     TRS4 it   4 1.00000000   0.207E+00       0.001       32.256   0.100E-07
     TRS4 it   5 1.00000000   0.653E-01       0.001       32.256   0.100E-07
     TRS4 it   6 1.00000000   0.767E-02       0.001       32.256   0.100E-07
     TRS4 it   7 1.00000000   0.130E-03       0.001       32.256   0.100E-07
     TRS4 it   8 1.00000000   0.503E-07       0.001       32.256   0.100E-07
     Final TRS4 iteration    8 1.00000000   0.503E-07
     Chemical potential (mu):       0.00192
 
 PAO| energy:  -7.7201314246701251      penalty:   1.3317009869090238E-005
 PAO|LS| adapt:  T T F
 PAO|LS| adapt: scan_steps:    0.0000000000000000       0.42651160360299833        0.0000000000000000     
 PAO|LS| adapt: energies:   -7.7200885870889104       -7.7201314246701251        0.0000000000000000     
 PAO| ======================= Iteration:        24 =============================

     Lanczos converged:  T threshold:   0.100E-02
     Est. extremal eigenvalues:    0.268E+01   0.184E+00
     Est. condition number :    0.146E+02

 Order=           3
     NS sqrt iter    1 1.00000000   0.681E+00       0.001       58.332
     NS sqrt iter    2 1.00000000   0.309E+00       0.001      102.038
     NS sqrt iter    3 1.00000000   0.666E-01       0.001       98.773
     NS sqrt iter    4 1.00000000   0.139E-02       0.001       99.571
     NS sqrt iter    5 1.00000000   0.283E-07       0.001       50.976
     Symmetrizing Results
     Final NS sqrt iter    5 1.00000000   0.448E-08

     Est. extremal eigenvalues     -0.91488     1.64131  converged:  T
     TRS4 it   1 1.00000000   0.879E+00       0.000       16.128   0.100E-07
     TRS4 it   2 1.00000000   0.607E+00       0.001       32.256   0.100E-07
     TRS4 it   3 1.00000000   0.410E+00       0.001       32.256   0.100E-07
     TRS4 it   4 1.00000000   0.207E+00       0.001       32.256   0.100E-07
     TRS4 it   5 1.00000000   0.654E-01       0.001       32.256   0.100E-07
     TRS4 it   6 1.00000000   0.772E-02       0.001       32.256   0.100E-07
     TRS4 it   7 1.00000000   0.132E-03       0.001       32.256   0.100E-07
     TRS4 it   8 1.00000000   0.518E-07       0.001       32.256   0.100E-07
     Final TRS4 iteration    8 1.00000000   0.518E-07
     Chemical potential (mu):       0.00166
 
 PAO| energy:  -7.7200747129308356      penalty:   1.2723868953651262E-005
 PAO|LS| adapt:  T T T
 PAO|LS| adapt: scan_steps:    0.0000000000000000       0.42651160360299833       0.85302320720599667     
 PAO|LS| adapt: energies:   -7.7200885870889104       -7.7201314246701251       -7.7200747129308356     
 PAO|LS| adapt: suggested step_size:   0.39679020832288364     
 PAO|LS| adapt: predicted energy  -7.7201316663747654     
 PAO| ======================= Iteration:        25 =============================

     Lanczos converged:  T threshold:   0.100E-02
     Est. extremal eigenvalues:    0.268E+01   0.184E+00
     Est. condition number :    0.146E+02

 Order=           3
     NS sqrt iter    1 1.00000000   0.681E+00       0.001       58.995
     NS sqrt iter    2 1.00000000   0.309E+00       0.001       98.292
     NS sqrt iter    3 1.00000000   0.665E-01       0.001       98.805
     NS sqrt iter    4 1.00000000   0.139E-02       0.001       98.139
     NS sqrt iter    5 1.00000000   0.285E-07       0.001       51.471
     Symmetrizing Results
     Final NS sqrt iter    5 1.00000000   0.448E-08

     Est. extremal eigenvalues     -0.91488     1.64112  converged:  T
     TRS4 it   1 1.00000000   0.879E+00       0.000       16.128   0.100E-07
     TRS4 it   2 1.00000000   0.607E+00       0.001       32.256   0.100E-07
     TRS4 it   3 1.00000000   0.409E+00       0.001       32.256   0.100E-07
     TRS4 it   4 1.00000000   0.207E+00       0.001       32.256   0.100E-07
     TRS4 it   5 1.00000000   0.653E-01       0.001       32.256   0.100E-07
     TRS4 it   6 1.00000000   0.767E-02       0.001       32.256   0.100E-07
     TRS4 it   7 1.00000000   0.130E-03       0.001       32.256   0.100E-07
     TRS4 it   8 1.00000000   0.502E-07       0.001       32.256   0.100E-07
     Final TRS4 iteration    8 1.00000000   0.502E-07
     Chemical potential (mu):       0.00194
 
 PAO| energy:  -7.7201316571910397      penalty:   1.3359217154308951E-005
 PAO|CG| trace_G_new    6.4262379112142330E-005
 PAO|CG| trace_G_prev    2.1591296964588284E-004
 PAO|CG| trace_G_mix    4.0944882357650293E-007
 PAO|CG| trace_D    2.9825972290360226E-004
 PAO|CG| trace_D_Gnew  -3.1102245598056504E-007
 PAO|CG| beta:   0.29573457487658344     
 PAO| norm of gradient:   8.0163819215492930E-003
 PAO| energy improvement:  -4.3070102129227905E-005
 PAO| step     25                   -7.720131657  0.501E-03  0.397E+00     0.056
 PAO|LS| adapt:  T F F
 PAO|LS| adapt: scan_steps:    0.0000000000000000        0.0000000000000000        0.0000000000000000     
 PAO|LS| adapt: energies:   -7.7201316571910397        0.0000000000000000        0.0000000000000000     
 PAO| ======================= Iteration:        26 =============================

     Lanczos converged:  T threshold:   0.100E-02
     Est. extremal eigenvalues:    0.268E+01   0.184E+00
     Est. condition number :    0.146E+02

 Order=           3
     NS sqrt iter    1 1.00000000   0.681E+00       0.001       59.494
     NS sqrt iter    2 1.00000000   0.309E+00       0.001       98.227
     NS sqrt iter    3 1.00000000   0.664E-01       0.001       98.568
     NS sqrt iter    4 1.00000000   0.138E-02       0.001       99.243
     NS sqrt iter    5 1.00000000   0.282E-07       0.001       51.972
     Symmetrizing Results
     Final NS sqrt iter    5 1.00000000   0.395E-08

     Est. extremal eigenvalues     -0.91489     1.64093  converged:  T
     TRS4 it   1 1.00000000   0.879E+00       0.000       16.128   0.100E-07
     TRS4 it   2 1.00000000   0.607E+00       0.001       32.256   0.100E-07
     TRS4 it   3 1.00000000   0.409E+00       0.001       32.256   0.100E-07
     TRS4 it   4 1.00000000   0.207E+00       0.001       32.256   0.100E-07
     TRS4 it   5 1.00000000   0.652E-01       0.001       32.256   0.100E-07
     TRS4 it   6 1.00000000   0.766E-02       0.001       32.256   0.100E-07
     TRS4 it   7 1.00000000   0.129E-03       0.001       32.256   0.100E-07
     TRS4 it   8 1.00000000   0.498E-07       0.001       32.256   0.100E-07
     Final TRS4 iteration    8 1.00000000   0.498E-07
     Chemical potential (mu):       0.00199
 
 PAO| energy:  -7.7201361744384789      penalty:   1.2768112673888313E-005
 PAO|LS| adapt:  T T F
 PAO|LS| adapt: scan_steps:    0.0000000000000000       0.39679020832288364        0.0000000000000000     
 PAO|LS| adapt: energies:   -7.7201316571910397       -7.7201361744384789        0.0000000000000000     
 PAO| ======================= Iteration:        27 =============================

     Lanczos converged:  T threshold:   0.100E-02
     Est. extremal eigenvalues:    0.268E+01   0.184E+00
     Est. condition number :    0.145E+02

 Order=           3
     NS sqrt iter    1 1.00000000   0.680E+00       0.001       58.588
     NS sqrt iter    2 1.00000000   0.309E+00       0.001      100.084
     NS sqrt iter    3 1.00000000   0.663E-01       0.001      101.849
     NS sqrt iter    4 1.00000000   0.138E-02       0.001       98.605
     NS sqrt iter    5 1.00000000   0.279E-07       0.001       51.294
     Symmetrizing Results
     Final NS sqrt iter    5 1.00000000   0.393E-08

     Est. extremal eigenvalues     -0.91489     1.64074  converged:  T
     TRS4 it   1 1.00000000   0.879E+00       0.000       16.128   0.100E-07
     TRS4 it   2 1.00000000   0.607E+00       0.001       32.256   0.100E-07
     TRS4 it   3 1.00000000   0.409E+00       0.001       32.256   0.100E-07
     TRS4 it   4 1.00000000   0.207E+00       0.001       32.256   0.100E-07
     TRS4 it   5 1.00000000   0.652E-01       0.001       32.256   0.100E-07
     TRS4 it   6 1.00000000   0.765E-02       0.001       32.256   0.100E-07
     TRS4 it   7 1.00000000   0.129E-03       0.001       32.256   0.100E-07
     TRS4 it   8 1.00000000   0.494E-07       0.001       32.256   0.100E-07
     Final TRS4 iteration    8 1.00000000   0.494E-07
     Chemical potential (mu):       0.00205
 
 PAO| energy:  -7.7200985956742292      penalty:   1.2192535307403301E-005
 PAO|LS| adapt:  T T T
 PAO|LS| adapt: scan_steps:    0.0000000000000000       0.39679020832288364       0.79358041664576728     
 PAO|LS| adapt: energies:   -7.7201316571910397       -7.7201361744384789       -7.7200985956742292     
 PAO|LS| adapt: suggested step_size:   0.24097394905768918     
 PAO|LS| adapt: predicted energy  -7.7201394201850766     
 PAO| ======================= Iteration:        28 =============================

     Lanczos converged:  T threshold:   0.100E-02
     Est. extremal eigenvalues:    0.268E+01   0.184E+00
     Est. condition number :    0.146E+02

 Order=           3
     NS sqrt iter    1 1.00000000   0.681E+00       0.001       59.557
     NS sqrt iter    2 1.00000000   0.309E+00       0.001       97.804
     NS sqrt iter    3 1.00000000   0.665E-01       0.001       98.512
     NS sqrt iter    4 1.00000000   0.138E-02       0.001       97.960
     NS sqrt iter    5 1.00000000   0.283E-07       0.001       51.140
     Symmetrizing Results
     Final NS sqrt iter    5 1.00000000   0.396E-08

     Est. extremal eigenvalues     -0.91488     1.64101  converged:  T
     TRS4 it   1 1.00000000   0.879E+00       0.000       16.128   0.100E-07
     TRS4 it   2 1.00000000   0.607E+00       0.001       32.256   0.100E-07
     TRS4 it   3 1.00000000   0.409E+00       0.001       32.256   0.100E-07
     TRS4 it   4 1.00000000   0.207E+00       0.001       32.256   0.100E-07
     TRS4 it   5 1.00000000   0.652E-01       0.001       32.256   0.100E-07
     TRS4 it   6 1.00000000   0.766E-02       0.001       32.256   0.100E-07
     TRS4 it   7 1.00000000   0.129E-03       0.001       32.256   0.100E-07
     TRS4 it   8 1.00000000   0.499E-07       0.001       32.256   0.100E-07
     Final TRS4 iteration    8 1.00000000   0.499E-07
     Chemical potential (mu):       0.00197
 
 PAO| energy:  -7.7201394153505651      penalty:   1.2998375523169286E-005
 PAO|CG| trace_G_new    1.6904173829295599E-005
 PAO|CG| trace_G_prev    6.4262379112142330E-005
 PAO|CG| trace_G_mix    3.2437746426535531E-008
 PAO|CG| trace_D    9.0531818144935728E-005
 PAO|CG| trace_D_Gnew  -1.8595527381737945E-008
 PAO|CG| beta:   0.26254452941162837     
 PAO| norm of gradient:   4.1114685733075473E-003
 PAO| energy improvement:  -7.7581595254727631E-006
 PAO| step     28                   -7.720139415  0.257E-03  0.241E+00     0.072
 PAO|LS| adapt:  T F F
 PAO|LS| adapt: scan_steps:    0.0000000000000000        0.0000000000000000        0.0000000000000000     
 PAO|LS| adapt: energies:   -7.7201394153505651        0.0000000000000000        0.0000000000000000     
 PAO| ======================= Iteration:        29 =============================

     Lanczos converged:  T threshold:   0.100E-02
     Est. extremal eigenvalues:    0.268E+01   0.184E+00
     Est. condition number :    0.146E+02

 Order=           3
     NS sqrt iter    1 1.00000000   0.681E+00       0.001       58.272
     NS sqrt iter    2 1.00000000   0.309E+00       0.001       98.781
     NS sqrt iter    3 1.00000000   0.664E-01       0.001      100.971
     NS sqrt iter    4 1.00000000   0.138E-02       0.001       99.322
     NS sqrt iter    5 1.00000000   0.282E-07       0.001       51.343
     Symmetrizing Results
     Final NS sqrt iter    5 1.00000000   0.395E-08

     Est. extremal eigenvalues     -0.91489     1.64100  converged:  T
     TRS4 it   1 1.00000000   0.879E+00       0.016        0.981   0.100E-07
     TRS4 it   2 1.00000000   0.607E+00       0.001       32.256   0.100E-07
     TRS4 it   3 1.00000000   0.409E+00       0.001       32.256   0.100E-07
     TRS4 it   4 1.00000000   0.207E+00       0.001       32.256   0.100E-07
     TRS4 it   5 1.00000000   0.652E-01       0.001       32.256   0.100E-07
     TRS4 it   6 1.00000000   0.765E-02       0.001       32.256   0.100E-07
     TRS4 it   7 1.00000000   0.129E-03       0.001       32.256   0.100E-07
     TRS4 it   8 1.00000000   0.495E-07       0.001       32.256   0.100E-07
     Final TRS4 iteration    8 1.00000000   0.495E-07
     Chemical potential (mu):       0.00205
 
 PAO| energy:  -7.7201429213386188      penalty:   1.2651670365057793E-005
 PAO|LS| adapt:  T T F
 PAO|LS| adapt: scan_steps:    0.0000000000000000       0.24097394905768918        0.0000000000000000     
 PAO|LS| adapt: energies:   -7.7201394153505651       -7.7201429213386188        0.0000000000000000     
 PAO| ======================= Iteration:        30 =============================

     Lanczos converged:  T threshold:   0.100E-02
     Est. extremal eigenvalues:    0.268E+01   0.184E+00
     Est. condition number :    0.146E+02

 Order=           3
     NS sqrt iter    1 1.00000000   0.680E+00       0.001       58.516
     NS sqrt iter    2 1.00000000   0.309E+00       0.001       98.528
     NS sqrt iter    3 1.00000000   0.664E-01       0.001       99.847
     NS sqrt iter    4 1.00000000   0.138E-02       0.001       99.755
     NS sqrt iter    5 1.00000000   0.282E-07       0.001       51.138
     Symmetrizing Results
     Final NS sqrt iter    5 1.00000000   0.394E-08

     Est. extremal eigenvalues     -0.91489     1.64100  converged:  T
     TRS4 it   1 1.00000000   0.879E+00       0.000       16.128   0.100E-07
     TRS4 it   2 1.00000000   0.607E+00       0.001       32.256   0.100E-07
     TRS4 it   3 1.00000000   0.409E+00       0.001       32.256   0.100E-07
     TRS4 it   4 1.00000000   0.207E+00       0.001       32.256   0.100E-07
     TRS4 it   5 1.00000000   0.651E-01       0.001       32.256   0.100E-07
     TRS4 it   6 1.00000000   0.763E-02       0.001       32.256   0.100E-07
     TRS4 it   7 1.00000000   0.128E-03       0.001       32.256   0.100E-07
     TRS4 it   8 1.00000000   0.490E-07       0.001       32.256   0.100E-07
     Final TRS4 iteration    8 1.00000000   0.490E-07
     Chemical potential (mu):       0.00213
 
 PAO| energy:  -7.7201452886853374      penalty:   1.2309973815690992E-005
 PAO|LS| adapt:  T T F
 PAO|LS| adapt: scan_steps:    0.0000000000000000       0.48194789811537836        0.0000000000000000     
 PAO|LS| adapt: energies:   -7.7201394153505651       -7.7201452886853374        0.0000000000000000     
 PAO| ======================= Iteration:        31 =============================

     Lanczos converged:  T threshold:   0.100E-02
     Est. extremal eigenvalues:    0.268E+01   0.184E+00
     Est. condition number :    0.146E+02

 Order=           3
     NS sqrt iter    1 1.00000000   0.680E+00       0.001       59.474
     NS sqrt iter    2 1.00000000   0.309E+00       0.001      100.968
     NS sqrt iter    3 1.00000000   0.663E-01       0.001       98.698
     NS sqrt iter    4 1.00000000   0.138E-02       0.001       99.995
     NS sqrt iter    5 1.00000000   0.280E-07       0.001       50.899
     Symmetrizing Results
     Final NS sqrt iter    5 1.00000000   0.393E-08

     Est. extremal eigenvalues     -0.91489     1.64099  converged:  T
     TRS4 it   1 1.00000000   0.880E+00       0.000       16.128   0.100E-07
     TRS4 it   2 1.00000000   0.607E+00       0.001       32.256   0.100E-07
     TRS4 it   3 1.00000000   0.409E+00       0.001       32.256   0.100E-07
     TRS4 it   4 1.00000000   0.206E+00       0.017        1.932   0.100E-07
     TRS4 it   5 1.00000000   0.650E-01       0.001       32.256   0.100E-07
     TRS4 it   6 1.00000000   0.760E-02       0.001       32.256   0.100E-07
     TRS4 it   7 1.00000000   0.127E-03       0.001       32.256   0.100E-07
     TRS4 it   8 1.00000000   0.481E-07       0.001       32.256   0.100E-07
     Final TRS4 iteration    8 1.00000000   0.481E-07
     Chemical potential (mu):       0.00230
 
 PAO| energy:  -7.7201466086052983      penalty:   1.1641553528083611E-005
 PAO|LS| Need extra step
 PAO|LS| adapt:  T T F
 PAO|LS| adapt: scan_steps:    0.0000000000000000       0.96389579623075672        0.0000000000000000     
 PAO|LS| adapt: energies:   -7.7201394153505651       -7.7201466086052983        0.0000000000000000     
 PAO| ======================= Iteration:        32 =============================

     Lanczos converged:  T threshold:   0.100E-02
     Est. extremal eigenvalues:    0.268E+01   0.184E+00
     Est. condition number :    0.145E+02

 Order=           3
     NS sqrt iter    1 1.00000000   0.679E+00       0.001       58.209
     NS sqrt iter    2 1.00000000   0.308E+00       0.001       98.692
     NS sqrt iter    3 1.00000000   0.660E-01       0.001       98.625
     NS sqrt iter    4 1.00000000   0.137E-02       0.001       99.011
     NS sqrt iter    5 1.00000000   0.278E-07       0.001       51.262
     Symmetrizing Results
     Final NS sqrt iter    5 1.00000000   0.390E-08

     Est. extremal eigenvalues     -0.91490     1.64097  converged:  T
     TRS4 it   1 1.00000000   0.880E+00       0.000       16.128   0.100E-07
     TRS4 it   2 1.00000000   0.607E+00       0.001       32.256   0.100E-07
     TRS4 it   3 1.00000000   0.409E+00       0.017        1.927   0.100E-07
     TRS4 it   4 1.00000000   0.206E+00       0.001       32.256   0.100E-07
     TRS4 it   5 1.00000000   0.647E-01       0.001       32.256   0.100E-07
     TRS4 it   6 1.00000000   0.754E-02       0.001       32.256   0.100E-07
     TRS4 it   7 1.00000000   0.125E-03       0.001       32.256   0.100E-07
     TRS4 it   8 1.00000000   0.464E-07       0.001       32.256   0.100E-07
     Final TRS4 iteration    8 1.00000000   0.464E-07
     Chemical potential (mu):       0.00262
 
 PAO| energy:  -7.7201355794476054      penalty:   1.0364234094299107E-005
 PAO|LS| Need extra step
 PAO|LS| adapt:  T T T
 PAO|LS| adapt: scan_steps:    0.0000000000000000       0.96389579623075672        1.9277915924615134     
 PAO|LS| adapt: energies:   -7.7201394153505651       -7.7201466086052983       -7.7201355794476054     
 PAO|LS| adapt: suggested step_size:   0.86244351178127587     
[...]
     Symmetrizing Results
     Final NS sqrt iter    5 1.00000000   0.466E-10

     Est. extremal eigenvalues     -0.91465     1.43316  converged:  T
     TRS4 it   1 1.00000000   0.831E+00       0.000       16.128   0.100E-07
     TRS4 it   2 1.00000000   0.588E+00       0.001       32.256   0.100E-07
     TRS4 it   3 1.00000000   0.419E+00       0.001       32.256   0.100E-07
     TRS4 it   4 1.00000000   0.254E+00       0.001       32.256   0.100E-07
     TRS4 it   5 1.00000000   0.114E+00       0.001       32.256   0.100E-07
     TRS4 it   6 1.00000000   0.278E-01       0.001       32.256   0.100E-07
     TRS4 it   7 1.00000000   0.210E-02       0.001       32.256   0.100E-07
     TRS4 it   8 1.00000000   0.146E-04       0.001       32.256   0.100E-07
     TRS4 it   9 1.00000000   0.846E-09       0.001       32.256   0.100E-07
     Final TRS4 iteration    9 1.00000000   0.846E-09
     Chemical potential (mu):      -0.07427
 
 PAO| energy:  -7.7190305475907968      penalty:   3.3432639824205818E-011
 PAO|CG| warming up with steepest descent
 PAO|CG| beta:    0.0000000000000000     
 PAO| norm of gradient:   7.8524235360606207E-006
 PAO| energy improvement:  -2.4439117396468646E-011
 PAO| step    746                   -7.719030548  0.491E-06  0.276E+00     0.081
 PAO| converged after          746  steps :-)
 PAO| Recalculating energy after mixing.

     Lanczos converged:  T threshold:   0.100E-02
     Est. extremal eigenvalues:    0.247E+01   0.227E+00
     Est. condition number :    0.109E+02

 Order=           3
     NS sqrt iter    1 1.00000000   0.620E+00       0.005       13.166
     NS sqrt iter    2 1.00000000   0.259E+00       0.006       18.407
     NS sqrt iter    3 1.00000000   0.404E-01       0.006       18.973
     NS sqrt iter    4 1.00000000   0.307E-03       0.002       63.049
     NS sqrt iter    5 1.00000000   0.286E-09       0.002       18.236
     Symmetrizing Results
     Final NS sqrt iter    5 1.00000000   0.466E-10

     Est. extremal eigenvalues     -0.91465     1.43316  converged:  T
     TRS4 it   1 1.00000000   0.831E+00       0.001       13.680   0.100E-07
     TRS4 it   2 1.00000000   0.588E+00       0.002       20.473   0.100E-07
     TRS4 it   3 1.00000000   0.419E+00       0.001       31.635   0.100E-07
     TRS4 it   4 1.00000000   0.254E+00       0.001       32.256   0.100E-07
     TRS4 it   5 1.00000000   0.114E+00       0.001       32.256   0.100E-07
     TRS4 it   6 1.00000000   0.278E-01       0.001       32.006   0.100E-07
     TRS4 it   7 1.00000000   0.210E-02       0.001       32.256   0.100E-07
     TRS4 it   8 1.00000000   0.146E-04       0.001       32.256   0.100E-07
     TRS4 it   9 1.00000000   0.846E-09       0.001       32.256   0.100E-07
     Final TRS4 iteration    9 1.00000000   0.846E-09
     Chemical potential (mu):      -0.07427
 
 PAO| energy:  -7.7190305475846923      penalty:   3.3805952106359995E-011
 PAO| Writing restart file.
     Est. extremal eigenvalues     -0.91465     1.43316  converged:  T
     TRS4 it   1 1.00000000   0.831E+00       0.000       16.128   0.100E-07
     TRS4 it   2 1.00000000   0.588E+00       0.001       32.256   0.100E-07
     TRS4 it   3 1.00000000   0.419E+00       0.001       32.256   0.100E-07
     TRS4 it   4 1.00000000   0.254E+00       0.001       32.256   0.100E-07
     TRS4 it   5 1.00000000   0.114E+00       0.001       32.256   0.100E-07
     TRS4 it   6 1.00000000   0.278E-01       0.001       32.256   0.100E-07
     TRS4 it   7 1.00000000   0.210E-02       0.001       32.256   0.100E-07
     TRS4 it   8 1.00000000   0.146E-04       0.001       32.256   0.100E-07
     TRS4 it   9 1.00000000   0.846E-09       0.001       32.256   0.100E-07
     Final TRS4 iteration    9 1.00000000   0.846E-09
     Chemical potential (mu):      -0.07427

 SCF     1       -34.446672063       -34.446672063    3.664546

*********************************************************
 Using MIXING_FRACTION=0.450 to mix KS matrix:  iscf=  2
 KS_nw=0.450*KS + 0.550*KS_old
*********************************************************
     Est. extremal eigenvalues     -0.91465     1.43316  converged:  T
     TRS4 it   1 1.00000000   0.831E+00       0.000       16.128   0.100E-07
     TRS4 it   2 1.00000000   0.588E+00       0.001       32.256   0.100E-07
     TRS4 it   3 1.00000000   0.419E+00       0.001       32.256   0.100E-07
     TRS4 it   4 1.00000000   0.254E+00       0.001       32.256   0.100E-07
     TRS4 it   5 1.00000000   0.114E+00       0.001       32.256   0.100E-07
     TRS4 it   6 1.00000000   0.278E-01       0.001       32.256   0.100E-07
     TRS4 it   7 1.00000000   0.210E-02       0.001       32.256   0.100E-07
     TRS4 it   8 1.00000000   0.146E-04       0.001       32.256   0.100E-07
     TRS4 it   9 1.00000000   0.846E-09       0.001       32.256   0.100E-07
     Final TRS4 iteration    9 1.00000000   0.846E-09
     Chemical potential (mu):      -0.07427

 SCF     2       -34.446672063        -0.000000000    5.011583


 SCF run converged in     2 steps.

 PAO| Storing density matrix for ASPC guess in slot:           1

 ENERGY| Total FORCE_EVAL ( QS ) energy [a.u.]:              -34.446672063311837

 -------------------------------------------------------------------------------
 -                                                                             -
 -                                DBCSR STATISTICS                             -
 -                                                                             -
 -------------------------------------------------------------------------------
 COUNTER                                    TOTAL       BLAS       SMM       ACC
 flops     5 x     5 x     4                26000       0.0%    100.0%      0.0%
 flops    13 x     5 x     4                27040       0.0%    100.0%      0.0%
 flops     5 x    13 x     4                27040       0.0%    100.0%      0.0%
 flops    13 x    13 x     4                52728       0.0%    100.0%      0.0%
 flops     4 x     4 x     5              5836800       0.0%    100.0%      0.0%
 flops     5 x     4 x     5              7129600       0.0%    100.0%      0.0%
 flops     4 x     4 x    13              7587840       0.0%    100.0%      0.0%
 flops    13 x     4 x     5              9268480       0.0%    100.0%      0.0%
 flops     5 x     4 x    13              9268480       0.0%    100.0%      0.0%
 flops     5 x     4 x     4             11035680       0.0%    100.0%      0.0%
 flops    13 x     4 x    13             12049024       0.0%    100.0%      0.0%
 flops    13 x     4 x     4             14403168       0.0%    100.0%      0.0%
 flops     4 x     4 x     4            739029632       0.0%    100.0%      0.0%
 flops inhomo. stacks                           0       0.0%      0.0%      0.0%
 flops total                       815.741512E+06       0.0%    100.0%      0.0%
 flops max/rank                    815.741512E+06       0.0%    100.0%      0.0%
 matmuls inhomo. stacks                         0       0.0%      0.0%      0.0%
 matmuls total                            6012466       0.0%    100.0%      0.0%
 number of processed stacks                 47930       0.0%    100.0%      0.0%
 average stack size                                     0.0     125.4       0.0
 marketing flops                     1.332408E+09
 -------------------------------------------------------------------------------
 # multiplications                          40145
 max memory usage/rank             506.191872E+06
 # max total images/rank                        1
 # max 3D layers                                1
 # MPI messages exchanged                       0
 -------------------------------------------------------------------------------

 -------------------------------------------------------------------------------
 -                                                                             -
 -                                DBM STATISTICS                               -
 -                                                                             -
 -------------------------------------------------------------------------------
    M  x    N  x    K                                          COUNT     PERCENT
 -------------------------------------------------------------------------------

 -------------------------------------------------------------------------------
 -                                                                             -
 -                                GRID STATISTICS                              -
 -                                                                             -
 -------------------------------------------------------------------------------
 LP    KERNEL             BACKEND                              COUNT     PERCENT
 2     collocate ortho    REF                                  49426      30.70%
 2     integrate ortho    REF                                  49426      30.70%
 3     collocate ortho    REF                                  25441      15.80%
 3     integrate ortho    REF                                  25441      15.80%
 4     collocate ortho    REF                                   5629       3.50%
 4     integrate ortho    REF                                   5629       3.50%
 0     collocate general  REF                                      6       0.00%
 -------------------------------------------------------------------------------

 MEMORY| Estimated peak process memory [MiB]                                 483

 -------------------------------------------------------------------------------
 -                                                                             -
 -                           R E F E R E N C E S                               -
 -                                                                             -
 -------------------------------------------------------------------------------
 
 CP2K version 2023.1 (Development Version), the CP2K developers group (2023).
 CP2K is freely available from https://www.cp2k.org/ .

 Kuehne,Thomas D.; Iannuzzi,Marcella; Del Ben,Mauro;
 Rybkin,Vladimir V.; Seewald,Patrick; Stein,Frederick; Laino,Teodoro;
 Khaliullin,Rustam Z.; Schuett,Ole; Schiffmann,Florian; Golze,Dorothea;
 Wilhelm,Jan; Chulkov,Sergey; Bani-Hashemian,Mohammad Hossein;
 Weber,Valery; Borstnik,Urban; Taillefumier,Mathieu;
 Jakobovits,Alice Shoshana; Lazzaro,Alfio; Pabst,Hans; Mueller,Tiziano;
 Schade,Robert; Guidon,Manuel; Andermatt,Samuel; Holmberg,Nico;
 Schenter,Gregory K.; Hehn,Anna; Bussy,Augustin; Belleflamme,Fabian;
 Tabacchi,Gloria; Gloess,Andreas; Lass,Michael; Bethune,Iain;
 Mundy,Christopher J.; Plessl,Christian; Watkins,Matt;
 VandeVondele,Joost; Krack,Matthias; Hutter,Juerg. 
 The Journal of Chemical Physics, 152 (19), (2020). 
 CP2K: An electronic structure and molecular dynamics software package -
 Quickstep: Efficient and accurate electronic structure calculations.
 https://doi.org/10.1063/5.0007045

 Schuett, O; VandeVondele, J. 
 Journal of Chemical Theory and Computation, 14, (2018). 
 Machine Learning Adaptive Basis Sets for Efficient Large Scale
 Density Functional Theory Simulation.
 https://doi.org/10.1021/acs.jctc.8b00378

 Schuett, Ole; Messmer, Peter; Hutter, Juerg; VandeVondele, Joost. 
 Electronic Structure Calculations on Graphics Processing Units, John
 Wiley & Sons, Ltd, 173-190 (2016). 
 GPU-Accelerated Sparse Matrix-Matrix Multiplication for
 Linear Scaling Density Functional Theory.
 https://doi.org/10.1002/9781118670712.ch8

 Heinecke, A; Henry, G; Hutchinson, M; Pabst, H. 
 Proceedings of Intl. Supercomputing Conference, 981-991 (2016). 
 LIBXSMM: Accelerating Small Matrix Multiplications
 by Runtime Code Generation.
 https://doi.org/10.1109/SC.2016.83

 Borstnik, U; VandeVondele, J; Weber, V; Hutter, J. 
 PARALLEL COMPUTING, 40 (5-6), 47-58 (2014). 
 Sparse matrix multiplication: The distributed block-compressed sparse
 row library.
 https://doi.org/10.1016/j.parco.2014.03.012

 Hutter, J; Iannuzzi, M; Schiffmann, F; VandeVondele, J. 
 WIREs Comput Mol Sci., 4 (1), 15-25 (2014). 
 CP2K: atomistic simulations of condensed matter systems.
 https://doi.org/10.1002/wcms.1159

 VandeVondele, J; Borstnik, U; Hutter, J. 
 JOURNAL OF CHEMICAL THEORY AND COMPUTATION, 8 (10), 3565-3573 (2012). 
 Linear Scaling Self-Consistent Field Calculations with Millions of Atoms
 in the Condensed Phase.
 https://doi.org/10.1021/ct200897x

 VandeVondele, J; Hutter, J. 
 JOURNAL OF CHEMICAL PHYSICS, 127 (11), 114105 (2007). 
 Gaussian basis sets for accurate calculations on molecular systems in
 gas and condensed phases.
 https://doi.org/10.1063/1.2770708

 Krack, M. 
 THEORETICAL CHEMISTRY ACCOUNTS, 114 (1-3), 145-152 (2005). 
 Pseudopotentials for H to Kr optimized for gradient-corrected
 exchange-correlation functionals.
 https://doi.org/10.1007/s00214-005-0655-y

 VandeVondele, J; Krack, M; Mohamed, F; Parrinello, M; Chassaing, T;
 Hutter, J. COMPUTER PHYSICS COMMUNICATIONS, 167 (2), 103-128 (2005). 
 QUICKSTEP: Fast and accurate density functional calculations using a
 mixed Gaussian and plane waves approach.
 https://doi.org/10.1016/j.cpc.2004.12.014

 Frigo, M; Johnson, SG. 
 PROCEEDINGS OF THE IEEE, 93 (2), 216-231 (2005). 
 The design and implementation of FFTW3.
 https://doi.org/10.1109/JPROC.2004.840301

 Niklasson, AMN; Tymczak, CJ; Challacombe, M. 
 JOURNAL OF CHEMICAL PHYSICS, 118 (19), 8611-8620 (2003). 
 Trace resetting density matrix purification in O(N)
 self-consistent-field theory.
 https://doi.org/10.1063/1.1559913

 Hartwigsen, C; Goedecker, S; Hutter, J. 
 PHYSICAL REVIEW B, 58 (7), 3641-3662 (1998). 
 Relativistic separable dual-space Gaussian pseudopotentials from H to Rn.
 https://doi.org/10.1103/PhysRevB.58.3641

 Lippert, G; Hutter, J; Parrinello, M. 
 MOLECULAR PHYSICS, 92 (3), 477-487 (1997). 
 A hybrid Gaussian and plane wave density functional scheme.
 https://doi.org/10.1080/002689797170220

 Perdew, JP; Burke, K; Ernzerhof, M. 
 PHYSICAL REVIEW LETTERS, 77 (18), 3865-3868 (1996). 
 Generalized gradient approximation made simple.
 https://doi.org/10.1103/PhysRevLett.77.3865

 Goedecker, S; Teter, M; Hutter, J. 
 PHYSICAL REVIEW B, 54 (3), 1703-1710 (1996). 
 Separable dual-space Gaussian pseudopotentials.
 https://doi.org/10.1103/PhysRevB.54.1703


 -------------------------------------------------------------------------------
 -                                                                             -
 -                                T I M I N G                                  -
 -                                                                             -
 -------------------------------------------------------------------------------
 SUBROUTINE                       CALLS  ASD         SELF TIME        TOTAL TIME
                                MAXIMUM       AVERAGE  MAXIMUM  AVERAGE  MAXIMUM
 CP2K                                 1  1.0    0.022    0.022   70.597   70.597
 qs_energies                          1  2.0    0.000    0.000   69.656   69.656
 ls_scf                               1  3.0    0.000    0.000   69.551   69.551
 ls_scf_main                          6  4.0    0.002    0.002   44.346   44.346
 ls_scf_dm_to_ks                     12  5.0    0.001    0.001   44.184   44.184
 qs_ks_update_qs_env                 13  6.0    0.000    0.000   36.422   36.422
 rebuild_ks_matrix                   13  7.0    0.000    0.000   36.421   36.421
 qs_ks_build_kohn_sham_matrix        13  8.0    0.004    0.004   36.421   36.421
 qs_vxc_create                       13  9.0    0.001    0.001   23.107   23.107
 xc_vxc_pw_create                    13 10.0    0.419    0.419   23.107   23.107
 pao_update                           6  4.0    0.015    0.015   19.657   19.657
 pw_transfer                        248 11.1    0.045    0.045   19.075   19.075
 fft_wrap_pw1pw2                    222 12.3    0.005    0.005   18.471   18.471
 fft_wrap_pw1pw2_200                144 13.7    1.921    1.921   17.807   17.807
 pao_calc_energy                    751  5.0    0.006    0.006   17.645   17.645
 dbcsr_multiply_generic           40145  8.4    1.090    1.090   14.236   14.236
 xc_rho_set_and_dset_create          13 11.0    0.549    0.549   13.640   13.640
 xc_pw_derive                        78 12.0    0.002    0.002   13.348   13.348
 qs_rho_update_rho_low               13  6.0    0.000    0.000   13.209   13.209
 calculate_rho_elec                  13  7.0    0.088    0.088   13.209   13.209
 sum_up_and_integrate                13  9.0    0.252    0.252    9.707    9.707
 integrate_v_rspace                  13 10.0    0.001    0.001    9.455    9.455
 pao_dm_trs4                        751  6.0    0.005    0.005    9.168    9.168
 xc_pw_divergence                    13 11.0    0.001    0.001    8.755    8.755
 density_matrix_trs4                763  7.0    0.321    0.321    8.735    8.735
 grid_collocate_task_list            13  8.0    8.436    8.436    8.436    8.436
 ls_scf_init_matrix_S               757  7.0    0.005    0.005    8.414    8.414
 pao_rebuild_S                      751  6.0    0.003    0.003    8.343    8.343
 fft3d_s                            223 14.2    8.077    8.077    8.124    8.124
 grid_integrate_task_list            13 11.0    7.774    7.774    7.774    7.774
 matrix_sqrt_Newton_Schulz          757  8.0    0.185    0.185    7.574    7.574
 xc_functional_eval                  13 12.0    0.000    0.000    5.999    5.999
 pbe_lda_eval                        13 13.0    5.998    5.998    5.998    5.998
 pao_guess_initial_P                  1  4.0    0.000    0.000    5.459    5.459
 pao_read_preopt_dm                   1  5.0    0.000    0.000    5.459    5.459
 make_m2s                         80290  9.4    0.337    0.337    5.441    5.441
 multiply_cannon                  40145  9.4    2.008    2.008    5.029    5.029
 make_images                      80290 10.4    1.282    1.282    4.805    4.805
 density_rs2pw                       13  8.0    0.002    0.002    4.685    4.685
 pw_gather_s                        105 13.8    4.223    4.223    4.223    4.223
 pw_scatter_s                       117 14.7    4.137    4.137    4.137    4.137
 arnoldi_extremal                  1520  8.5    0.006    0.006    2.884    2.884
 arnoldi_normal_ev                 1520  9.5    0.018    0.018    2.878    2.878
 pw_derive                           78 13.0    2.587    2.587    2.587    2.587
 build_subspace                    1520 10.5    0.130    0.130    2.283    2.283
 dbcsr_matrix_vector_mult         36433 11.5    0.234    0.234    2.085    2.085
 pao_calc_AB                        988  5.8    0.001    0.001    2.007    2.007
 pao_calc_AB_equi                   988  6.8    0.043    0.043    2.005    2.005
 pw_copy                            156 11.8    1.879    1.879    1.879    1.879
 pao_calc_grad_lnv_wrt_AB           236  7.0    0.010    0.010    1.829    1.829
 potential_pw2rs                     13 11.0    0.004    0.004    1.680    1.680
 dbcsr_create_new                308296 10.7    0.950    0.950    1.527    1.527
 dbcsr_finalize                   95923  9.6    0.333    0.333    1.500    1.500
 pw_poisson_solve                    13  9.0    0.260    0.260    1.457    1.457
 -------------------------------------------------------------------------------

 The number of warnings for this run is : 0
 
 -------------------------------------------------------------------------------
  **** **** ******  **  PROGRAM ENDED AT                 2023-02-01 10:49:06.559
 ***** ** ***  *** **   PROGRAM RAN ON                                    moritz
 **    ****   ******    PROGRAM RAN BY                                       ole
 ***** **    ** ** **   PROGRAM PROCESS ID                                148801
  **** **  *******  **  PROGRAM STOPPED IN /home/ole/git/pao_ml_equivar/2H2O_MD/
                                           frame_1625
