 DBCSR| CPU Multiplication driver                                           XSMM (U)
 DBCSR| Multrec recursion limit                                              512 (U)
 DBCSR| Multiplication stack size                                           1000 (D)
 DBCSR| Maximum elements for images                                    UNLIMITED (U)
 DBCSR| Multiplicative factor virtual images                                   1 (U)
 DBCSR| Use multiplication densification                                       T (D)
 DBCSR| Multiplication size stacks                                             3 (U)
 DBCSR| Use memory pool for CPU allocation                                     F (U)
 DBCSR| OMP: Current number of threads                                         1
 DBCSR| OMP: Max number of threads                                             1
 DBCSR| Split modifier for TAS multiplication algorithm                  1.0E+00 (U)


  **** **** ******  **  PROGRAM STARTED AT               2023-01-22 17:34:12.286
 ***** ** ***  *** **   PROGRAM STARTED ON                                moritz
 **    ****   ******    PROGRAM STARTED BY                                   ole
 ***** **    ** ** **   PROGRAM PROCESS ID                                116848
  **** **  *******  **  PROGRAM STARTED IN /home/ole/git/pao_ml_equivar/2H2O_MD/
                                           frame_1625

 CP2K| version string:                 CP2K version 2023.1 (Development Version)
 CP2K| source code revision number:                                  git:cb52c7f
 CP2K| cp2kflags: omp libint fftw3 libxc quip xsmm spglib libvori libbqb libtorc
 CP2K|            h
 CP2K| is freely available from                            https://www.cp2k.org/
 CP2K| Program compiled at                           Mi 18 Jan 2023 11:14:10 CET
 CP2K| Program compiled on                                                moritz
 CP2K| Program compiled for                                                local
 CP2K| Data directory path                               /home/ole/git/cp2k/data
 CP2K| Input file name                                              2H2O_ref.inp

 GLOBAL| Force Environment number                                              1
 GLOBAL| Basis set file name                                        BASIS_MOLOPT
 GLOBAL| Potential file name                                      GTH_POTENTIALS
 GLOBAL| MM Potential file name                                     MM_POTENTIAL
 GLOBAL| Coordinate file name                                         coords.xyz
 GLOBAL| Method name                                                        CP2K
 GLOBAL| Project name                                                   2H2O_ref
 GLOBAL| Run type                                                         ENERGY
 GLOBAL| FFT library                                                       FFTW3
 GLOBAL| Diagonalization library                                       ScaLAPACK
 GLOBAL| DGEMM library                                                      BLAS
 GLOBAL| Orthonormality check for eigenvectors                          DISABLED
 GLOBAL| Matrix multiplication library                                 ScaLAPACK
 GLOBAL| All-to-all communication in single precision                          F
 GLOBAL| FFTs using library dependent lengths                                  F
 GLOBAL| Grid backend                                                       AUTO
 GLOBAL| Global print level                                                  LOW
 GLOBAL| MPI I/O enabled                                                       T
 GLOBAL| Total number of message passing processes                             1
 GLOBAL| Number of threads for this process                                    1
 GLOBAL| This output is from process                                           0
 GLOBAL| Stack size for threads created by OpenMP (OMP_STACKSIZE)        default
 GLOBAL| CPU model name           AMD Ryzen Threadripper 3970X 32-Core Processor
 GLOBAL| CPUID                                                              1002
 GLOBAL| Compiled for CPUID                                                    0

 *** HINT in environment.F:884 :: The compiler target flags (generic) used ***
 *** to build this binary cannot exploit all extensions of this CPU model  ***
 *** (x86_avx2). Consider compiler target flags as part of FCFLAGS and     ***
 *** CFLAGS (ARCH file).                                                   ***


 MEMORY| system memory details [Kb]
 MEMORY|                        rank 0           min           max       average
 MEMORY| MemTotal            131773860     131773860     131773860     131773860
 MEMORY| MemFree             112427820     112427820     112427820     112427820
 MEMORY| Buffers                437868        437868        437868        437868
 MEMORY| Cached                6651724       6651724       6651724       6651724
 MEMORY| Slab                   840084        840084        840084        840084
 MEMORY| SReclaimable           381664        381664        381664        381664
 MEMORY| MemLikelyFree       119899076     119899076     119899076     119899076


 GENERATE|  Preliminary Number of Bonds generated:                             0
 GENERATE|  Achieved consistency in connectivity generation.

 *******************************************************************************
 *******************************************************************************
 **                                                                           **
 **     #####                         ##              ##                      **
 **    ##   ##            ##          ##              ##                      **
 **   ##     ##                       ##            ######                    **
 **   ##     ##  ##   ##  ##   #####  ##  ##   ####   ##    #####    #####    **
 **   ##     ##  ##   ##  ##  ##      ## ##   ##      ##   ##   ##  ##   ##   **
 **   ##  ## ##  ##   ##  ##  ##      ####     ###    ##   ######   ######    **
 **    ##  ###   ##   ##  ##  ##      ## ##      ##   ##   ##       ##        **
 **     #######   #####   ##   #####  ##  ##  ####    ##    #####   ##        **
 **           ##                                                    ##        **
 **                                                                           **
 **                                                ... make the atoms dance   **
 **                                                                           **
 **            Copyright (C) by CP2K developers group (2000-2023)             **
 **                      J. Chem. Phys. 152, 194103 (2020)                    **
 **                                                                           **
 *******************************************************************************


 TOTAL NUMBERS AND MAXIMUM NUMBERS

  Total number of            - Atomic kinds:                                   2
                             - Atoms:                                          6
                             - Shell sets:                                     6
                             - Shells:                                        22
                             - Primitive Cartesian functions:                 42
                             - Cartesian basis functions:                     48
                             - Spherical basis functions:                     46

  Maximum angular momentum of- Orbital basis functions:                        2
                             - Local part of the GTH pseudopotential:          2
                             - Non-local part of the GTH pseudopotential:      0

 ------------------------------ Linear scaling SCF -----------------------------
 eps_scf:                                                              0.100E-07
 eps_filter:                                                           0.100E-07
 mixing_fraction:                                                      0.450E+00
 max_scf:                                                                     25
 fixed chemical potential (mu)                                                 F
 has unit metric:                                                              F
 Computing inv(S):                                                             T
 Computing sqrt(S):                                                            T
 Computing S preconditioner                                                    F
 S sqrt method:                                                     NEWTONSCHULZ
 S sqrt order:                                                                 3
 Extrapolation order:                                                          4
 Use single precision matrices                                                 F
 S preconditioner type                                                      NONE
 Polarized Atomic Orbitals (PAO)                                               F
 Purification method                                   Trace resetting 4th order
 Cluster type                                                             ATOMIC
 Computing Chebyshev                                                       FALSE
 Using PAO                                                                     F
 -------------------------------------------------------------------------------


     Lanczos converged:  T threshold:   0.100E-02
     Est. extremal eigenvalues:    0.368E+01   0.122E-01
     Est. condition number :    0.302E+03

 Order=           3
     NS sqrt iter    1 1.00000000   0.946E+00       0.002      280.868
     NS sqrt iter    2 1.00000000   0.562E+00       0.001      704.464
     NS sqrt iter    3 1.00000000   0.318E+00       0.001      689.036
     NS sqrt iter    4 1.00000000   0.222E+00       0.001      711.583
     NS sqrt iter    5 1.00000000   0.101E+00       0.001      711.115
     NS sqrt iter    6 1.00000000   0.908E-02       0.001      704.987
     NS sqrt iter    7 1.00000000   0.889E-05       0.001      541.486
     Symmetrizing Results
     Final NS sqrt iter    7 1.00000000   0.170E-09



 Guess for atomic kind: O

 Electronic structure
    Total number of core electrons                                          2.00
    Total number of valence electrons                                       6.00
    Total number of electrons                                               8.00
    Multiplicity                                                   not specified
    S   [  2.00] 2.00
    P      4.00


 *******************************************************************************
                  Iteration          Convergence                     Energy [au]
 *******************************************************************************
                          1        0.708315                     -15.576645311500
                          2        0.608879                     -15.587933561584
                          3        0.102828E-01                 -15.656849565404
                          4        0.113889E-02                 -15.656866888140
                          5        0.434197E-03                 -15.656867072159
                          6        0.263771E-03                 -15.656867091904
                          7        0.478536E-06                 -15.656867103452

 Energy components [Hartree]           Total Energy ::          -15.656867103452
                                        Band Energy ::           -3.000198112285
                                     Kinetic Energy ::           11.759971203220
                                   Potential Energy ::          -27.416838306672
                                      Virial (-V/T) ::            2.331369510426
                                        Core Energy ::          -26.140716385623
                                          XC Energy ::           -3.154051012914
                                     Coulomb Energy ::           13.637900295084
                       Total Pseudopotential Energy ::          -37.935781716540
                       Local Pseudopotential Energy ::          -39.218907440693
                    Nonlocal Pseudopotential Energy ::            1.283125724153
                                        Confinement ::            0.350941276976

 Orbital energies  State     L     Occupation   Energy[a.u.]          Energy[eV]

                       1     0          2.000      -0.864471          -23.523463

                       1     1          4.000      -0.317814           -8.648154


 Total Electron Density at R=0:                                         0.000068

 Guess for atomic kind: H

 Electronic structure
    Total number of core electrons                                          0.00
    Total number of valence electrons                                       1.00
    Total number of electrons                                               1.00
    Multiplicity                                                   not specified
    S      1.00


 *******************************************************************************
                  Iteration          Convergence                     Energy [au]
 *******************************************************************************
                          1        0.437545E-02                  -0.424159432110
                          2        0.531356E-03                  -0.424178438213
                          3        0.259176E-06                  -0.424178722480

 Energy components [Hartree]           Total Energy ::           -0.424178722480
                                        Band Energy ::           -0.199015229016
                                     Kinetic Energy ::            0.464007633961
                                   Potential Energy ::           -0.888186356441
                                      Virial (-V/T) ::            1.914163240935
                                        Core Energy ::           -0.479160803564
                                          XC Energy ::           -0.244352904054
                                     Coulomb Energy ::            0.299334985138
                       Total Pseudopotential Energy ::           -0.962295316385
                       Local Pseudopotential Energy ::           -0.962295316385
                    Nonlocal Pseudopotential Energy ::            0.000000000000
                                        Confinement ::            0.191268788606

 Orbital energies  State     L     Occupation   Energy[a.u.]          Energy[eV]

                       1     0          1.000      -0.199015           -5.415480


 Total Electron Density at R=0:                                         0.242907
 Re-scaling the density matrix to get the right number of electrons
                  # Electrons              Trace(P)               Scaling factor
                           16                15.990                        1.001
 Energy with the initial guess:       -34.107530004

     Est. extremal eigenvalues     -1.06324     3.74186  converged:  T
     TRS4 it   1 1.00000000   0.180E+01       0.001      117.484   0.100E-07
     TRS4 it   2 1.00000000   0.159E+01       0.000      117.484   0.100E-07
     TRS4 it   3 1.00000000   0.907E+00       0.001      234.968   0.100E-07
     TRS4 it   4 1.00000000   0.560E+00       0.001      234.968   0.100E-07
     TRS4 it   5 1.00000000   0.338E+00       0.001      234.968   0.100E-07
     TRS4 it   6 1.00000000   0.158E+00       0.001      234.968   0.100E-07
     TRS4 it   7 1.00000000   0.449E-01       0.001      234.968   0.100E-07
     TRS4 it   8 1.00000000   0.448E-02       0.001      234.968   0.100E-07
     TRS4 it   9 1.00000000   0.542E-04       0.001      234.968   0.100E-07
     TRS4 it  10 1.00000000   0.885E-08       0.001      234.968   0.100E-07
     Final TRS4 iteration   10 1.00000000   0.885E-08
     Chemical potential (mu):      -0.22434

 SCF     1       -34.238110021       -34.238110021    4.425237

*********************************************************
 Using MIXING_FRACTION=0.450 to mix KS matrix:  iscf=  2
 KS_nw=0.450*KS + 0.550*KS_old
*********************************************************
     Est. extremal eigenvalues     -0.90759     3.86249  converged:  T
     TRS4 it   1 1.00000000   0.175E+01       0.001       96.188   0.100E-07
     TRS4 it   2 1.00000000   0.162E+01       0.001      117.484   0.100E-07
     TRS4 it   3 1.00000000   0.976E+00       0.001      234.968   0.100E-07
     TRS4 it   4 1.00000000   0.593E+00       0.001      234.968   0.100E-07
     TRS4 it   5 1.00000000   0.399E+00       0.001      234.968   0.100E-07
     TRS4 it   6 1.00000000   0.235E+00       0.001      234.968   0.100E-07
     TRS4 it   7 1.00000000   0.108E+00       0.001      234.968   0.100E-07
     TRS4 it   8 1.00000000   0.287E-01       0.001      234.968   0.100E-07
     TRS4 it   9 1.00000000   0.262E-02       0.001      234.968   0.100E-07
     TRS4 it  10 1.00000000   0.239E-04       0.001      234.968   0.100E-07
     TRS4 it  11 1.00000000   0.210E-08       0.001      234.968   0.100E-07
     Final TRS4 iteration   11 1.00000000   0.210E-08
     Chemical potential (mu):      -0.11590

 SCF     2       -34.433905662        -0.195795641    3.185546

*********************************************************
 Using MIXING_FRACTION=0.450 to mix KS matrix:  iscf=  3
 KS_nw=0.450*KS + 0.550*KS_old
*********************************************************
     Est. extremal eigenvalues     -0.93230     3.84705  converged:  T
     TRS4 it   1 1.00000000   0.176E+01       0.003       37.585   0.100E-07
     TRS4 it   2 1.00000000   0.161E+01       0.003       38.933   0.100E-07
     TRS4 it   3 1.00000000   0.963E+00       0.004       66.562   0.100E-07
     TRS4 it   4 1.00000000   0.590E+00       0.002      128.785   0.100E-07
     TRS4 it   5 1.00000000   0.391E+00       0.002      110.883   0.100E-07
     TRS4 it   6 1.00000000   0.222E+00       0.003       77.346   0.100E-07
     TRS4 it   7 1.00000000   0.948E-01       0.005       50.361   0.100E-07
     TRS4 it   8 1.00000000   0.221E-01       0.005       47.060   0.100E-07
     TRS4 it   9 1.00000000   0.154E-02       0.004       64.145   0.100E-07
     TRS4 it  10 1.00000000   0.852E-05       0.004       65.384   0.100E-07
     TRS4 it  11 1.00000000   0.291E-09       0.002       98.957   0.100E-07
     Final TRS4 iteration   11 1.00000000   0.291E-09
     Chemical potential (mu):      -0.12935

 SCF     3       -34.445696356        -0.011790694    3.873601

*********************************************************
 Using MIXING_FRACTION=0.450 to mix KS matrix:  iscf=  4
 KS_nw=0.450*KS + 0.550*KS_old
*********************************************************
     Est. extremal eigenvalues     -0.91788     3.85969  converged:  T
     TRS4 it   1 1.00000000   0.176E+01       0.001      117.484   0.100E-07
     TRS4 it   2 1.00000000   0.161E+01       0.000      117.484   0.100E-07
     TRS4 it   3 1.00000000   0.968E+00       0.001      234.968   0.100E-07
     TRS4 it   4 1.00000000   0.593E+00       0.001      234.968   0.100E-07
     TRS4 it   5 1.00000000   0.396E+00       0.001      234.968   0.100E-07
     TRS4 it   6 1.00000000   0.230E+00       0.001      234.968   0.100E-07
     TRS4 it   7 1.00000000   0.102E+00       0.001      234.968   0.100E-07
     TRS4 it   8 1.00000000   0.256E-01       0.001      234.968   0.100E-07
     TRS4 it   9 1.00000000   0.212E-02       0.001      234.968   0.100E-07
     TRS4 it  10 1.00000000   0.167E-04       0.001      234.968   0.100E-07
     TRS4 it  11 1.00000000   0.115E-08       0.001      234.968   0.100E-07
     Final TRS4 iteration   11 1.00000000   0.115E-08
     Chemical potential (mu):      -0.11804

 SCF     4       -34.446731093        -0.001034738    3.655102

*********************************************************
 Using MIXING_FRACTION=0.450 to mix KS matrix:  iscf=  5
 KS_nw=0.450*KS + 0.550*KS_old
*********************************************************
     Est. extremal eigenvalues     -0.91838     3.86032  converged:  T
     TRS4 it   1 1.00000000   0.176E+01       0.001      117.484   0.100E-07
     TRS4 it   2 1.00000000   0.161E+01       0.001      117.484   0.100E-07
     TRS4 it   3 1.00000000   0.968E+00       0.001      234.968   0.100E-07
     TRS4 it   4 1.00000000   0.593E+00       0.001      234.968   0.100E-07
     TRS4 it   5 1.00000000   0.396E+00       0.001      234.968   0.100E-07
     TRS4 it   6 1.00000000   0.229E+00       0.001      234.968   0.100E-07
     TRS4 it   7 1.00000000   0.101E+00       0.001      234.968   0.100E-07
     TRS4 it   8 1.00000000   0.255E-01       0.001      234.968   0.100E-07
     TRS4 it   9 1.00000000   0.212E-02       0.001      234.968   0.100E-07
     TRS4 it  10 1.00000000   0.170E-04       0.001      234.968   0.100E-07
     TRS4 it  11 1.00000000   0.120E-08       0.001      234.968   0.100E-07
     Final TRS4 iteration   11 1.00000000   0.120E-08
     Chemical potential (mu):      -0.11734

 SCF     5       -34.446825346        -0.000094252    3.544512

*********************************************************
 Using MIXING_FRACTION=0.450 to mix KS matrix:  iscf=  6
 KS_nw=0.450*KS + 0.550*KS_old
*********************************************************
     Est. extremal eigenvalues     -0.91623     3.86239  converged:  T
     TRS4 it   1 1.00000000   0.176E+01       0.001      100.382   0.100E-07
     TRS4 it   2 1.00000000   0.161E+01       0.001      117.484   0.100E-07
     TRS4 it   3 1.00000000   0.968E+00       0.001      234.968   0.100E-07
     TRS4 it   4 1.00000000   0.593E+00       0.001      228.654   0.100E-07
     TRS4 it   5 1.00000000   0.397E+00       0.001      234.968   0.100E-07
     TRS4 it   6 1.00000000   0.230E+00       0.001      234.968   0.100E-07
     TRS4 it   7 1.00000000   0.102E+00       0.001      234.968   0.100E-07
     TRS4 it   8 1.00000000   0.261E-01       0.001      233.951   0.100E-07
     TRS4 it   9 1.00000000   0.222E-02       0.001      234.968   0.100E-07
     TRS4 it  10 1.00000000   0.188E-04       0.001      234.968   0.100E-07
     TRS4 it  11 1.00000000   0.148E-08       0.001      234.968   0.100E-07
     Final TRS4 iteration   11 1.00000000   0.148E-08
     Chemical potential (mu):      -0.11546

 SCF     6       -34.446835645        -0.000010299    3.811158

*********************************************************
 Using MIXING_FRACTION=0.450 to mix KS matrix:  iscf=  7
 KS_nw=0.450*KS + 0.550*KS_old
*********************************************************
     Est. extremal eigenvalues     -0.91582     3.86297  converged:  T
     TRS4 it   1 1.00000000   0.176E+01       0.001      117.484   0.100E-07
     TRS4 it   2 1.00000000   0.161E+01       0.001      117.484   0.100E-07
     TRS4 it   3 1.00000000   0.968E+00       0.001      234.968   0.100E-07
     TRS4 it   4 1.00000000   0.593E+00       0.001      234.968   0.100E-07
     TRS4 it   5 1.00000000   0.397E+00       0.001      234.968   0.100E-07
     TRS4 it   6 1.00000000   0.231E+00       0.001      234.968   0.100E-07
     TRS4 it   7 1.00000000   0.103E+00       0.001      234.968   0.100E-07
     TRS4 it   8 1.00000000   0.262E-01       0.001      234.968   0.100E-07
     TRS4 it   9 1.00000000   0.225E-02       0.001      234.968   0.100E-07
     TRS4 it  10 1.00000000   0.194E-04       0.001      234.968   0.100E-07
     TRS4 it  11 1.00000000   0.158E-08       0.001      234.968   0.100E-07
     Final TRS4 iteration   11 1.00000000   0.158E-08
     Chemical potential (mu):      -0.11490

 SCF     7       -34.446837141        -0.000001496    3.554891

*********************************************************
 Using MIXING_FRACTION=0.450 to mix KS matrix:  iscf=  8
 KS_nw=0.450*KS + 0.550*KS_old
*********************************************************
     Est. extremal eigenvalues     -0.91539     3.86342  converged:  T
     TRS4 it   1 1.00000000   0.176E+01       0.001      117.484   0.100E-07
     TRS4 it   2 1.00000000   0.161E+01       0.001      117.484   0.100E-07
     TRS4 it   3 1.00000000   0.969E+00       0.001      234.968   0.100E-07
     TRS4 it   4 1.00000000   0.593E+00       0.001      234.968   0.100E-07
     TRS4 it   5 1.00000000   0.397E+00       0.001      234.968   0.100E-07
     TRS4 it   6 1.00000000   0.231E+00       0.001      234.968   0.100E-07
     TRS4 it   7 1.00000000   0.103E+00       0.001      234.968   0.100E-07
     TRS4 it   8 1.00000000   0.263E-01       0.001      234.968   0.100E-07
     TRS4 it   9 1.00000000   0.228E-02       0.001      234.968   0.100E-07
     TRS4 it  10 1.00000000   0.198E-04       0.001      234.968   0.100E-07
     TRS4 it  11 1.00000000   0.165E-08       0.001      234.968   0.100E-07
     Final TRS4 iteration   11 1.00000000   0.165E-08
     Chemical potential (mu):      -0.11448

 SCF     8       -34.446837441        -0.000000301    3.535694

*********************************************************
 Using MIXING_FRACTION=0.450 to mix KS matrix:  iscf=  9
 KS_nw=0.450*KS + 0.550*KS_old
*********************************************************
     Est. extremal eigenvalues     -0.91523     3.86362  converged:  T
     TRS4 it   1 1.00000000   0.176E+01       0.001      113.163   0.100E-07
     TRS4 it   2 1.00000000   0.161E+01       0.001      117.484   0.100E-07
     TRS4 it   3 1.00000000   0.969E+00       0.001      234.968   0.100E-07
     TRS4 it   4 1.00000000   0.594E+00       0.001      234.968   0.100E-07
     TRS4 it   5 1.00000000   0.398E+00       0.001      234.968   0.100E-07
     TRS4 it   6 1.00000000   0.231E+00       0.001      234.968   0.100E-07
     TRS4 it   7 1.00000000   0.103E+00       0.001      234.968   0.100E-07
     TRS4 it   8 1.00000000   0.264E-01       0.001      234.968   0.100E-07
     TRS4 it   9 1.00000000   0.229E-02       0.001      234.968   0.100E-07
     TRS4 it  10 1.00000000   0.200E-04       0.001      234.968   0.100E-07
     TRS4 it  11 1.00000000   0.169E-08       0.001      234.968   0.100E-07
     Final TRS4 iteration   11 1.00000000   0.169E-08
     Chemical potential (mu):      -0.11429

 SCF     9       -34.446837516        -0.000000075    3.845125


 SCF run converged in     9 steps.

 Writing restart DM 2H2O_ref_LS_DM_SPIN_1_RESTART.dm with checksum:       0.65044500E+02

 ENERGY| Total FORCE_EVAL ( QS ) energy [a.u.]:              -34.446837515846148

 -------------------------------------------------------------------------------
 -                                                                             -
 -                                DBCSR STATISTICS                             -
 -                                                                             -
 -------------------------------------------------------------------------------
 COUNTER                                    TOTAL       BLAS       SMM       ACC
 flops     5 x     5 x     5              2774000       0.0%    100.0%      0.0%
 flops     5 x    13 x     5              3114800       0.0%    100.0%      0.0%
 flops    13 x     5 x     5              3114800       0.0%    100.0%      0.0%
 flops     5 x     5 x    13              3595800       0.0%    100.0%      0.0%
 flops    13 x     5 x    13              4056000       0.0%    100.0%      0.0%
 flops     5 x    13 x    13              4056000       0.0%    100.0%      0.0%
 flops    13 x    13 x     5              5306600       0.0%    100.0%      0.0%
 flops    13 x    13 x    13              6933732       0.0%    100.0%      0.0%
 flops inhomo. stacks                           0       0.0%      0.0%      0.0%
 flops total                        32.951732E+06       0.0%    100.0%      0.0%
 flops max/rank                     32.951732E+06       0.0%    100.0%      0.0%
 matmuls inhomo. stacks                         0       0.0%      0.0%      0.0%
 matmuls total                              35730       0.0%    100.0%      0.0%
 number of processed stacks                  1952       0.0%    100.0%      0.0%
 average stack size                                     0.0      18.3       0.0
 marketing flops                    47.889312E+06
 -------------------------------------------------------------------------------
 # multiplications                            246
 max memory usage/rank             418.512896E+06
 # max total images/rank                        1
 # max 3D layers                                1
 # MPI messages exchanged                       0
 -------------------------------------------------------------------------------

 -------------------------------------------------------------------------------
 -                                                                             -
 -                                DBM STATISTICS                               -
 -                                                                             -
 -------------------------------------------------------------------------------
    M  x    N  x    K                                          COUNT     PERCENT
 -------------------------------------------------------------------------------

 -------------------------------------------------------------------------------
 -                                                                             -
 -                                GRID STATISTICS                              -
 -                                                                             -
 -------------------------------------------------------------------------------
 LP    KERNEL             BACKEND                              COUNT     PERCENT
 2     collocate ortho    REF                                  38020      30.70%
 2     integrate ortho    REF                                  38020      30.70%
 3     collocate ortho    REF                                  19570      15.80%
 3     integrate ortho    REF                                  19570      15.80%
 4     collocate ortho    REF                                   4330       3.50%
 4     integrate ortho    REF                                   4330       3.50%
 0     collocate general  REF                                      6       0.00%
 -------------------------------------------------------------------------------

 MEMORY| Estimated peak process memory [MiB]                                 400

 -------------------------------------------------------------------------------
 -                                                                             -
 -                           R E F E R E N C E S                               -
 -                                                                             -
 -------------------------------------------------------------------------------
 
 CP2K version 2023.1 (Development Version), the CP2K developers group (2023).
 CP2K is freely available from https://www.cp2k.org/ .

 Kuehne,Thomas D.; Iannuzzi,Marcella; Del Ben,Mauro;
 Rybkin,Vladimir V.; Seewald,Patrick; Stein,Frederick; Laino,Teodoro;
 Khaliullin,Rustam Z.; Schuett,Ole; Schiffmann,Florian; Golze,Dorothea;
 Wilhelm,Jan; Chulkov,Sergey; Bani-Hashemian,Mohammad Hossein;
 Weber,Valery; Borstnik,Urban; Taillefumier,Mathieu;
 Jakobovits,Alice Shoshana; Lazzaro,Alfio; Pabst,Hans; Mueller,Tiziano;
 Schade,Robert; Guidon,Manuel; Andermatt,Samuel; Holmberg,Nico;
 Schenter,Gregory K.; Hehn,Anna; Bussy,Augustin; Belleflamme,Fabian;
 Tabacchi,Gloria; Gloess,Andreas; Lass,Michael; Bethune,Iain;
 Mundy,Christopher J.; Plessl,Christian; Watkins,Matt;
 VandeVondele,Joost; Krack,Matthias; Hutter,Juerg. 
 The Journal of Chemical Physics, 152 (19), (2020). 
 CP2K: An electronic structure and molecular dynamics software package -
 Quickstep: Efficient and accurate electronic structure calculations.
 https://doi.org/10.1063/5.0007045

 Schuett, Ole; Messmer, Peter; Hutter, Juerg; VandeVondele, Joost. 
 Electronic Structure Calculations on Graphics Processing Units, John
 Wiley & Sons, Ltd, 173-190 (2016). 
 GPU-Accelerated Sparse Matrix-Matrix Multiplication for
 Linear Scaling Density Functional Theory.
 https://doi.org/10.1002/9781118670712.ch8

 Heinecke, A; Henry, G; Hutchinson, M; Pabst, H. 
 Proceedings of Intl. Supercomputing Conference, 981-991 (2016). 
 LIBXSMM: Accelerating Small Matrix Multiplications
 by Runtime Code Generation.
 https://doi.org/10.1109/SC.2016.83

 Borstnik, U; VandeVondele, J; Weber, V; Hutter, J. 
 PARALLEL COMPUTING, 40 (5-6), 47-58 (2014). 
 Sparse matrix multiplication: The distributed block-compressed sparse
 row library.
 https://doi.org/10.1016/j.parco.2014.03.012

 Hutter, J; Iannuzzi, M; Schiffmann, F; VandeVondele, J. 
 WIREs Comput Mol Sci., 4 (1), 15-25 (2014). 
 CP2K: atomistic simulations of condensed matter systems.
 https://doi.org/10.1002/wcms.1159

 VandeVondele, J; Borstnik, U; Hutter, J. 
 JOURNAL OF CHEMICAL THEORY AND COMPUTATION, 8 (10), 3565-3573 (2012). 
 Linear Scaling Self-Consistent Field Calculations with Millions of Atoms
 in the Condensed Phase.
 https://doi.org/10.1021/ct200897x

 VandeVondele, J; Hutter, J. 
 JOURNAL OF CHEMICAL PHYSICS, 127 (11), 114105 (2007). 
 Gaussian basis sets for accurate calculations on molecular systems in
 gas and condensed phases.
 https://doi.org/10.1063/1.2770708

 Krack, M. 
 THEORETICAL CHEMISTRY ACCOUNTS, 114 (1-3), 145-152 (2005). 
 Pseudopotentials for H to Kr optimized for gradient-corrected
 exchange-correlation functionals.
 https://doi.org/10.1007/s00214-005-0655-y

 VandeVondele, J; Krack, M; Mohamed, F; Parrinello, M; Chassaing, T;
 Hutter, J. COMPUTER PHYSICS COMMUNICATIONS, 167 (2), 103-128 (2005). 
 QUICKSTEP: Fast and accurate density functional calculations using a
 mixed Gaussian and plane waves approach.
 https://doi.org/10.1016/j.cpc.2004.12.014

 Frigo, M; Johnson, SG. 
 PROCEEDINGS OF THE IEEE, 93 (2), 216-231 (2005). 
 The design and implementation of FFTW3.
 https://doi.org/10.1109/JPROC.2004.840301

 Niklasson, AMN; Tymczak, CJ; Challacombe, M. 
 JOURNAL OF CHEMICAL PHYSICS, 118 (19), 8611-8620 (2003). 
 Trace resetting density matrix purification in O(N)
 self-consistent-field theory.
 https://doi.org/10.1063/1.1559913

 Hartwigsen, C; Goedecker, S; Hutter, J. 
 PHYSICAL REVIEW B, 58 (7), 3641-3662 (1998). 
 Relativistic separable dual-space Gaussian pseudopotentials from H to Rn.
 https://doi.org/10.1103/PhysRevB.58.3641

 Lippert, G; Hutter, J; Parrinello, M. 
 MOLECULAR PHYSICS, 92 (3), 477-487 (1997). 
 A hybrid Gaussian and plane wave density functional scheme.
 https://doi.org/10.1080/002689797170220

 Perdew, JP; Burke, K; Ernzerhof, M. 
 PHYSICAL REVIEW LETTERS, 77 (18), 3865-3868 (1996). 
 Generalized gradient approximation made simple.
 https://doi.org/10.1103/PhysRevLett.77.3865

 Goedecker, S; Teter, M; Hutter, J. 
 PHYSICAL REVIEW B, 54 (3), 1703-1710 (1996). 
 Separable dual-space Gaussian pseudopotentials.
 https://doi.org/10.1103/PhysRevB.54.1703


 -------------------------------------------------------------------------------
 -                                                                             -
 -                                T I M I N G                                  -
 -                                                                             -
 -------------------------------------------------------------------------------
 SUBROUTINE                       CALLS  ASD         SELF TIME        TOTAL TIME
                                MAXIMUM       AVERAGE  MAXIMUM  AVERAGE  MAXIMUM
 CP2K                                 1  1.0    0.018    0.018   39.688   39.688
 qs_energies                          1  2.0    0.000    0.000   38.909   38.909
 ls_scf                               1  3.0    0.000    0.000   38.759   38.759
 ls_scf_main                          1  4.0    0.002    0.002   33.433   33.433
 ls_scf_dm_to_ks                      9  5.0    0.000    0.000   33.245   33.245
 qs_ks_update_qs_env                 10  6.1    0.000    0.000   29.820   29.820
 rebuild_ks_matrix                   10  7.1    0.000    0.000   29.819   29.819
 qs_ks_build_kohn_sham_matrix        10  8.1    0.004    0.004   29.819   29.819
 qs_vxc_create                       10  9.1    0.000    0.000   18.254   18.254
 xc_vxc_pw_create                    10 10.1    0.361    0.361   18.253   18.253
 pw_transfer                        191 11.2    0.039    0.039   15.620   15.620
 fft_wrap_pw1pw2                    171 12.4    0.005    0.005   15.218   15.218
 fft_wrap_pw1pw2_200                111 13.8    1.659    1.659   14.805   14.805
 xc_pw_derive                        60 12.1    0.002    0.002   10.809   10.809
 xc_rho_set_and_dset_create          10 11.1    0.400    0.400    9.117    9.117
 sum_up_and_integrate                10  9.1    0.285    0.285    8.987    8.987
 qs_rho_update_rho_low               10  6.1    0.000    0.000    8.734    8.734
 calculate_rho_elec                  10  7.1    0.045    0.045    8.734    8.734
 integrate_v_rspace                  10 10.1    0.002    0.002    8.703    8.703
 xc_pw_divergence                    10 11.1    0.001    0.001    8.483    8.483
 fft3d_s                            172 14.3    6.700    6.700    6.727    6.727
 grid_integrate_task_list            10 11.1    6.692    6.692    6.692    6.692
 grid_collocate_task_list            10  8.1    5.788    5.788    5.788    5.788
 ls_scf_init_scf                      1  4.0    0.000    0.000    5.324    5.324
 ls_scf_initial_guess                 1  5.0    0.000    0.000    5.312    5.312
 ls_scf_qs_atomic_guess               1  6.0    0.000    0.000    5.312    5.312
 xc_functional_eval                  10 12.1    0.000    0.000    3.637    3.637
 pbe_lda_eval                        10 13.1    3.637    3.637    3.637    3.637
 pw_scatter_s                        90 14.8    3.564    3.564    3.564    3.564
 pw_gather_s                         81 13.9    3.205    3.205    3.205    3.205
 density_rs2pw                       10  8.1    0.001    0.001    2.901    2.901
 pw_derive                           60 13.1    2.107    2.107    2.107    2.107
 potential_pw2rs                     10 11.1    0.004    0.004    2.009    2.009
 pw_copy                            120 11.9    1.403    1.403    1.403    1.403
 pw_axpy                             90 10.4    1.214    1.214    1.214    1.214
 pw_poisson_solve                    10  9.1    0.188    0.188    0.972    0.972
 -------------------------------------------------------------------------------

 The number of warnings for this run is : 0
 
 -------------------------------------------------------------------------------
  **** **** ******  **  PROGRAM ENDED AT                 2023-01-22 17:34:52.531
 ***** ** ***  *** **   PROGRAM RAN ON                                    moritz
 **    ****   ******    PROGRAM RAN BY                                       ole
 ***** **    ** ** **   PROGRAM PROCESS ID                                116848
  **** **  *******  **  PROGRAM STOPPED IN /home/ole/git/pao_ml_equivar/2H2O_MD/
                                           frame_1625
