 DBCSR| CPU Multiplication driver                                           XSMM
 DBCSR| Multrec recursion limit                                              512
 DBCSR| Multiplication stack size                                           1000
 DBCSR| Maximum elements for images                                    UNLIMITED
 DBCSR| Multiplicative factor virtual images                                   1
 DBCSR| Use multiplication densification                                       T
 DBCSR| Multiplication size stacks                                             3


  **** **** ******  **  PROGRAM STARTED AT               2019-02-14 11:12:02.269
 ***** ** ***  *** **   PROGRAM STARTED ON                                  otto
 **    ****   ******    PROGRAM STARTED BY                                   ole
 ***** **    ** ** **   PROGRAM PROCESS ID                                  7794
  **** **  *******  **  PROGRAM STARTED IN /home/ole/git/pao_ml_equivar/2H2O_MD/
                                           frame_1625

 CP2K| version string:                    CP2K version 7.0 (Development Version)
 CP2K| source code revision number:                                git:8bf305913
 CP2K| cp2kflags: libint fftw3 libxc xsmm libderiv_max_am1=5 libint_max_am=6    
 CP2K| is freely available from                            https://www.cp2k.org/
 CP2K| Program compiled at                           So Jan 13 00:02:37 CET 2019
 CP2K| Program compiled on                                                  otto
 CP2K| Program compiled for                                                local
 CP2K| Data directory path                               /home/ole/git/cp2k/data
 CP2K| Input file name                                            2H2O_pao44.inp

 GLOBAL| Force Environment number                                              1
 GLOBAL| Basis set file name                                        BASIS_MOLOPT
 GLOBAL| Potential file name                                      GTH_POTENTIALS
 GLOBAL| MM Potential file name                                     MM_POTENTIAL
 GLOBAL| Coordinate file name                                         coords.xyz
 GLOBAL| Method name                                                        CP2K
 GLOBAL| Project name                                                 2H2O_pao44
 GLOBAL| Preferred FFT library                                             FFTW3
 GLOBAL| Preferred diagonalization lib.                                       SL
 GLOBAL| Run type                                                         ENERGY
 GLOBAL| All-to-all communication in single precision                          F
 GLOBAL| FFTs using library dependent lengths                                  F
 GLOBAL| Global print level                                                  LOW
 GLOBAL| MPI I/O enabled                                                       T
 GLOBAL| Total number of message passing processes                             1
 GLOBAL| Number of threads for this process                                    1
 GLOBAL| This output is from process                                           0
 GLOBAL| CPU model name :  Intel(R) Core(TM) i5-3320M CPU @ 2.60GHz

 MEMORY| system memory details [Kb]
 MEMORY|                        rank 0           min           max       average
 MEMORY| MemTotal              7860772       7860772       7860772       7860772
 MEMORY| MemFree                607180        607180        607180        607180
 MEMORY| Buffers               1048220       1048220       1048220       1048220
 MEMORY| Cached                2090420       2090420       2090420       2090420
 MEMORY| Slab                   280228        280228        280228        280228
 MEMORY| SReclaimable           155756        155756        155756        155756
 MEMORY| MemLikelyFree         3901576       3901576       3901576       3901576


 GENERATE|  Preliminary Number of Bonds generated:                             0
 GENERATE|  Achieved consistency in connectivity generation.

 *******************************************************************************
 *******************************************************************************
 **                                                                           **
 **     #####                         ##              ##                      **
 **    ##   ##            ##          ##              ##                      **
 **   ##     ##                       ##            ######                    **
 **   ##     ##  ##   ##  ##   #####  ##  ##   ####   ##    #####    #####    **
 **   ##     ##  ##   ##  ##  ##      ## ##   ##      ##   ##   ##  ##   ##   **
 **   ##  ## ##  ##   ##  ##  ##      ####     ###    ##   ######   ######    **
 **    ##  ###   ##   ##  ##  ##      ## ##      ##   ##   ##       ##        **
 **     #######   #####   ##   #####  ##  ##  ####    ##    #####   ##        **
 **           ##                                                    ##        **
 **                                                                           **
 **                                                ... make the atoms dance   **
 **                                                                           **
 **            Copyright (C) by CP2K developers group (2000 - 2018)           **
 **                                                                           **
 *******************************************************************************


 TOTAL NUMBERS AND MAXIMUM NUMBERS

  Total number of            - Atomic kinds:                                   2
                             - Atoms:                                          6
                             - Shell sets:                                     6
                             - Shells:                                        22
                             - Primitive Cartesian functions:                 42
                             - Cartesian basis functions:                     48
                             - Spherical basis functions:                     46

  Maximum angular momentum of- Orbital basis functions:                        2
                             - Local part of the GTH pseudopotential:          2
                             - Non-local part of the GTH pseudopotential:      0

 ------------------------------ Linear scaling SCF -----------------------------
 eps_scf:                                       0.100E-07
 eps_filter:                                    0.100E-07
 mixing_fraction:                               0.450E+00
 max_scf:                                              25
 fixed chemical potential (mu)                          F
 has unit metric:                                       F
 Computing inv(S):                                      T
 Computing sqrt(S):                                     T
 Computing s preconditioner                             F
 sign sqrt order:                                       3
 Extrapolation order:                                   1
 Use single precision matrices                          F
 S preconditioner type                               NONE
 Polarized Atomic Orbitals (PAO)                        T
 Purification method                      Trace resetting 4th order
 Cluster type                                      ATOMIC
 Computing Chebyshev                                FALSE
 Using PAO                                              T
 -------------------------------------------------------------------------------

 
 PAO|                                  EPS_PAO                           0.5E-06
 PAO|                                  MIXING                            0.5E+00
 PAO|                                  MAX_PAO                              1000
 PAO|                                  MAX_CYCLES                           1000
 PAO|                                  PARAMETERIZATION                   DIRECT
 PAO|                                  PRECONDITION                            F
 PAO|                                  REGULARIZATION                    0.0E+00
 PAO|                                  EPS_PGF                           0.1E-09
 PAO|                                  PENALTY_DISTANCE                  0.1E+00
 PAO|                                  PENALTY_STRENGTH                  0.5E-02
 PAO|                                  LINPOT_PRECONDITION_DELTA         0.0E+00
 PAO|                                  LINPOT_INITGUESS_DELT             0.0E+00
 PAO|                                  LINPOT_REGULARIZATION_DELTA       0.0E+00
 PAO|                                  LINPOT_REGULARIZATION_STRENGTH    0.0E+00
 PAO|                                  OPTIMIZER                              CG
 PAO|                                  CG_INIT_STEPS                           2
 PAO|                                  CG_RESET_LIMIT                    0.1E+00
 PAO|                                  CHECK_UNITARY_TOL                -0.1E+01
 PAO|                                  CHECK_GRADIENT_TOL               -0.1E+01
 PAO|                                  NUM_GRADIENT_ORDER                      2
 PAO|                                  NUM_GRADIENT_EPS                  0.1E-07
 PAO|                                  PRINT%RESTART%WRITE_CYCLES            100
 PAO|                                  RESTART_FILE 
 PAO|                                  PREOPT_DM_FILE 2H2O_ref_LS_DM_SPIN_1_RESTART.dm
 PAO|                                  MACHINE_LEARNING%METHOD        GAUSSIAN_P
 PAO|                                  MACHINE_LEARNING%PRIOR               ZERO
 PAO|                                  MACHINE_LEARNING%DESCRIPTOR     POTENTIAL
 PAO|                                  MACHINE_LEARNING%TOLERANCE        0.1E-01
 PAO|                                  MACHINE_LEARNING%GP_NOISE_VAR     0.1E+00
 PAO|                                  MACHINE_LEARNING%GP_SCALE         0.5E-01
 

 Calculating atomic Fock matrix for atomic kind: O

 Electronic structure
    Total number of core electrons                                          2.00
    Total number of valence electrons                                       6.00
    Total number of electrons                                               8.00
    Multiplicity                                                   not specified
    S   [  2.00] 2.00
    P      4.00


 *******************************************************************************
                  Iteration          Convergence                     Energy [au]
 *******************************************************************************
                          1        0.708315                     -15.576645311500
                          2        0.608879                     -15.587933561584
                          3        0.102828E-01                 -15.656849565404
                          4        0.113889E-02                 -15.656866888140
                          5        0.434197E-03                 -15.656867072159
                          6        0.263771E-03                 -15.656867091904
                          7        0.478536E-06                 -15.656867103452

 Energy components [Hartree]           Total Energy ::          -15.656867103452
                                        Band Energy ::           -3.000198112285
                                     Kinetic Energy ::           11.759971203220
                                   Potential Energy ::          -27.416838306672
                                      Virial (-V/T) ::            2.331369510426
                                        Core Energy ::          -26.140716385623
                                          XC Energy ::           -3.154051012914
                                     Coulomb Energy ::           13.637900295084
                       Total Pseudopotential Energy ::          -37.935781716540
                       Local Pseudopotential Energy ::          -39.218907440693
                    Nonlocal Pseudopotential Energy ::            1.283125724153
                                        Confinement ::            0.350941276976

 Orbital energies  State     L     Occupation   Energy[a.u.]          Energy[eV]

                       1     0          2.000      -0.864471          -23.523463

                       1     1          4.000      -0.317814           -8.648154


 Total Electron Density at R=0:                                         0.000068

 Calculating atomic Fock matrix for atomic kind: H

 Electronic structure
    Total number of core electrons                                          0.00
    Total number of valence electrons                                       1.00
    Total number of electrons                                               1.00
    Multiplicity                                                   not specified
    S      1.00


 *******************************************************************************
                  Iteration          Convergence                     Energy [au]
 *******************************************************************************
                          1        0.437545E-02                  -0.424159432110
                          2        0.531356E-03                  -0.424178438213
                          3        0.259176E-06                  -0.424178722480

 Energy components [Hartree]           Total Energy ::           -0.424178722480
                                        Band Energy ::           -0.199015229016
                                     Kinetic Energy ::            0.464007633961
                                   Potential Energy ::           -0.888186356441
                                      Virial (-V/T) ::            1.914163240935
                                        Core Energy ::           -0.479160803564
                                          XC Energy ::           -0.244352904054
                                     Coulomb Energy ::            0.299334985138
                       Total Pseudopotential Energy ::           -0.962295316385
                       Local Pseudopotential Energy ::           -0.962295316385
                    Nonlocal Pseudopotential Energy ::            0.000000000000
                                        Confinement ::            0.191268788606

 Orbital energies  State     L     Occupation   Energy[a.u.]          Energy[eV]

                       1     0          1.000      -0.199015           -5.415480


 Total Electron Density at R=0:                                         0.242907
 PAO| Made initial guess for matrix_X with norm:   4.8989794855663558     

     Lanczos converged:  T threshold:   0.100E-02
     Est. extremal eigenvalues:    0.320E+01   0.116E+00
     Est. condition number :    0.277E+02
     NS sqrt iter    1 1.00000000   0.779E+00       0.001       47.644
     NS sqrt iter    2 1.00000000   0.413E+00       0.001       83.899
     NS sqrt iter    3 1.00000000   0.156E+00       0.001       83.593
     NS sqrt iter    4 1.00000000   0.167E-01       0.001       84.666
     NS sqrt iter    5 1.00000000   0.314E-04       0.001       66.213
     Final NS sqrt iter    5 1.00000000   0.157E-08

 PAO| Read restart DM 2H2O_ref_LS_DM_SPIN_1_RESTART.dm with checksum:    65.044500170942840     
 PAO| Quickstep energy from restart density:  -34.446837515907518     
 PAO| ======================= Iteration:         1 =============================

     Lanczos converged:  T threshold:   0.100E-02
     Est. extremal eigenvalues:    0.320E+01   0.116E+00
     Est. condition number :    0.277E+02
     NS sqrt iter    1 1.00000000   0.779E+00       0.001       64.512
     NS sqrt iter    2 1.00000000   0.413E+00       0.001      110.592
     NS sqrt iter    3 1.00000000   0.156E+00       0.001      110.592
     NS sqrt iter    4 1.00000000   0.167E-01       0.001      110.592
     NS sqrt iter    5 1.00000000   0.314E-04       0.001       83.968
     Final NS sqrt iter    5 1.00000000   0.157E-08

     Est. extremal eigenvalues     -0.89854     1.74890  converged:  T
     TRS4 it   1 1.00000000   0.870E+00       0.000       16.128   0.100E-07
     TRS4 it   2 1.00000000   0.666E+00       0.001       32.256   0.100E-07
     TRS4 it   3 1.00000000   0.484E+00       0.001       32.256   0.100E-07
     TRS4 it   4 1.00000000   0.304E+00       0.001       32.256   0.100E-07
     TRS4 it   5 1.00000000   0.149E+00       0.001       32.256   0.100E-07
     TRS4 it   6 1.00000000   0.431E-01       0.001       32.256   0.100E-07
     TRS4 it   7 1.00000000   0.459E-02       0.001       32.256   0.100E-07
     TRS4 it   8 1.00000000   0.661E-04       0.001       32.256   0.100E-07
     TRS4 it   9 1.00000000   0.167E-07       0.001       32.256   0.100E-07
     Final TRS4 iteration    9 1.00000000   0.167E-07
     Chemical potential (mu):      -0.06892
 
 PAO| energy:  -7.5426722419172565      penalty:   3.1431176692399690E-033
 PAO|CG| warming up with steepest descent
 PAO|CG| beta:    0.0000000000000000     
 PAO| norm of gradient:  0.79018982874585730     
 PAO|LS| adapt:  T F F
 PAO|LS| adapt: scan_steps:    0.0000000000000000        0.0000000000000000        0.0000000000000000     
 PAO|LS| adapt: energies:   -7.5426722419172565        0.0000000000000000        0.0000000000000000     
 PAO| ======================= Iteration:         2 =============================

     Lanczos converged:  T threshold:   0.100E-02
     Est. extremal eigenvalues:    0.313E+01   0.129E+00
     Est. condition number :    0.242E+02
     NS sqrt iter    1 1.00000000   0.767E+00       0.001       64.512
     NS sqrt iter    2 1.00000000   0.399E+00       0.001      110.592
     NS sqrt iter    3 1.00000000   0.139E+00       0.001      110.592
     NS sqrt iter    4 1.00000000   0.113E-01       0.001      110.592
     NS sqrt iter    5 1.00000000   0.952E-05       0.001       82.944
     Final NS sqrt iter    5 1.00000000   0.147E-09

     Est. extremal eigenvalues     -0.90212     1.70480  converged:  T
     TRS4 it   1 1.00000000   0.867E+00       0.000       16.128   0.100E-07
     TRS4 it   2 1.00000000   0.648E+00       0.001       32.256   0.100E-07
     TRS4 it   3 1.00000000   0.466E+00       0.001       32.256   0.100E-07
     TRS4 it   4 1.00000000   0.282E+00       0.001       32.256   0.100E-07
     TRS4 it   5 1.00000000   0.128E+00       0.001       32.256   0.100E-07
     TRS4 it   6 1.00000000   0.321E-01       0.001       32.256   0.100E-07
     TRS4 it   7 1.00000000   0.256E-02       0.001       32.256   0.100E-07
     TRS4 it   8 1.00000000   0.208E-04       0.001       32.256   0.100E-07
     TRS4 it   9 1.00000000   0.167E-08       0.001       32.256   0.100E-07
     Final TRS4 iteration    9 1.00000000   0.167E-08
     Chemical potential (mu):      -0.05735
 
 PAO| energy:  -7.5989885549405987      penalty:   2.3216678191284493E-008
 PAO|LS| adapt:  T T F
 PAO|LS| adapt: scan_steps:    0.0000000000000000       0.10000000000000001        0.0000000000000000     
 PAO|LS| adapt: energies:   -7.5426722419172565       -7.5989885549405987        0.0000000000000000     
 PAO| ======================= Iteration:         3 =============================

     Lanczos converged:  T threshold:   0.100E-02
     Est. extremal eigenvalues:    0.305E+01   0.142E+00
     Est. condition number :    0.216E+02
     NS sqrt iter    1 1.00000000   0.753E+00       0.001       64.512
     NS sqrt iter    2 1.00000000   0.384E+00       0.001      110.592
     NS sqrt iter    3 1.00000000   0.123E+00       0.001      110.592
     NS sqrt iter    4 1.00000000   0.763E-02       0.001      110.592
     NS sqrt iter    5 1.00000000   0.306E-05       0.001       82.816
     Final NS sqrt iter    5 1.00000000   0.475E-10

     Est. extremal eigenvalues     -0.90545     1.67477  converged:  T
     TRS4 it   1 1.00000000   0.867E+00       0.000       16.128   0.100E-07
     TRS4 it   2 1.00000000   0.634E+00       0.001       32.256   0.100E-07
     TRS4 it   3 1.00000000   0.450E+00       0.001       32.256   0.100E-07
     TRS4 it   4 1.00000000   0.261E+00       0.001       32.256   0.100E-07
     TRS4 it   5 1.00000000   0.110E+00       0.001       32.256   0.100E-07
     TRS4 it   6 1.00000000   0.233E-01       0.001       32.256   0.100E-07
     TRS4 it   7 1.00000000   0.134E-02       0.001       32.256   0.100E-07
     TRS4 it   8 1.00000000   0.571E-05       0.001       32.256   0.100E-07
     TRS4 it   9 1.00000000   0.128E-09       0.001       32.256   0.100E-07
     Final TRS4 iteration    9 1.00000000   0.128E-09
     Chemical potential (mu):      -0.04470
 
 PAO| energy:  -7.6423742511298558      penalty:   3.7146647296727313E-007
 PAO|LS| adapt:  T T F
 PAO|LS| adapt: scan_steps:    0.0000000000000000       0.20000000000000001        0.0000000000000000     
 PAO|LS| adapt: energies:   -7.5426722419172565       -7.6423742511298558        0.0000000000000000     
 PAO| ======================= Iteration:         4 =============================

     Lanczos converged:  T threshold:   0.100E-02
     Est. extremal eigenvalues:    0.288E+01   0.160E+00
     Est. condition number :    0.181E+02
     NS sqrt iter    1 1.00000000   0.721E+00       0.001       64.512
     NS sqrt iter    2 1.00000000   0.352E+00       0.001      110.592
     NS sqrt iter    3 1.00000000   0.950E-01       0.001      110.592
     NS sqrt iter    4 1.00000000   0.368E-02       0.001      110.592
     NS sqrt iter    5 1.00000000   0.443E-06       0.001       80.000
     Final NS sqrt iter    5 1.00000000   0.583E-09

     Est. extremal eigenvalues     -0.91055     1.64021  converged:  T
     TRS4 it   1 1.00000000   0.871E+00       0.000       16.128   0.100E-07
     TRS4 it   2 1.00000000   0.613E+00       0.001       32.256   0.100E-07
     TRS4 it   3 1.00000000   0.422E+00       0.001       32.256   0.100E-07
     TRS4 it   4 1.00000000   0.225E+00       0.001       32.256   0.100E-07
     TRS4 it   5 1.00000000   0.795E-01       0.001       32.256   0.100E-07
     TRS4 it   6 1.00000000   0.117E-01       0.001       32.256   0.100E-07
     TRS4 it   7 1.00000000   0.320E-03       0.001       32.256   0.100E-07
     TRS4 it   8 1.00000000   0.319E-06       0.001       32.256   0.100E-07
     TRS4 it   9 1.00000000   0.410E-12       0.001       32.256   0.100E-07
     Final TRS4 iteration    9 1.00000000   0.410E-12
     Chemical potential (mu):      -0.01727
 
 PAO| energy:  -7.6886997804787933      penalty:   5.9434605432584667E-006
 PAO|LS| Need extra step
 PAO|LS| adapt:  T T F
 PAO|LS| adapt: scan_steps:    0.0000000000000000       0.40000000000000002        0.0000000000000000     
 PAO|LS| adapt: energies:   -7.5426722419172565       -7.6886997804787933        0.0000000000000000     
 PAO| ======================= Iteration:         5 =============================

     Lanczos converged:  T threshold:   0.100E-02
     Est. extremal eigenvalues:    0.256E+01   0.185E+00
     Est. condition number :    0.138E+02
     NS sqrt iter    1 1.00000000   0.664E+00       0.001       64.512
     NS sqrt iter    2 1.00000000   0.292E+00       0.001      110.592
     NS sqrt iter    3 1.00000000   0.577E-01       0.001      110.592
     NS sqrt iter    4 1.00000000   0.104E-02       0.001      110.592
     NS sqrt iter    5 1.00000000   0.130E-07       0.001       46.080
     Final NS sqrt iter    5 1.00000000   0.406E-08

     Est. extremal eigenvalues     -0.91131     1.61162  converged:  T
     TRS4 it   1 1.00000000   0.880E+00       0.000       16.128   0.100E-07
     TRS4 it   2 1.00000000   0.587E+00       0.001       32.256   0.100E-07
     TRS4 it   3 1.00000000   0.380E+00       0.001       32.256   0.100E-07
     TRS4 it   4 1.00000000   0.173E+00       0.001       32.256   0.100E-07
     TRS4 it   5 1.00000000   0.432E-01       0.001       32.256   0.100E-07
     TRS4 it   6 1.00000000   0.311E-02       0.001       32.256   0.100E-07
     TRS4 it   7 1.00000000   0.196E-04       0.001       32.256   0.100E-07
     TRS4 it   8 1.00000000   0.110E-08       0.001       32.256   0.100E-07
     Final TRS4 iteration    8 1.00000000   0.110E-08
     Chemical potential (mu):       0.02976
 
 PAO| energy:  -7.6264186699224519      penalty:   9.5095344500507640E-005
 PAO|LS| Need extra step
 PAO|LS| adapt:  T T T
 PAO|LS| adapt: scan_steps:    0.0000000000000000       0.40000000000000002       0.80000000000000004     
 PAO|LS| adapt: energies:   -7.5426722419172565       -7.6886997804787933       -7.6264186699224519     
 PAO|LS| adapt: suggested step_size:   0.48040609773990212     
 PAO|LS| adapt: predicted energy  -7.6929083576510138     
 PAO| ======================= Iteration:         6 =============================

     Lanczos converged:  T threshold:   0.100E-02
     Est. extremal eigenvalues:    0.281E+01   0.165E+00
     Est. condition number :    0.170E+02
     NS sqrt iter    1 1.00000000   0.709E+00       0.001       64.512
     NS sqrt iter    2 1.00000000   0.339E+00       0.001      110.592
     NS sqrt iter    3 1.00000000   0.856E-01       0.001      110.592
     NS sqrt iter    4 1.00000000   0.281E-02       0.001      110.592
     NS sqrt iter    5 1.00000000   0.218E-06       0.001       76.160
     Final NS sqrt iter    5 1.00000000   0.640E-09

     Est. extremal eigenvalues     -0.91179     1.63180  converged:  T
     TRS4 it   1 1.00000000   0.873E+00       0.000       16.128   0.100E-07
     TRS4 it   2 1.00000000   0.607E+00       0.001       32.256   0.100E-07
     TRS4 it   3 1.00000000   0.412E+00       0.001       32.256   0.100E-07
     TRS4 it   4 1.00000000   0.213E+00       0.001       32.256   0.100E-07
     TRS4 it   5 1.00000000   0.698E-01       0.001       32.256   0.100E-07
     TRS4 it   6 1.00000000   0.882E-02       0.001       32.256   0.100E-07
     TRS4 it   7 1.00000000   0.174E-03       0.001       32.256   0.100E-07
     TRS4 it   8 1.00000000   0.931E-07       0.001       32.256   0.100E-07
     TRS4 it   9 1.00000000   0.350E-13       0.001       32.256   0.100E-07
     Final TRS4 iteration    9 1.00000000   0.350E-13
     Chemical potential (mu):      -0.00594
 
 PAO| energy:  -7.6922229533937614      penalty:   1.2366119143806525E-005
 PAO|CG| warming up with steepest descent
 PAO|CG| beta:    0.0000000000000000     
 PAO| norm of gradient:  0.41629554805230679     
 PAO| energy improvement: -0.14955071147650489     
 PAO| step      6                   -7.692222953  0.260E-01  0.480E+00     0.076
 PAO|LS| adapt:  T F F
 PAO|LS| adapt: scan_steps:    0.0000000000000000        0.0000000000000000        0.0000000000000000     
 PAO|LS| adapt: energies:   -7.6922229533937614        0.0000000000000000        0.0000000000000000     
 PAO| ======================= Iteration:         7 =============================

     Lanczos converged:  T threshold:   0.100E-02
     Est. extremal eigenvalues:    0.273E+01   0.180E+00
     Est. condition number :    0.152E+02
     NS sqrt iter    1 1.00000000   0.692E+00       0.001       64.512
     NS sqrt iter    2 1.00000000   0.318E+00       0.001      110.592
     NS sqrt iter    3 1.00000000   0.709E-01       0.001      110.592
     NS sqrt iter    4 1.00000000   0.167E-02       0.001      110.592
     NS sqrt iter    5 1.00000000   0.501E-07       0.001       61.824
     Final NS sqrt iter    5 1.00000000   0.367E-08

     Est. extremal eigenvalues     -0.91341     1.63336  converged:  T
     TRS4 it   1 1.00000000   0.876E+00       0.000       16.128   0.100E-07
     TRS4 it   2 1.00000000   0.609E+00       0.001       32.256   0.100E-07
     TRS4 it   3 1.00000000   0.415E+00       0.001       32.256   0.100E-07
     TRS4 it   4 1.00000000   0.216E+00       0.001       32.256   0.100E-07
     TRS4 it   5 1.00000000   0.718E-01       0.001       32.256   0.100E-07
     TRS4 it   6 1.00000000   0.918E-02       0.001       32.256   0.100E-07
     TRS4 it   7 1.00000000   0.183E-03       0.001       32.256   0.100E-07
     TRS4 it   8 1.00000000   0.995E-07       0.001       32.256   0.100E-07
     TRS4 it   9 1.00000000   0.399E-13       0.001       32.256   0.100E-07
     Final TRS4 iteration    9 1.00000000   0.399E-13
     Chemical potential (mu):      -0.00550
 
 PAO| energy:  -7.6893095167937124      penalty:   1.8498006035634569E-005
 PAO|LS| adapt:  T F T
 PAO|LS| adapt: scan_steps:    0.0000000000000000        0.0000000000000000       0.48040609773990212     
 PAO|LS| adapt: energies:   -7.6922229533937614        0.0000000000000000       -7.6893095167937124     
 PAO| ======================= Iteration:         8 =============================

     Lanczos converged:  T threshold:   0.100E-02
     Est. extremal eigenvalues:    0.277E+01   0.172E+00
     Est. condition number :    0.161E+02
     NS sqrt iter    1 1.00000000   0.700E+00       0.001       64.512
     NS sqrt iter    2 1.00000000   0.329E+00       0.001      110.592
     NS sqrt iter    3 1.00000000   0.781E-01       0.001      110.592
     NS sqrt iter    4 1.00000000   0.218E-02       0.001      110.592
     NS sqrt iter    5 1.00000000   0.107E-06       0.001       68.608
     Final NS sqrt iter    5 1.00000000   0.713E-09

     Est. extremal eigenvalues     -0.91347     1.63226  converged:  T
     TRS4 it   1 1.00000000   0.874E+00       0.000       16.128   0.100E-07
     TRS4 it   2 1.00000000   0.607E+00       0.001       32.256   0.100E-07
     TRS4 it   3 1.00000000   0.413E+00       0.001       32.256   0.100E-07
     TRS4 it   4 1.00000000   0.214E+00       0.001       32.256   0.100E-07
     TRS4 it   5 1.00000000   0.707E-01       0.001       32.256   0.100E-07
     TRS4 it   6 1.00000000   0.910E-02       0.001       32.256   0.100E-07
     TRS4 it   7 1.00000000   0.185E-03       0.001       32.256   0.100E-07
     TRS4 it   8 1.00000000   0.103E-06       0.001       32.256   0.100E-07
     TRS4 it   9 1.00000000   0.430E-13       0.001       32.256   0.100E-07
     Final TRS4 iteration    9 1.00000000   0.430E-13
     Chemical potential (mu):      -0.00620
 
 PAO| energy:  -7.7120930645000705      penalty:   1.3386183905982628E-005
 PAO|LS| adapt:  T T T
 PAO|LS| adapt: scan_steps:    0.0000000000000000       0.24020304886995106       0.48040609773990212     
 PAO|LS| adapt: energies:   -7.6922229533937614       -7.7120930645000705       -7.6893095167937124     
 PAO|LS| adapt: suggested step_size:   0.23199957496523141     
 PAO|LS| adapt: predicted energy  -7.7121179396018169     
 PAO| ======================= Iteration:         9 =============================

     Lanczos converged:  T threshold:   0.100E-02
     Est. extremal eigenvalues:    0.277E+01   0.172E+00
     Est. condition number :    0.161E+02
     NS sqrt iter    1 1.00000000   0.701E+00       0.001       64.512
     NS sqrt iter    2 1.00000000   0.329E+00       0.001      110.592
     NS sqrt iter    3 1.00000000   0.783E-01       0.001      110.592
     NS sqrt iter    4 1.00000000   0.220E-02       0.001      110.592
     NS sqrt iter    5 1.00000000   0.110E-06       0.001       68.736
     Final NS sqrt iter    5 1.00000000   0.221E-08

     Est. extremal eigenvalues     -0.91344     1.63223  converged:  T
     TRS4 it   1 1.00000000   0.874E+00       0.000       16.128   0.100E-07
     TRS4 it   2 1.00000000   0.607E+00       0.001       32.256   0.100E-07
     TRS4 it   3 1.00000000   0.413E+00       0.001       32.256   0.100E-07
     TRS4 it   4 1.00000000   0.214E+00       0.001       32.256   0.100E-07
     TRS4 it   5 1.00000000   0.707E-01       0.001       32.256   0.100E-07
     TRS4 it   6 1.00000000   0.910E-02       0.001       32.256   0.100E-07
     TRS4 it   7 1.00000000   0.185E-03       0.001       32.256   0.100E-07
     TRS4 it   8 1.00000000   0.103E-06       0.001       32.256   0.100E-07
     TRS4 it   9 1.00000000   0.428E-13       0.001       32.256   0.100E-07
     Final TRS4 iteration    9 1.00000000   0.428E-13
     Chemical potential (mu):      -0.00621
 
 PAO| energy:  -7.7121293894471092      penalty:   1.3301648461823782E-005
 PAO|CG| trace_G_new    3.7769600159977303E-002
 PAO|CG| trace_G_prev   0.17330198332817043     
 PAO|CG| trace_G_mix   -1.3756868583668157E-003
 PAO|CG| trace_D   0.17330198332817043     
 PAO|CG| trace_D_Gnew   1.3756868583668157E-003
 PAO|CG| beta:   0.22587904804422979     
 PAO| norm of gradient:  0.19434402527471045     
 PAO| energy improvement:  -1.9906436053347853E-002
 PAO| step      9                   -7.712129389  0.121E-01  0.232E+00     0.048
 PAO|LS| adapt:  T F F
 PAO|LS| adapt: scan_steps:    0.0000000000000000        0.0000000000000000        0.0000000000000000     
 PAO|LS| adapt: energies:   -7.7121293894471092        0.0000000000000000        0.0000000000000000     
 PAO| ======================= Iteration:        10 =============================

     Lanczos converged:  T threshold:   0.100E-02
     Est. extremal eigenvalues:    0.274E+01   0.178E+00
     Est. condition number :    0.154E+02
     NS sqrt iter    1 1.00000000   0.693E+00       0.001       64.512
     NS sqrt iter    2 1.00000000   0.320E+00       0.001      110.592
     NS sqrt iter    3 1.00000000   0.729E-01       0.001      110.592
     NS sqrt iter    4 1.00000000   0.180E-02       0.001      110.592
     NS sqrt iter    5 1.00000000   0.612E-07       0.001       66.304
     Final NS sqrt iter    5 1.00000000   0.554E-09

     Est. extremal eigenvalues     -0.91431     1.63816  converged:  T
     TRS4 it   1 1.00000000   0.876E+00       0.000       16.128   0.100E-07
     TRS4 it   2 1.00000000   0.609E+00       0.001       32.256   0.100E-07
     TRS4 it   3 1.00000000   0.413E+00       0.001       32.256   0.100E-07
     TRS4 it   4 1.00000000   0.213E+00       0.001       32.256   0.100E-07
     TRS4 it   5 1.00000000   0.698E-01       0.001       32.256   0.100E-07
     TRS4 it   6 1.00000000   0.880E-02       0.001       32.256   0.100E-07
     TRS4 it   7 1.00000000   0.171E-03       0.001       32.256   0.100E-07
     TRS4 it   8 1.00000000   0.868E-07       0.001       32.256   0.100E-07
     TRS4 it   9 1.00000000   0.306E-13       0.001       32.256   0.100E-07
     Final TRS4 iteration    9 1.00000000   0.306E-13
     Chemical potential (mu):      -0.00361
 
 PAO| energy:  -7.7172392861174002      penalty:   1.3873847185874139E-005
 PAO|LS| adapt:  T T F
 PAO|LS| adapt: scan_steps:    0.0000000000000000       0.23199957496523141        0.0000000000000000     
 PAO|LS| adapt: energies:   -7.7121293894471092       -7.7172392861174002        0.0000000000000000     
 PAO| ======================= Iteration:        11 =============================

     Lanczos converged:  T threshold:   0.100E-02
     Est. extremal eigenvalues:    0.270E+01   0.183E+00
     Est. condition number :    0.147E+02
     NS sqrt iter    1 1.00000000   0.685E+00       0.001       64.512
     NS sqrt iter    2 1.00000000   0.312E+00       0.001      110.592
     NS sqrt iter    3 1.00000000   0.676E-01       0.001      110.592
     NS sqrt iter    4 1.00000000   0.146E-02       0.001      110.592
     NS sqrt iter    5 1.00000000   0.331E-07       0.001       55.424
     Final NS sqrt iter    5 1.00000000   0.504E-08

     Est. extremal eigenvalues     -0.91402     1.64477  converged:  T
     TRS4 it   1 1.00000000   0.878E+00       0.000       16.128   0.100E-07
     TRS4 it   2 1.00000000   0.610E+00       0.001       32.256   0.100E-07
     TRS4 it   3 1.00000000   0.414E+00       0.001       32.256   0.100E-07
     TRS4 it   4 1.00000000   0.212E+00       0.001       32.256   0.100E-07
     TRS4 it   5 1.00000000   0.688E-01       0.001       32.256   0.100E-07
     TRS4 it   6 1.00000000   0.850E-02       0.001       32.256   0.100E-07
     TRS4 it   7 1.00000000   0.157E-03       0.001       32.256   0.100E-07
     TRS4 it   8 1.00000000   0.723E-07       0.001       32.256   0.100E-07
     Final TRS4 iteration    8 1.00000000   0.723E-07
     Chemical potential (mu):      -0.00088
 
 PAO| energy:  -7.7154525927968383      penalty:   1.5143964647180385E-005
 PAO|LS| adapt:  T T T
 PAO|LS| adapt: scan_steps:    0.0000000000000000       0.23199957496523141       0.46399914993046282     
 PAO|LS| adapt: energies:   -7.7121293894471092       -7.7172392861174002       -7.7154525927968383     
 PAO|LS| adapt: suggested step_size:   0.28789544275516388     
 PAO|LS| adapt: predicted energy  -7.7174394517158751     
 PAO| ======================= Iteration:        12 =============================

     Lanczos converged:  T threshold:   0.100E-02
     Est. extremal eigenvalues:    0.273E+01   0.179E+00
     Est. condition number :    0.152E+02
     NS sqrt iter    1 1.00000000   0.691E+00       0.001       64.512
     NS sqrt iter    2 1.00000000   0.318E+00       0.001      110.592
     NS sqrt iter    3 1.00000000   0.716E-01       0.001      110.592
     NS sqrt iter    4 1.00000000   0.171E-02       0.001      110.592
     NS sqrt iter    5 1.00000000   0.530E-07       0.001       65.664
     Final NS sqrt iter    5 1.00000000   0.485E-09

     Est. extremal eigenvalues     -0.91434     1.63970  converged:  T
     TRS4 it   1 1.00000000   0.876E+00       0.000       16.128   0.100E-07
     TRS4 it   2 1.00000000   0.609E+00       0.001       32.256   0.100E-07
     TRS4 it   3 1.00000000   0.413E+00       0.001       32.256   0.100E-07
     TRS4 it   4 1.00000000   0.213E+00       0.001       32.256   0.100E-07
     TRS4 it   5 1.00000000   0.695E-01       0.001       32.256   0.100E-07
     TRS4 it   6 1.00000000   0.872E-02       0.001       32.256   0.100E-07
     TRS4 it   7 1.00000000   0.167E-03       0.001       32.256   0.100E-07
     TRS4 it   8 1.00000000   0.831E-07       0.001       32.256   0.100E-07
     TRS4 it   9 1.00000000   0.281E-13       0.001       32.256   0.100E-07
     Final TRS4 iteration    9 1.00000000   0.281E-13
     Chemical potential (mu):      -0.00297
 
 PAO| energy:  -7.7174241180464058      penalty:   1.4108665937670391E-005
 PAO|CG| trace_G_new    1.2394845230477446E-002
 PAO|CG| trace_G_prev    3.7769600159977303E-002
 PAO|CG| trace_G_mix   -5.1666002549147390E-004
 PAO|CG| trace_D    4.5990222651149298E-002
 PAO|CG| trace_D_Gnew   2.4137853865412715E-004
 PAO|CG| beta:   0.34184913796494582     
 PAO| norm of gradient:  0.11133213925222782     
 PAO| energy improvement:  -5.2947285992965831E-003
 PAO| step     12                   -7.717424118  0.696E-02  0.288E+00     0.047
 PAO|LS| adapt:  T F F
 PAO|LS| adapt: scan_steps:    0.0000000000000000        0.0000000000000000        0.0000000000000000     
 PAO|LS| adapt: energies:   -7.7174241180464058        0.0000000000000000        0.0000000000000000     
 PAO| ======================= Iteration:        13 =============================

     Lanczos converged:  T threshold:   0.100E-02
     Est. extremal eigenvalues:    0.270E+01   0.183E+00
     Est. condition number :    0.147E+02
     NS sqrt iter    1 1.00000000   0.684E+00       0.001       64.512
     NS sqrt iter    2 1.00000000   0.311E+00       0.001      110.592
     NS sqrt iter    3 1.00000000   0.674E-01       0.001      110.592
     NS sqrt iter    4 1.00000000   0.145E-02       0.001      110.592
     NS sqrt iter    5 1.00000000   0.332E-07       0.001       55.424
     Final NS sqrt iter    5 1.00000000   0.498E-08

     Est. extremal eigenvalues     -0.91482     1.63951  converged:  T
     TRS4 it   1 1.00000000   0.878E+00       0.000       16.128   0.100E-07
     TRS4 it   2 1.00000000   0.608E+00       0.001       32.256   0.100E-07
     TRS4 it   3 1.00000000   0.411E+00       0.001       32.256   0.100E-07
     TRS4 it   4 1.00000000   0.209E+00       0.001       32.256   0.100E-07
     TRS4 it   5 1.00000000   0.666E-01       0.001       32.256   0.100E-07
     TRS4 it   6 1.00000000   0.794E-02       0.001       32.256   0.100E-07
     TRS4 it   7 1.00000000   0.137E-03       0.001       32.256   0.100E-07
     TRS4 it   8 1.00000000   0.550E-07       0.001       32.256   0.100E-07
     Final TRS4 iteration    8 1.00000000   0.550E-07
     Chemical potential (mu):       0.00107
 
 PAO| energy:  -7.7195519132911752      penalty:   1.4445901923189466E-005
 PAO|LS| adapt:  T T F
 PAO|LS| adapt: scan_steps:    0.0000000000000000       0.28789544275516388        0.0000000000000000     
 PAO|LS| adapt: energies:   -7.7174241180464058       -7.7195519132911752        0.0000000000000000     
 PAO| ======================= Iteration:        14 =============================

     Lanczos converged:  T threshold:   0.100E-02
     Est. extremal eigenvalues:    0.266E+01   0.187E+00
     Est. condition number :    0.143E+02
     NS sqrt iter    1 1.00000000   0.677E+00       0.001       64.512
     NS sqrt iter    2 1.00000000   0.304E+00       0.001      110.592
     NS sqrt iter    3 1.00000000   0.636E-01       0.001      110.592
     NS sqrt iter    4 1.00000000   0.124E-02       0.001      110.592
     NS sqrt iter    5 1.00000000   0.205E-07       0.001       47.744
     Final NS sqrt iter    5 1.00000000   0.520E-08

     Est. extremal eigenvalues     -0.91477     1.63928  converged:  T
     TRS4 it   1 1.00000000   0.880E+00       0.000       16.128   0.100E-07
     TRS4 it   2 1.00000000   0.606E+00       0.001       32.256   0.100E-07
     TRS4 it   3 1.00000000   0.408E+00       0.001       32.256   0.100E-07
     TRS4 it   4 1.00000000   0.205E+00       0.001       32.256   0.100E-07
     TRS4 it   5 1.00000000   0.637E-01       0.001       32.256   0.100E-07
     TRS4 it   6 1.00000000   0.723E-02       0.001       32.256   0.100E-07
     TRS4 it   7 1.00000000   0.112E-03       0.001       32.256   0.100E-07
     TRS4 it   8 1.00000000   0.365E-07       0.001       32.256   0.100E-07
     Final TRS4 iteration    8 1.00000000   0.365E-07
     Chemical potential (mu):       0.00476
 
 PAO| energy:  -7.7188971285083241      penalty:   1.5264168317797313E-005
 PAO|LS| adapt:  T T T
 PAO|LS| adapt: scan_steps:    0.0000000000000000       0.28789544275516388       0.57579088551032775     
 PAO|LS| adapt: energies:   -7.7174241180464058       -7.7195519132911752       -7.7188971285083241     
 PAO|LS| adapt: suggested step_size:   0.36409684485456772     
 PAO|LS| adapt: predicted energy  -7.7196493839748292     
 PAO| ======================= Iteration:        15 =============================

     Lanczos converged:  T threshold:   0.100E-02
     Est. extremal eigenvalues:    0.269E+01   0.184E+00
     Est. condition number :    0.146E+02
     NS sqrt iter    1 1.00000000   0.682E+00       0.001       64.512
     NS sqrt iter    2 1.00000000   0.310E+00       0.001      110.592
     NS sqrt iter    3 1.00000000   0.664E-01       0.001      110.592
     NS sqrt iter    4 1.00000000   0.139E-02       0.001      110.592
     NS sqrt iter    5 1.00000000   0.294E-07       0.001       55.040
     Final NS sqrt iter    5 1.00000000   0.447E-08

     Est. extremal eigenvalues     -0.91486     1.63946  converged:  T
     TRS4 it   1 1.00000000   0.878E+00       0.000       16.128   0.100E-07
     TRS4 it   2 1.00000000   0.607E+00       0.001       32.256   0.100E-07
     TRS4 it   3 1.00000000   0.410E+00       0.001       32.256   0.100E-07
     TRS4 it   4 1.00000000   0.208E+00       0.001       32.256   0.100E-07
     TRS4 it   5 1.00000000   0.658E-01       0.001       32.256   0.100E-07
     TRS4 it   6 1.00000000   0.774E-02       0.001       32.256   0.100E-07
     TRS4 it   7 1.00000000   0.130E-03       0.001       32.256   0.100E-07
     TRS4 it   8 1.00000000   0.494E-07       0.001       32.256   0.100E-07
     Final TRS4 iteration    8 1.00000000   0.494E-07
     Chemical potential (mu):       0.00206
 
 PAO| energy:  -7.7196462411908202      penalty:   1.4612425964631921E-005
 PAO|CG| trace_G_new    2.5775391019225878E-003
 PAO|CG| trace_G_prev    1.2394845230477446E-002
 PAO|CG| trace_G_mix    9.0478079452687332E-005
 PAO|CG| trace_D    1.7604270874479997E-002
 PAO|CG| trace_D_Gnew   3.5196653765327837E-005
 PAO|CG| beta:   0.20065285013438605     
 PAO| norm of gradient:   5.0769470175712768E-002
 PAO| energy improvement:  -2.2221231444143896E-003
 PAO| step     15                   -7.719646241  0.317E-02  0.364E+00     0.046
 PAO|LS| adapt:  T F F
 PAO|LS| adapt: scan_steps:    0.0000000000000000        0.0000000000000000        0.0000000000000000     
 PAO|LS| adapt: energies:   -7.7196462411908202        0.0000000000000000        0.0000000000000000     
 PAO| ======================= Iteration:        16 =============================

     Lanczos converged:  T threshold:   0.100E-02
     Est. extremal eigenvalues:    0.268E+01   0.184E+00
     Est. condition number :    0.145E+02
     NS sqrt iter    1 1.00000000   0.680E+00       0.001       64.512
     NS sqrt iter    2 1.00000000   0.308E+00       0.001      110.592
     NS sqrt iter    3 1.00000000   0.659E-01       0.001      110.592
     NS sqrt iter    4 1.00000000   0.136E-02       0.001      110.592
     NS sqrt iter    5 1.00000000   0.272E-07       0.001       54.400
     Final NS sqrt iter    5 1.00000000   0.376E-08

     Est. extremal eigenvalues     -0.91488     1.64055  converged:  T
     TRS4 it   1 1.00000000   0.879E+00       0.000       16.128   0.100E-07
     TRS4 it   2 1.00000000   0.607E+00       0.001       32.256   0.100E-07
     TRS4 it   3 1.00000000   0.409E+00       0.001       32.256   0.100E-07
     TRS4 it   4 1.00000000   0.206E+00       0.001       32.256   0.100E-07
     TRS4 it   5 1.00000000   0.649E-01       0.001       32.256   0.100E-07
     TRS4 it   6 1.00000000   0.755E-02       0.001       32.256   0.100E-07
     TRS4 it   7 1.00000000   0.124E-03       0.001       32.256   0.100E-07
     TRS4 it   8 1.00000000   0.455E-07       0.001       32.256   0.100E-07
     Final TRS4 iteration    8 1.00000000   0.455E-07
     Chemical potential (mu):       0.00284
 
 PAO| energy:  -7.7197938954854584      penalty:   1.4409511873994811E-005
 PAO|LS| adapt:  T T F
 PAO|LS| adapt: scan_steps:    0.0000000000000000       0.36409684485456772        0.0000000000000000     
 PAO|LS| adapt: energies:   -7.7196462411908202       -7.7197938954854584        0.0000000000000000     
 PAO| ======================= Iteration:        17 =============================

     Lanczos converged:  T threshold:   0.100E-02
     Est. extremal eigenvalues:    0.267E+01   0.185E+00
     Est. condition number :    0.144E+02
     NS sqrt iter    1 1.00000000   0.679E+00       0.001       64.512
     NS sqrt iter    2 1.00000000   0.307E+00       0.001      110.592
     NS sqrt iter    3 1.00000000   0.654E-01       0.001      110.592
     NS sqrt iter    4 1.00000000   0.133E-02       0.001      110.592
     NS sqrt iter    5 1.00000000   0.250E-07       0.001       52.352
     Final NS sqrt iter    5 1.00000000   0.387E-08

     Est. extremal eigenvalues     -0.91477     1.64174  converged:  T
     TRS4 it   1 1.00000000   0.880E+00       0.000       16.128   0.100E-07
     TRS4 it   2 1.00000000   0.607E+00       0.001       32.256   0.100E-07
     TRS4 it   3 1.00000000   0.408E+00       0.001       32.256   0.100E-07
     TRS4 it   4 1.00000000   0.205E+00       0.001       32.256   0.100E-07
     TRS4 it   5 1.00000000   0.640E-01       0.001       32.256   0.100E-07
     TRS4 it   6 1.00000000   0.736E-02       0.001       32.256   0.100E-07
     TRS4 it   7 1.00000000   0.119E-03       0.001       32.256   0.100E-07
     TRS4 it   8 1.00000000   0.420E-07       0.001       32.256   0.100E-07
     Final TRS4 iteration    8 1.00000000   0.420E-07
     Chemical potential (mu):       0.00360
 
 PAO| energy:  -7.7183592759258364      penalty:   1.4318896962379915E-005
 PAO|LS| adapt:  T T T
 PAO|LS| adapt: scan_steps:    0.0000000000000000       0.36409684485456772       0.72819368970913545     
 PAO|LS| adapt: energies:   -7.7196462411908202       -7.7197938954854584       -7.7183592759258364     
 PAO|LS| adapt: suggested step_size:   0.21602513427285333     
 PAO|LS| adapt: predicted energy  -7.7199247419559383     
 PAO| ======================= Iteration:        18 =============================

     Lanczos converged:  T threshold:   0.100E-02
     Est. extremal eigenvalues:    0.268E+01   0.184E+00
     Est. condition number :    0.146E+02
     NS sqrt iter    1 1.00000000   0.681E+00       0.001       64.512
     NS sqrt iter    2 1.00000000   0.309E+00       0.001      110.592
     NS sqrt iter    3 1.00000000   0.661E-01       0.001      110.592
     NS sqrt iter    4 1.00000000   0.137E-02       0.001      110.592
     NS sqrt iter    5 1.00000000   0.281E-07       0.001       54.528
     Final NS sqrt iter    5 1.00000000   0.386E-08

     Est. extremal eigenvalues     -0.91489     1.64009  converged:  T
     TRS4 it   1 1.00000000   0.879E+00       0.000       16.128   0.100E-07
     TRS4 it   2 1.00000000   0.607E+00       0.001       32.256   0.100E-07
     TRS4 it   3 1.00000000   0.409E+00       0.001       32.256   0.100E-07
     TRS4 it   4 1.00000000   0.207E+00       0.001       32.256   0.100E-07
     TRS4 it   5 1.00000000   0.653E-01       0.001       32.256   0.100E-07
     TRS4 it   6 1.00000000   0.763E-02       0.001       32.256   0.100E-07
     TRS4 it   7 1.00000000   0.126E-03       0.001       32.256   0.100E-07
     TRS4 it   8 1.00000000   0.470E-07       0.001       32.256   0.100E-07
     Final TRS4 iteration    8 1.00000000   0.470E-07
     Chemical potential (mu):       0.00252
 
 PAO| energy:  -7.7199242739701157      penalty:   1.4478722548384630E-005
 PAO|CG| trace_G_new    7.6559595837960071E-004
 PAO|CG| trace_G_prev    2.5775391019225878E-003
 PAO|CG| trace_G_mix    2.0384948719112645E-006
 PAO|CG| trace_D    3.2721900025321922E-003
 PAO|CG| trace_D_Gnew  -1.9820031216784781E-006
 PAO|CG| beta:   0.29623506504252506     
 PAO| norm of gradient:   2.7669404734825803E-002
 PAO| energy improvement:  -2.7803277929550063E-004
 PAO| step     18                   -7.719924274  0.173E-02  0.216E+00     0.049
 PAO|LS| adapt:  T F F
 PAO|LS| adapt: scan_steps:    0.0000000000000000        0.0000000000000000        0.0000000000000000     
 PAO|LS| adapt: energies:   -7.7199242739701157        0.0000000000000000        0.0000000000000000     
 PAO| ======================= Iteration:        19 =============================

     Lanczos converged:  T threshold:   0.100E-02
     Est. extremal eigenvalues:    0.268E+01   0.184E+00
     Est. condition number :    0.146E+02
     NS sqrt iter    1 1.00000000   0.681E+00       0.001       64.512
     NS sqrt iter    2 1.00000000   0.309E+00       0.001      110.592
     NS sqrt iter    3 1.00000000   0.663E-01       0.001      110.592
     NS sqrt iter    4 1.00000000   0.138E-02       0.001      110.592
     NS sqrt iter    5 1.00000000   0.283E-07       0.001       54.784
     Final NS sqrt iter    5 1.00000000   0.391E-08

     Est. extremal eigenvalues     -0.91489     1.64053  converged:  T
     TRS4 it   1 1.00000000   0.879E+00       0.000       16.128   0.100E-07
     TRS4 it   2 1.00000000   0.607E+00       0.001       32.256   0.100E-07
     TRS4 it   3 1.00000000   0.409E+00       0.001       32.256   0.100E-07
     TRS4 it   4 1.00000000   0.207E+00       0.001       32.256   0.100E-07
     TRS4 it   5 1.00000000   0.652E-01       0.001       32.256   0.100E-07
     TRS4 it   6 1.00000000   0.763E-02       0.001       32.256   0.100E-07
     TRS4 it   7 1.00000000   0.127E-03       0.001       32.256   0.100E-07
     TRS4 it   8 1.00000000   0.479E-07       0.001       32.256   0.100E-07
     Final TRS4 iteration    8 1.00000000   0.479E-07
     Chemical potential (mu):       0.00235
 
 PAO| energy:  -7.7200482225911573      penalty:   1.4196278961157526E-005
 PAO|LS| adapt:  T T F
 PAO|LS| adapt: scan_steps:    0.0000000000000000       0.21602513427285333        0.0000000000000000     
 PAO|LS| adapt: energies:   -7.7199242739701157       -7.7200482225911573        0.0000000000000000     
 PAO| ======================= Iteration:        20 =============================

     Lanczos converged:  T threshold:   0.100E-02
     Est. extremal eigenvalues:    0.268E+01   0.184E+00
     Est. condition number :    0.146E+02
     NS sqrt iter    1 1.00000000   0.681E+00       0.001       64.512
     NS sqrt iter    2 1.00000000   0.309E+00       0.001      110.311
     NS sqrt iter    3 1.00000000   0.665E-01       0.001      110.592
     NS sqrt iter    4 1.00000000   0.139E-02       0.001      110.592
     NS sqrt iter    5 1.00000000   0.286E-07       0.001       55.040
     Final NS sqrt iter    5 1.00000000   0.446E-08

     Est. extremal eigenvalues     -0.91488     1.64098  converged:  T
     TRS4 it   1 1.00000000   0.879E+00       0.000       16.128   0.100E-07
     TRS4 it   2 1.00000000   0.607E+00       0.001       32.256   0.100E-07
     TRS4 it   3 1.00000000   0.409E+00       0.001       32.256   0.100E-07
     TRS4 it   4 1.00000000   0.207E+00       0.001       32.256   0.100E-07
     TRS4 it   5 1.00000000   0.651E-01       0.001       32.256   0.100E-07
     TRS4 it   6 1.00000000   0.763E-02       0.001       32.256   0.100E-07
     TRS4 it   7 1.00000000   0.128E-03       0.001       32.256   0.100E-07
     TRS4 it   8 1.00000000   0.488E-07       0.001       32.256   0.100E-07
     Final TRS4 iteration    8 1.00000000   0.488E-07
     Chemical potential (mu):       0.00218
 
 PAO| energy:  -7.7200885711111313      penalty:   1.3926965703760133E-005
 PAO|LS| adapt:  T T F
 PAO|LS| adapt: scan_steps:    0.0000000000000000       0.43205026854570666        0.0000000000000000     
 PAO|LS| adapt: energies:   -7.7199242739701157       -7.7200885711111313        0.0000000000000000     
 PAO| ======================= Iteration:        21 =============================

     Lanczos converged:  T threshold:   0.100E-02
     Est. extremal eigenvalues:    0.268E+01   0.184E+00
     Est. condition number :    0.146E+02
     NS sqrt iter    1 1.00000000   0.681E+00       0.001       64.512
     NS sqrt iter    2 1.00000000   0.310E+00       0.001      110.592
     NS sqrt iter    3 1.00000000   0.670E-01       0.001      110.592
     NS sqrt iter    4 1.00000000   0.141E-02       0.001      110.592
     NS sqrt iter    5 1.00000000   0.293E-07       0.001       55.040
     Final NS sqrt iter    5 1.00000000   0.466E-08

     Est. extremal eigenvalues     -0.91487     1.64188  converged:  T
     TRS4 it   1 1.00000000   0.879E+00       0.000       16.128   0.100E-07
     TRS4 it   2 1.00000000   0.607E+00       0.001       32.256   0.100E-07
     TRS4 it   3 1.00000000   0.409E+00       0.001       32.256   0.100E-07
     TRS4 it   4 1.00000000   0.206E+00       0.001       32.256   0.100E-07
     TRS4 it   5 1.00000000   0.650E-01       0.001       32.256   0.100E-07
     TRS4 it   6 1.00000000   0.764E-02       0.001       32.256   0.100E-07
     TRS4 it   7 1.00000000   0.130E-03       0.001       32.256   0.100E-07
     TRS4 it   8 1.00000000   0.507E-07       0.001       32.256   0.100E-07
     Final TRS4 iteration    8 1.00000000   0.507E-07
     Chemical potential (mu):       0.00183
 
 PAO| energy:  -7.7199156262483912      penalty:   1.3427193610594164E-005
 PAO|LS| Need extra step
 PAO|LS| adapt:  T T T
 PAO|LS| adapt: scan_steps:    0.0000000000000000       0.43205026854570666       0.86410053709141332     
 PAO|LS| adapt: energies:   -7.7199242739701157       -7.7200885711111313       -7.7199156262483912     
 PAO|LS| adapt: suggested step_size:   0.42651084811206597     
 PAO|LS| adapt: predicted energy  -7.7200885988297614     
 PAO| ======================= Iteration:        22 =============================

     Lanczos converged:  T threshold:   0.100E-02
     Est. extremal eigenvalues:    0.268E+01   0.184E+00
     Est. condition number :    0.146E+02
     NS sqrt iter    1 1.00000000   0.681E+00       0.001       64.512
     NS sqrt iter    2 1.00000000   0.309E+00       0.001      110.592
     NS sqrt iter    3 1.00000000   0.665E-01       0.001      110.592
     NS sqrt iter    4 1.00000000   0.139E-02       0.001      110.592
     NS sqrt iter    5 1.00000000   0.286E-07       0.001       55.040
     Final NS sqrt iter    5 1.00000000   0.446E-08

     Est. extremal eigenvalues     -0.91488     1.64097  converged:  T
     TRS4 it   1 1.00000000   0.879E+00       0.000       16.128   0.100E-07
     TRS4 it   2 1.00000000   0.607E+00       0.001       32.256   0.100E-07
     TRS4 it   3 1.00000000   0.409E+00       0.001       32.256   0.100E-07
     TRS4 it   4 1.00000000   0.207E+00       0.001       32.256   0.100E-07
     TRS4 it   5 1.00000000   0.651E-01       0.001       32.256   0.100E-07
     TRS4 it   6 1.00000000   0.763E-02       0.001       32.256   0.100E-07
     TRS4 it   7 1.00000000   0.128E-03       0.001       32.256   0.100E-07
     TRS4 it   8 1.00000000   0.488E-07       0.001       32.256   0.100E-07
     Final TRS4 iteration    8 1.00000000   0.488E-07
     Chemical potential (mu):       0.00219
 
 PAO| energy:  -7.7200885866939730      penalty:   1.3933708990359738E-005
 PAO|CG| trace_G_new    2.1591489496339166E-004
 PAO|CG| trace_G_prev    7.6559595837960071E-004
 PAO|CG| trace_G_mix    3.4961912422226416E-006
 PAO|CG| trace_D    1.0539219691649288E-003
 PAO|CG| trace_D_Gnew  -2.1956350529031598E-006
 PAO|CG| beta:   0.27745536192583553     
 PAO| norm of gradient:   1.4694042839307080E-002
 PAO| energy improvement:  -1.6431272385730722E-004
 PAO| step     22                   -7.720088587  0.918E-03  0.427E+00     0.063
 PAO|LS| adapt:  T F F
 PAO|LS| adapt: scan_steps:    0.0000000000000000        0.0000000000000000        0.0000000000000000     
 PAO|LS| adapt: energies:   -7.7200885866939730        0.0000000000000000        0.0000000000000000     
 PAO| ======================= Iteration:        23 =============================

     Lanczos converged:  T threshold:   0.100E-02
     Est. extremal eigenvalues:    0.268E+01   0.184E+00
     Est. condition number :    0.146E+02
     NS sqrt iter    1 1.00000000   0.681E+00       0.001       64.512
     NS sqrt iter    2 1.00000000   0.309E+00       0.001      110.592
     NS sqrt iter    3 1.00000000   0.665E-01       0.001      110.592
     NS sqrt iter    4 1.00000000   0.139E-02       0.001      110.592
     NS sqrt iter    5 1.00000000   0.284E-07       0.001       54.784
     Final NS sqrt iter    5 1.00000000   0.448E-08

     Est. extremal eigenvalues     -0.91488     1.64114  converged:  T
     TRS4 it   1 1.00000000   0.879E+00       0.000       16.128   0.100E-07
     TRS4 it   2 1.00000000   0.607E+00       0.001       32.256   0.100E-07
     TRS4 it   3 1.00000000   0.409E+00       0.001       32.256   0.100E-07
     TRS4 it   4 1.00000000   0.207E+00       0.001       32.256   0.100E-07
     TRS4 it   5 1.00000000   0.653E-01       0.001       32.256   0.100E-07
     TRS4 it   6 1.00000000   0.767E-02       0.001       32.256   0.100E-07
     TRS4 it   7 1.00000000   0.130E-03       0.001       32.256   0.100E-07
     TRS4 it   8 1.00000000   0.503E-07       0.001       32.256   0.100E-07
     Final TRS4 iteration    8 1.00000000   0.503E-07
     Chemical potential (mu):       0.00192
 
 PAO| energy:  -7.7201314247623696      penalty:   1.3316931225467000E-005
 PAO|LS| adapt:  T T F
 PAO|LS| adapt: scan_steps:    0.0000000000000000       0.42651084811206597        0.0000000000000000     
 PAO|LS| adapt: energies:   -7.7200885866939730       -7.7201314247623696        0.0000000000000000     
 PAO| ======================= Iteration:        24 =============================

     Lanczos converged:  T threshold:   0.100E-02
     Est. extremal eigenvalues:    0.268E+01   0.184E+00
     Est. condition number :    0.146E+02
     NS sqrt iter    1 1.00000000   0.681E+00       0.001       64.512
     NS sqrt iter    2 1.00000000   0.309E+00       0.001      110.592
     NS sqrt iter    3 1.00000000   0.666E-01       0.001      110.592
     NS sqrt iter    4 1.00000000   0.139E-02       0.001      110.592
     NS sqrt iter    5 1.00000000   0.283E-07       0.001       54.784
     Final NS sqrt iter    5 1.00000000   0.448E-08

     Est. extremal eigenvalues     -0.91488     1.64131  converged:  T
     TRS4 it   1 1.00000000   0.879E+00       0.000       16.128   0.100E-07
     TRS4 it   2 1.00000000   0.607E+00       0.001       32.256   0.100E-07
     TRS4 it   3 1.00000000   0.410E+00       0.001       32.256   0.100E-07
     TRS4 it   4 1.00000000   0.207E+00       0.001       32.256   0.100E-07
     TRS4 it   5 1.00000000   0.654E-01       0.001       32.256   0.100E-07
     TRS4 it   6 1.00000000   0.772E-02       0.001       32.256   0.100E-07
     TRS4 it   7 1.00000000   0.132E-03       0.001       32.256   0.100E-07
     TRS4 it   8 1.00000000   0.518E-07       0.001       32.256   0.100E-07
     Final TRS4 iteration    8 1.00000000   0.518E-07
     Chemical potential (mu):       0.00166
 
 PAO| energy:  -7.7200747130686391      penalty:   1.2723756403405024E-005
 PAO|LS| adapt:  T T T
 PAO|LS| adapt: scan_steps:    0.0000000000000000       0.42651084811206597       0.85302169622413193     
 PAO|LS| adapt: energies:   -7.7200885866939730       -7.7201314247623696       -7.7200747130686391     
 PAO|LS| adapt: suggested step_size:   0.39679077856534656     
 PAO|LS| adapt: predicted energy  -7.7201316664473767     
 PAO| ======================= Iteration:        25 =============================

     Lanczos converged:  T threshold:   0.100E-02
     Est. extremal eigenvalues:    0.268E+01   0.184E+00
     Est. condition number :    0.146E+02
     NS sqrt iter    1 1.00000000   0.681E+00       0.001       64.512
     NS sqrt iter    2 1.00000000   0.309E+00       0.001      110.592
     NS sqrt iter    3 1.00000000   0.665E-01       0.001      110.592
     NS sqrt iter    4 1.00000000   0.139E-02       0.001      110.592
     NS sqrt iter    5 1.00000000   0.285E-07       0.001       54.784
     Final NS sqrt iter    5 1.00000000   0.448E-08

     Est. extremal eigenvalues     -0.91488     1.64112  converged:  T
     TRS4 it   1 1.00000000   0.879E+00       0.000       16.128   0.100E-07
     TRS4 it   2 1.00000000   0.607E+00       0.001       32.256   0.100E-07
     TRS4 it   3 1.00000000   0.409E+00       0.001       32.256   0.100E-07
     TRS4 it   4 1.00000000   0.207E+00       0.001       32.256   0.100E-07
     TRS4 it   5 1.00000000   0.653E-01       0.001       32.256   0.100E-07
     TRS4 it   6 1.00000000   0.767E-02       0.001       32.256   0.100E-07
     TRS4 it   7 1.00000000   0.130E-03       0.001       32.256   0.100E-07
     TRS4 it   8 1.00000000   0.502E-07       0.001       32.256   0.100E-07
     Final TRS4 iteration    8 1.00000000   0.502E-07
     Chemical potential (mu):       0.00194
 
 PAO| energy:  -7.7201316572641572      penalty:   1.3359139176018738E-005
 PAO|CG| trace_G_new    6.4263742332047277E-005
 PAO|CG| trace_G_prev    2.1591489496339166E-004
 PAO|CG| trace_G_mix    4.1000017984996157E-007
 PAO|CG| trace_D    2.9826574713682157E-004
 PAO|CG| trace_D_Gnew  -3.1119906959292687E-007
 PAO|CG| beta:   0.29573569791479049     
 PAO| norm of gradient:   8.0164669482289553E-003
 PAO| energy improvement:  -4.3070570184156054E-005
 PAO| step     25                   -7.720131657  0.501E-03  0.397E+00     0.047
 PAO|LS| adapt:  T F F
 PAO|LS| adapt: scan_steps:    0.0000000000000000        0.0000000000000000        0.0000000000000000     
 PAO|LS| adapt: energies:   -7.7201316572641572        0.0000000000000000        0.0000000000000000     
 PAO| ======================= Iteration:        26 =============================

     Lanczos converged:  T threshold:   0.100E-02
     Est. extremal eigenvalues:    0.268E+01   0.184E+00
     Est. condition number :    0.146E+02
     NS sqrt iter    1 1.00000000   0.681E+00       0.001       64.512
     NS sqrt iter    2 1.00000000   0.309E+00       0.001      110.592
     NS sqrt iter    3 1.00000000   0.664E-01       0.001      110.592
     NS sqrt iter    4 1.00000000   0.138E-02       0.001      110.592
     NS sqrt iter    5 1.00000000   0.282E-07       0.001       54.784
     Final NS sqrt iter    5 1.00000000   0.395E-08

     Est. extremal eigenvalues     -0.91489     1.64093  converged:  T
     TRS4 it   1 1.00000000   0.879E+00       0.000       16.128   0.100E-07
     TRS4 it   2 1.00000000   0.607E+00       0.001       32.256   0.100E-07
     TRS4 it   3 1.00000000   0.409E+00       0.001       32.256   0.100E-07
     TRS4 it   4 1.00000000   0.207E+00       0.001       32.256   0.100E-07
     TRS4 it   5 1.00000000   0.652E-01       0.001       32.256   0.100E-07
     TRS4 it   6 1.00000000   0.766E-02       0.001       32.256   0.100E-07
     TRS4 it   7 1.00000000   0.129E-03       0.001       32.256   0.100E-07
     TRS4 it   8 1.00000000   0.498E-07       0.001       32.256   0.100E-07
     Final TRS4 iteration    8 1.00000000   0.498E-07
     Chemical potential (mu):       0.00199
 
 PAO| energy:  -7.7201361744710821      penalty:   1.2768030952000003E-005
 PAO|LS| adapt:  T T F
 PAO|LS| adapt: scan_steps:    0.0000000000000000       0.39679077856534656        0.0000000000000000     
 PAO|LS| adapt: energies:   -7.7201316572641572       -7.7201361744710821        0.0000000000000000     
 PAO| ======================= Iteration:        27 =============================

     Lanczos converged:  T threshold:   0.100E-02
     Est. extremal eigenvalues:    0.268E+01   0.184E+00
     Est. condition number :    0.145E+02
     NS sqrt iter    1 1.00000000   0.680E+00       0.001       64.512
     NS sqrt iter    2 1.00000000   0.309E+00       0.001      110.592
     NS sqrt iter    3 1.00000000   0.663E-01       0.001      110.592
     NS sqrt iter    4 1.00000000   0.138E-02       0.001      110.592
     NS sqrt iter    5 1.00000000   0.279E-07       0.001       54.528
     Final NS sqrt iter    5 1.00000000   0.393E-08

     Est. extremal eigenvalues     -0.91489     1.64074  converged:  T
     TRS4 it   1 1.00000000   0.879E+00       0.000       16.128   0.100E-07
     TRS4 it   2 1.00000000   0.607E+00       0.001       32.256   0.100E-07
     TRS4 it   3 1.00000000   0.409E+00       0.001       32.256   0.100E-07
     TRS4 it   4 1.00000000   0.207E+00       0.001       32.256   0.100E-07
     TRS4 it   5 1.00000000   0.652E-01       0.001       32.256   0.100E-07
     TRS4 it   6 1.00000000   0.765E-02       0.001       32.256   0.100E-07
     TRS4 it   7 1.00000000   0.129E-03       0.001       32.256   0.100E-07
     TRS4 it   8 1.00000000   0.494E-07       0.001       32.256   0.100E-07
     Final TRS4 iteration    8 1.00000000   0.494E-07
     Chemical potential (mu):       0.00205
 
 PAO| energy:  -7.7200985947009508      penalty:   1.2192450541746980E-005
 PAO|LS| adapt:  T T T
 PAO|LS| adapt: scan_steps:    0.0000000000000000       0.39679077856534656       0.79358155713069312     
 PAO|LS| adapt: energies:   -7.7201316572641572       -7.7201361744710821       -7.7200985947009508     
 PAO|LS| adapt: suggested step_size:   0.24097293707903275     
 PAO|LS| adapt: predicted energy  -7.7201394203487022     
 PAO| ======================= Iteration:        28 =============================

     Lanczos converged:  T threshold:   0.100E-02
     Est. extremal eigenvalues:    0.268E+01   0.184E+00
     Est. condition number :    0.146E+02
     NS sqrt iter    1 1.00000000   0.681E+00       0.001       64.512
     NS sqrt iter    2 1.00000000   0.309E+00       0.001      110.592
     NS sqrt iter    3 1.00000000   0.665E-01       0.001      110.592
     NS sqrt iter    4 1.00000000   0.138E-02       0.001      110.592
     NS sqrt iter    5 1.00000000   0.283E-07       0.001       54.784
     Final NS sqrt iter    5 1.00000000   0.396E-08

     Est. extremal eigenvalues     -0.91488     1.64101  converged:  T
     TRS4 it   1 1.00000000   0.879E+00       0.000       16.128   0.100E-07
     TRS4 it   2 1.00000000   0.607E+00       0.001       32.256   0.100E-07
     TRS4 it   3 1.00000000   0.409E+00       0.001       32.256   0.100E-07
     TRS4 it   4 1.00000000   0.207E+00       0.001       32.256   0.100E-07
     TRS4 it   5 1.00000000   0.652E-01       0.001       32.256   0.100E-07
     TRS4 it   6 1.00000000   0.766E-02       0.001       32.256   0.100E-07
     TRS4 it   7 1.00000000   0.129E-03       0.001       32.256   0.100E-07
     TRS4 it   8 1.00000000   0.499E-07       0.001       32.256   0.100E-07
     Final TRS4 iteration    8 1.00000000   0.499E-07
     Chemical potential (mu):       0.00197
 
 PAO| energy:  -7.7201394155156038      penalty:   1.2998297211561136E-005
 PAO|CG| trace_G_new    1.6904372724508415E-005
 PAO|CG| trace_G_prev    6.4263742332047277E-005
 PAO|CG| trace_G_mix    3.2783767986489735E-008
 PAO|CG| trace_D    9.0534011519512853E-005
 PAO|CG| trace_D_Gnew  -1.8980708744025326E-008
 PAO|CG| beta:   0.26253667066800035     
 PAO| norm of gradient:   4.1114927610915739E-003
 PAO| energy improvement:  -7.7582514466101316E-006
 PAO| step     28                   -7.720139416  0.257E-03  0.241E+00     0.046
 PAO|LS| adapt:  T F F
 PAO|LS| adapt: scan_steps:    0.0000000000000000        0.0000000000000000        0.0000000000000000     
 PAO|LS| adapt: energies:   -7.7201394155156038        0.0000000000000000        0.0000000000000000     
 PAO| ======================= Iteration:        29 =============================

     Lanczos converged:  T threshold:   0.100E-02
     Est. extremal eigenvalues:    0.268E+01   0.184E+00
     Est. condition number :    0.146E+02
     NS sqrt iter    1 1.00000000   0.681E+00       0.001       64.512
     NS sqrt iter    2 1.00000000   0.309E+00       0.001      110.592
     NS sqrt iter    3 1.00000000   0.664E-01       0.001      110.592
     NS sqrt iter    4 1.00000000   0.138E-02       0.001      110.592
     NS sqrt iter    5 1.00000000   0.282E-07       0.001       54.784
     Final NS sqrt iter    5 1.00000000   0.395E-08

     Est. extremal eigenvalues     -0.91489     1.64100  converged:  T
     TRS4 it   1 1.00000000   0.879E+00       0.000       16.128   0.100E-07
     TRS4 it   2 1.00000000   0.607E+00       0.001       32.256   0.100E-07
     TRS4 it   3 1.00000000   0.409E+00       0.001       32.256   0.100E-07
     TRS4 it   4 1.00000000   0.207E+00       0.001       32.256   0.100E-07
     TRS4 it   5 1.00000000   0.652E-01       0.001       32.256   0.100E-07
     TRS4 it   6 1.00000000   0.765E-02       0.001       32.256   0.100E-07
     TRS4 it   7 1.00000000   0.129E-03       0.001       32.256   0.100E-07
     TRS4 it   8 1.00000000   0.495E-07       0.001       32.256   0.100E-07
     Final TRS4 iteration    8 1.00000000   0.495E-07
     Chemical potential (mu):       0.00205
 
 PAO| energy:  -7.7201429214725872      penalty:   1.2651597861592716E-005
 PAO|LS| adapt:  T T F
 PAO|LS| adapt: scan_steps:    0.0000000000000000       0.24097293707903275        0.0000000000000000     
 PAO|LS| adapt: energies:   -7.7201394155156038       -7.7201429214725872        0.0000000000000000     
 PAO| ======================= Iteration:        30 =============================

     Lanczos converged:  T threshold:   0.100E-02
     Est. extremal eigenvalues:    0.268E+01   0.184E+00
     Est. condition number :    0.146E+02
     NS sqrt iter    1 1.00000000   0.680E+00       0.001       64.512
     NS sqrt iter    2 1.00000000   0.309E+00       0.001      110.592
     NS sqrt iter    3 1.00000000   0.664E-01       0.001      110.592
     NS sqrt iter    4 1.00000000   0.138E-02       0.001      110.592
     NS sqrt iter    5 1.00000000   0.282E-07       0.001       54.784
     Final NS sqrt iter    5 1.00000000   0.394E-08

     Est. extremal eigenvalues     -0.91489     1.64100  converged:  T
     TRS4 it   1 1.00000000   0.879E+00       0.000       16.128   0.100E-07
     TRS4 it   2 1.00000000   0.607E+00       0.001       32.256   0.100E-07
     TRS4 it   3 1.00000000   0.409E+00       0.001       32.256   0.100E-07
     TRS4 it   4 1.00000000   0.207E+00       0.001       32.256   0.100E-07
     TRS4 it   5 1.00000000   0.651E-01       0.001       32.256   0.100E-07
     TRS4 it   6 1.00000000   0.763E-02       0.001       32.256   0.100E-07
     TRS4 it   7 1.00000000   0.128E-03       0.001       32.256   0.100E-07
     TRS4 it   8 1.00000000   0.490E-07       0.001       32.256   0.100E-07
     Final TRS4 iteration    8 1.00000000   0.490E-07
     Chemical potential (mu):       0.00213
 
 PAO| energy:  -7.7201452887598716      penalty:   1.2309907019043220E-005
 PAO|LS| adapt:  T T F
 PAO|LS| adapt: scan_steps:    0.0000000000000000       0.48194587415806550        0.0000000000000000     
 PAO|LS| adapt: energies:   -7.7201394155156038       -7.7201452887598716        0.0000000000000000     
 PAO| ======================= Iteration:        31 =============================

     Lanczos converged:  T threshold:   0.100E-02
     Est. extremal eigenvalues:    0.268E+01   0.184E+00
     Est. condition number :    0.146E+02
     NS sqrt iter    1 1.00000000   0.680E+00       0.001       64.512
     NS sqrt iter    2 1.00000000   0.309E+00       0.001      110.592
     NS sqrt iter    3 1.00000000   0.663E-01       0.001      110.592
     NS sqrt iter    4 1.00000000   0.138E-02       0.001      110.592
     NS sqrt iter    5 1.00000000   0.280E-07       0.001       54.528
     Final NS sqrt iter    5 1.00000000   0.393E-08

     Est. extremal eigenvalues     -0.91489     1.64099  converged:  T
     TRS4 it   1 1.00000000   0.880E+00       0.000       16.128   0.100E-07
     TRS4 it   2 1.00000000   0.607E+00       0.001       32.256   0.100E-07
     TRS4 it   3 1.00000000   0.409E+00       0.001       32.256   0.100E-07
     TRS4 it   4 1.00000000   0.206E+00       0.001       32.256   0.100E-07
     TRS4 it   5 1.00000000   0.650E-01       0.001       32.256   0.100E-07
     TRS4 it   6 1.00000000   0.760E-02       0.001       32.256   0.100E-07
     TRS4 it   7 1.00000000   0.127E-03       0.001       32.256   0.100E-07
     TRS4 it   8 1.00000000   0.481E-07       0.001       32.256   0.100E-07
     Final TRS4 iteration    8 1.00000000   0.481E-07
     Chemical potential (mu):       0.00230
 
 PAO| energy:  -7.7201466084743373      penalty:   1.1641497840466326E-005
 PAO|LS| Need extra step
 PAO|LS| adapt:  T T F
 PAO|LS| adapt: scan_steps:    0.0000000000000000       0.96389174831613100        0.0000000000000000     
 PAO|LS| adapt: energies:   -7.7201394155156038       -7.7201466084743373        0.0000000000000000     
 PAO| ======================= Iteration:        32 =============================

     Lanczos converged:  T threshold:   0.100E-02
     Est. extremal eigenvalues:    0.268E+01   0.184E+00
     Est. condition number :    0.145E+02
     NS sqrt iter    1 1.00000000   0.679E+00       0.001       64.512
     NS sqrt iter    2 1.00000000   0.308E+00       0.001      110.592
     NS sqrt iter    3 1.00000000   0.660E-01       0.001      110.592
     NS sqrt iter    4 1.00000000   0.137E-02       0.001      110.592
     NS sqrt iter    5 1.00000000   0.278E-07       0.001       54.528
     Final NS sqrt iter    5 1.00000000   0.390E-08

     Est. extremal eigenvalues     -0.91490     1.64097  converged:  T
     TRS4 it   1 1.00000000   0.880E+00       0.000       16.128   0.100E-07
     TRS4 it   2 1.00000000   0.607E+00       0.001       32.256   0.100E-07
     TRS4 it   3 1.00000000   0.409E+00       0.001       32.256   0.100E-07
     TRS4 it   4 1.00000000   0.206E+00       0.001       32.256   0.100E-07
     TRS4 it   5 1.00000000   0.647E-01       0.001       32.256   0.100E-07
     TRS4 it   6 1.00000000   0.754E-02       0.001       32.256   0.100E-07
     TRS4 it   7 1.00000000   0.125E-03       0.001       32.256   0.100E-07
     TRS4 it   8 1.00000000   0.464E-07       0.001       32.256   0.100E-07
     Final TRS4 iteration    8 1.00000000   0.464E-07
     Chemical potential (mu):       0.00262
 
 PAO| energy:  -7.7201355785481214      penalty:   1.0364199401940559E-005
 PAO|LS| Need extra step
 PAO|LS| adapt:  T T T
 PAO|LS| adapt: scan_steps:    0.0000000000000000       0.96389174831613100        1.9277834966322620     
 PAO|LS| adapt: energies:   -7.7201394155156038       -7.7201466084743373       -7.7201355785481214     
 PAO|LS| adapt: suggested step_size:   0.86241436685027828     
 PAO|LS| adapt: predicted energy  -7.7201467094621856     
 PAO| ======================= Iteration:        33 =============================

     Lanczos converged:  T threshold:   0.100E-02
     Est. extremal eigenvalues:    0.268E+01   0.184E+00
     Est. condition number :    0.146E+02
     NS sqrt iter    1 1.00000000   0.680E+00       0.001       64.512
     NS sqrt iter    2 1.00000000   0.309E+00       0.001      110.592
     NS sqrt iter    3 1.00000000   0.663E-01       0.001      110.592
     NS sqrt iter    4 1.00000000   0.138E-02       0.001      110.592
     NS sqrt iter    5 1.00000000   0.281E-07       0.001       54.656
     Final NS sqrt iter    5 1.00000000   0.392E-08

     Est. extremal eigenvalues     -0.91489     1.64099  converged:  T
     TRS4 it   1 1.00000000   0.879E+00       0.000       16.128   0.100E-07
     TRS4 it   2 1.00000000   0.607E+00       0.001       32.256   0.100E-07
     TRS4 it   3 1.00000000   0.409E+00       0.001       32.256   0.100E-07
     TRS4 it   4 1.00000000   0.206E+00       0.001       32.256   0.100E-07
     TRS4 it   5 1.00000000   0.650E-01       0.001       32.256   0.100E-07
     TRS4 it   6 1.00000000   0.761E-02       0.001       32.256   0.100E-07
     TRS4 it   7 1.00000000   0.127E-03       0.001       32.256   0.100E-07
     TRS4 it   8 1.00000000   0.483E-07       0.001       32.256   0.100E-07
     Final TRS4 iteration    8 1.00000000   0.483E-07
     Chemical potential (mu):       0.00226
 
 PAO| energy:  -7.7201467094754728      penalty:   1.1780581092237797E-005
 PAO|CG| trace_G_new    4.4567026054752765E-005
 PAO|CG| trace_G_prev    1.6904372724508415E-005
 PAO|CG| trace_G_mix    2.1553235015235595E-008
 PAO|CG| trace_D    2.3154441311587075E-005
 PAO|CG| trace_D_Gnew   2.8663447779611140E-009
 PAO|CG| beta:    2.6351449737708577     
 PAO| norm of gradient:   6.6758539569670610E-003
 PAO| energy improvement:  -7.2939598689814034E-006
 PAO| step     33                   -7.720146709  0.417E-03  0.862E+00     0.074
 PAO|LS| adapt:  T F F
 PAO|LS| adapt: scan_steps:    0.0000000000000000        0.0000000000000000        0.0000000000000000     
 PAO|LS| adapt: energies:   -7.7201467094754728        0.0000000000000000        0.0000000000000000     
 PAO| ======================= Iteration:        34 =============================

     Lanczos converged:  T threshold:   0.100E-02
     Est. extremal eigenvalues:    0.268E+01   0.184E+00
     Est. condition number :    0.145E+02
     NS sqrt iter    1 1.00000000   0.679E+00       0.001       64.512
     NS sqrt iter    2 1.00000000   0.308E+00       0.001      110.592
     NS sqrt iter    3 1.00000000   0.658E-01       0.001      110.592
     NS sqrt iter    4 1.00000000   0.136E-02       0.001      110.592
     NS sqrt iter    5 1.00000000   0.277E-07       0.001       54.400
     Final NS sqrt iter    5 1.00000000   0.390E-08

     Est. extremal eigenvalues     -0.91491     1.64050  converged:  T
     TRS4 it   1 1.00000000   0.880E+00       0.000       16.128   0.100E-07
     TRS4 it   2 1.00000000   0.607E+00       0.001       32.256   0.100E-07
     TRS4 it   3 1.00000000   0.408E+00       0.001       32.256   0.100E-07
     TRS4 it   4 1.00000000   0.205E+00       0.001       32.256   0.100E-07
     TRS4 it   5 1.00000000   0.644E-01       0.001       32.256   0.100E-07
[...]
 PAO|LS| adapt: scan_steps:    0.0000000000000000       0.20000000000000001        0.0000000000000000     
 PAO|LS| adapt: energies:   -7.7190305019887884       -7.7190305020110106        0.0000000000000000     
 PAO| ======================= Iteration:       743 =============================

     Lanczos converged:  T threshold:   0.100E-02
     Est. extremal eigenvalues:    0.247E+01   0.227E+00
     Est. condition number :    0.109E+02
     NS sqrt iter    1 1.00000000   0.620E+00       0.001       64.512
     NS sqrt iter    2 1.00000000   0.259E+00       0.001      110.592
     NS sqrt iter    3 1.00000000   0.404E-01       0.001      110.592
     NS sqrt iter    4 1.00000000   0.307E-03       0.001      110.080
     NS sqrt iter    5 1.00000000   0.287E-09       0.001       36.864
     Final NS sqrt iter    5 1.00000000   0.469E-10

     Est. extremal eigenvalues     -0.91465     1.43316  converged:  T
     TRS4 it   1 1.00000000   0.831E+00       0.000       16.128   0.100E-07
     TRS4 it   2 1.00000000   0.588E+00       0.001       32.256   0.100E-07
     TRS4 it   3 1.00000000   0.419E+00       0.001       32.256   0.100E-07
     TRS4 it   4 1.00000000   0.254E+00       0.001       32.256   0.100E-07
     TRS4 it   5 1.00000000   0.114E+00       0.001       32.256   0.100E-07
     TRS4 it   6 1.00000000   0.278E-01       0.001       32.256   0.100E-07
     TRS4 it   7 1.00000000   0.210E-02       0.001       32.256   0.100E-07
     TRS4 it   8 1.00000000   0.146E-04       0.001       32.256   0.100E-07
     TRS4 it   9 1.00000000   0.846E-09       0.001       32.256   0.100E-07
     Final TRS4 iteration    9 1.00000000   0.846E-09
     Chemical potential (mu):      -0.07427
 
 PAO| energy:  -7.7190305020077856      penalty:   3.4488768731710517E-011
 PAO|LS| Need extra step
 PAO|LS| adapt:  T T T
 PAO|LS| adapt: scan_steps:    0.0000000000000000       0.20000000000000001       0.40000000000000002     
 PAO|LS| adapt: energies:   -7.7190305019887884       -7.7190305020110106       -7.7190305020077856     
 PAO|LS| adapt: suggested step_size:   0.27465358975253923     
 PAO|LS| adapt: predicted energy  -7.7190305020127825     
 PAO| ======================= Iteration:       744 =============================

     Lanczos converged:  T threshold:   0.100E-02
     Est. extremal eigenvalues:    0.247E+01   0.227E+00
     Est. condition number :    0.109E+02
     NS sqrt iter    1 1.00000000   0.620E+00       0.001       64.512
     NS sqrt iter    2 1.00000000   0.259E+00       0.001      110.592
     NS sqrt iter    3 1.00000000   0.404E-01       0.001      110.592
     NS sqrt iter    4 1.00000000   0.307E-03       0.001      110.080
     NS sqrt iter    5 1.00000000   0.287E-09       0.001       36.864
     Final NS sqrt iter    5 1.00000000   0.469E-10

     Est. extremal eigenvalues     -0.91465     1.43316  converged:  T
     TRS4 it   1 1.00000000   0.831E+00       0.000       16.128   0.100E-07
     TRS4 it   2 1.00000000   0.588E+00       0.001       32.256   0.100E-07
     TRS4 it   3 1.00000000   0.419E+00       0.001       32.256   0.100E-07
     TRS4 it   4 1.00000000   0.254E+00       0.001       32.256   0.100E-07
     TRS4 it   5 1.00000000   0.114E+00       0.001       32.256   0.100E-07
     TRS4 it   6 1.00000000   0.278E-01       0.001       32.256   0.100E-07
     TRS4 it   7 1.00000000   0.210E-02       0.001       32.256   0.100E-07
     TRS4 it   8 1.00000000   0.146E-04       0.001       32.256   0.100E-07
     TRS4 it   9 1.00000000   0.846E-09       0.001       32.256   0.100E-07
     Final TRS4 iteration    9 1.00000000   0.846E-09
     Chemical potential (mu):      -0.07427
 
 PAO| energy:  -7.7190305020127861      penalty:   3.4838576928404738E-011
 PAO|CG| warming up with steepest descent
 PAO|CG| beta:    0.0000000000000000     
 PAO| norm of gradient:   7.6652627025945601E-006
 PAO| energy improvement:  -2.3997692721877684E-011
 PAO| step    744                   -7.719030502  0.479E-06  0.275E+00     0.065
 PAO| converged after          744  steps :-)
 PAO| Recalculating energy after mixing.

     Lanczos converged:  T threshold:   0.100E-02
     Est. extremal eigenvalues:    0.247E+01   0.227E+00
     Est. condition number :    0.109E+02
     NS sqrt iter    1 1.00000000   0.620E+00       0.001       64.512
     NS sqrt iter    2 1.00000000   0.259E+00       0.001      110.592
     NS sqrt iter    3 1.00000000   0.404E-01       0.001      110.592
     NS sqrt iter    4 1.00000000   0.307E-03       0.001      110.080
     NS sqrt iter    5 1.00000000   0.287E-09       0.001       36.864
     Final NS sqrt iter    5 1.00000000   0.469E-10

     Est. extremal eigenvalues     -0.91465     1.43316  converged:  T
     TRS4 it   1 1.00000000   0.831E+00       0.000       16.128   0.100E-07
     TRS4 it   2 1.00000000   0.588E+00       0.001       32.256   0.100E-07
     TRS4 it   3 1.00000000   0.419E+00       0.001       32.256   0.100E-07
     TRS4 it   4 1.00000000   0.254E+00       0.001       32.256   0.100E-07
     TRS4 it   5 1.00000000   0.114E+00       0.001       32.256   0.100E-07
     TRS4 it   6 1.00000000   0.278E-01       0.001       32.256   0.100E-07
     TRS4 it   7 1.00000000   0.210E-02       0.001       32.256   0.100E-07
     TRS4 it   8 1.00000000   0.146E-04       0.001       32.256   0.100E-07
     TRS4 it   9 1.00000000   0.846E-09       0.001       32.256   0.100E-07
     Final TRS4 iteration    9 1.00000000   0.846E-09
     Chemical potential (mu):      -0.07427
 
 PAO| energy:  -7.7190305020067882      penalty:   3.5223863634825657E-011
 PAO| Writing restart file.
     Est. extremal eigenvalues     -0.91465     1.43316  converged:  T
     TRS4 it   1 1.00000000   0.831E+00       0.000       16.128   0.100E-07
     TRS4 it   2 1.00000000   0.588E+00       0.001       32.256   0.100E-07
     TRS4 it   3 1.00000000   0.419E+00       0.001       32.256   0.100E-07
     TRS4 it   4 1.00000000   0.254E+00       0.001       32.256   0.100E-07
     TRS4 it   5 1.00000000   0.114E+00       0.001       32.256   0.100E-07
     TRS4 it   6 1.00000000   0.278E-01       0.001       32.256   0.100E-07
     TRS4 it   7 1.00000000   0.210E-02       0.001       32.256   0.100E-07
     TRS4 it   8 1.00000000   0.146E-04       0.001       32.256   0.100E-07
     TRS4 it   9 1.00000000   0.846E-09       0.001       32.256   0.100E-07
     Final TRS4 iteration    9 1.00000000   0.846E-09
     Chemical potential (mu):      -0.07427

 SCF     1       -34.446672063       -34.446672063    1.886326

*********************************************************
 Using MIXING_FRACTION=0.450 to mix KS matrix:  iscf=  2
 KS_nw=0.450*KS + 0.550*KS_old
*********************************************************
     Est. extremal eigenvalues     -0.91465     1.43316  converged:  T
     TRS4 it   1 1.00000000   0.831E+00       0.000       16.128   0.100E-07
     TRS4 it   2 1.00000000   0.588E+00       0.001       32.256   0.100E-07
     TRS4 it   3 1.00000000   0.419E+00       0.001       32.256   0.100E-07
     TRS4 it   4 1.00000000   0.254E+00       0.001       32.256   0.100E-07
     TRS4 it   5 1.00000000   0.114E+00       0.001       32.256   0.100E-07
     TRS4 it   6 1.00000000   0.278E-01       0.001       32.256   0.100E-07
     TRS4 it   7 1.00000000   0.210E-02       0.001       32.256   0.100E-07
     TRS4 it   8 1.00000000   0.146E-04       0.001       32.256   0.100E-07
     TRS4 it   9 1.00000000   0.846E-09       0.001       32.256   0.100E-07
     Final TRS4 iteration    9 1.00000000   0.846E-09
     Chemical potential (mu):      -0.07427

 SCF     2       -34.446672063        -0.000000000    1.887201

 PAO| Storing density matrix for ASPC guess in slot:           1

 ENERGY| Total FORCE_EVAL ( QS ) energy (a.u.):              -34.446672063382437


 -------------------------------------------------------------------------------
 -                                                                             -
 -                                DBCSR STATISTICS                             -
 -                                                                             -
 -------------------------------------------------------------------------------
 COUNTER                                    TOTAL       BLAS       SMM       ACC
 flops     5 x     5 x     4                26000       0.0%    100.0%      0.0%
 flops    13 x     5 x     4                27040       0.0%    100.0%      0.0%
 flops     5 x    13 x     4                27040       0.0%    100.0%      0.0%
 flops    13 x    13 x     4                52728       0.0%    100.0%      0.0%
 flops     4 x     4 x     5              5821440       0.0%    100.0%      0.0%
 flops     5 x     4 x     5              7116800       0.0%    100.0%      0.0%
 flops     4 x     4 x    13              7567872       0.0%    100.0%      0.0%
 flops    13 x     4 x     5              9251840       0.0%    100.0%      0.0%
 flops     5 x     4 x    13              9251840       0.0%    100.0%      0.0%
 flops     5 x     4 x     4             11035680       0.0%    100.0%      0.0%
 flops    13 x     4 x    13             12027392       0.0%    100.0%      0.0%
 flops    13 x     4 x     4             14403168       0.0%    100.0%      0.0%
 flops     4 x     4 x     4            737310080       0.0%    100.0%      0.0%
 flops inhomo. stacks                           0       0.0%      0.0%      0.0%
 flops total                       813.918920E+06       0.0%    100.0%      0.0%
 flops max/rank                    813.918920E+06       0.0%    100.0%      0.0%
 matmuls inhomo. stacks                         0       0.0%      0.0%      0.0%
 matmuls total                            5998744       0.0%    100.0%      0.0%
 number of processed stacks                 47822       0.0%    100.0%      0.0%
 average stack size                                     0.0     125.4       0.0
 marketing flops                     1.329411E+09
 -------------------------------------------------------------------------------
 # multiplications                          40051
 max memory usage/rank             321.044480E+06
 # max total images/rank                        1
 # max 3D layers                                1
 # MPI messages exchanged                       0
 MPI messages size (bytes):
  total size                         0.000000E+00
  min size                           0.000000E+00
  max size                           0.000000E+00
  average size                       0.000000E+00
 MPI breakdown and total messages size (bytes):
             size <=      128                   0                        0
       128 < size <=     8192                   0                        0
      8192 < size <=    32768                   0                        0
     32768 < size <=   131072                   0                        0
    131072 < size <=  4194304                   0                        0
   4194304 < size <= 16777216                   0                        0
  16777216 < size                               0                        0
 -------------------------------------------------------------------------------

 MEMORY| Estimated peak process memory [MiB]                                 307

 -------------------------------------------------------------------------------
 -                                                                             -
 -                           R E F E R E N C E S                               -
 -                                                                             -
 -------------------------------------------------------------------------------
 
 CP2K version 7.0 (Development Version), the CP2K developers group (2018).
 CP2K is freely available from https://www.cp2k.org/ .

 Schuett, O; VandeVondele, J. 
 Journal of Chemical Theory and Computation, 14, (2018). 
 Machine Learning Adaptive Basis Sets for Efficient Large Scale Density Functional Theory Simulation.
 https://dx.doi.org/10.1021/acs.jctc.8b00378


 Schuett, Ole; Messmer, Peter; Hutter, Juerg; VandeVondele, Joost. 
 Electronic Structure Calculations on Graphics Processing Units, John Wiley & Sons, Ltd, 173-190 (2016). 
 GPU-Accelerated Sparse Matrix-Matrix Multiplication for Linear Scaling Density Functional Theory.
 https://dx.doi.org/10.1002/9781118670712.ch8


 Borstnik, U; VandeVondele, J; Weber, V; Hutter, J. 
 PARALLEL COMPUTING, 40 (5-6), 47-58 (2014). 
 Sparse matrix multiplication: The distributed block-compressed sparse
 row library.
 https://dx.doi.org/10.1016/j.parco.2014.03.012


 Hutter, J; Iannuzzi, M; Schiffmann, F; VandeVondele, J. 
 WILEY INTERDISCIPLINARY REVIEWS-COMPUTATIONAL MOLECULAR SCIENCE, 4 (1), 15-25 (2014). 
 CP2K: atomistic simulations of condensed matter systems.
 https://dx.doi.org/10.1002/wcms.1159


 VandeVondele, J; Borstnik, U; Hutter, J. 
 JOURNAL OF CHEMICAL THEORY AND COMPUTATION, 8 (10), 3565-3573 (2012). 
 Linear Scaling Self-Consistent Field Calculations with Millions of Atoms
 in the Condensed Phase.
 https://dx.doi.org/10.1021/ct200897x


 VandeVondele, J; Hutter, J. 
 JOURNAL OF CHEMICAL PHYSICS, 127 (11), 114105 (2007). 
 Gaussian basis sets for accurate calculations on molecular systems in
 gas and condensed phases.
 https://dx.doi.org/10.1063/1.2770708


 Krack, M. 
 THEORETICAL CHEMISTRY ACCOUNTS, 114 (1-3), 145-152 (2005). 
 Pseudopotentials for H to Kr optimized for gradient-corrected
 exchange-correlation functionals.
 https://dx.doi.org/10.1007/s00214-005-0655-y


 VandeVondele, J; Krack, M; Mohamed, F; Parrinello, M; Chassaing, T;
 Hutter, J. COMPUTER PHYSICS COMMUNICATIONS, 167 (2), 103-128 (2005). 
 QUICKSTEP: Fast and accurate density functional calculations using a
 mixed Gaussian and plane waves approach.
 https://dx.doi.org/10.1016/j.cpc.2004.12.014


 Frigo, M; Johnson, SG. 
 PROCEEDINGS OF THE IEEE, 93 (2), 216-231 (2005). 
 The design and implementation of FFTW3.
 https://dx.doi.org/10.1109/JPROC.2004.840301


 Niklasson, AMN; Tymczak, CJ; Challacombe, M. 
 JOURNAL OF CHEMICAL PHYSICS, 118 (19), 8611-8620 (2003). 
 Trace resetting density matrix purification in O(N)
 self-consistent-field theory.
 https://dx.doi.org/10.1063/1.1559913


 Hartwigsen, C; Goedecker, S; Hutter, J. 
 PHYSICAL REVIEW B, 58 (7), 3641-3662 (1998). 
 Relativistic separable dual-space Gaussian pseudopotentials from H to Rn.
 https://dx.doi.org/10.1103/PhysRevB.58.3641


 Lippert, G; Hutter, J; Parrinello, M. 
 MOLECULAR PHYSICS, 92 (3), 477-487 (1997). 
 A hybrid Gaussian and plane wave density functional scheme.
 https://dx.doi.org/10.1080/002689797170220


 Perdew, JP; Burke, K; Ernzerhof, M. 
 PHYSICAL REVIEW LETTERS, 77 (18), 3865-3868 (1996). 
 Generalized gradient approximation made simple.
 https://dx.doi.org/10.1103/PhysRevLett.77.3865


 Goedecker, S; Teter, M; Hutter, J. 
 PHYSICAL REVIEW B, 54 (3), 1703-1710 (1996). 
 Separable dual-space Gaussian pseudopotentials.
 https://dx.doi.org/10.1103/PhysRevB.54.1703


 -------------------------------------------------------------------------------
 -                                                                             -
 -                                T I M I N G                                  -
 -                                                                             -
 -------------------------------------------------------------------------------
 SUBROUTINE                       CALLS  ASD         SELF TIME        TOTAL TIME
                                MAXIMUM       AVERAGE  MAXIMUM  AVERAGE  MAXIMUM
 CP2K                                 1  1.0    0.027    0.027   37.212   37.212
 qs_energies                          1  2.0    0.000    0.000   36.847   36.847
 ls_scf                               1  3.0    0.000    0.000   36.746   36.746
 ls_scf_main                          6  4.0    0.001    0.001   22.682   22.682
 ls_scf_dm_to_ks                     12  5.0    0.000    0.000   22.589   22.589
 qs_ks_update_qs_env                 13  6.0    0.000    0.000   17.293   17.293
 rebuild_ks_matrix                   13  7.0    0.000    0.000   17.292   17.292
 qs_ks_build_kohn_sham_matrix        13  8.0    0.001    0.001   17.292   17.292
 pao_update                           6  4.0    0.016    0.016   12.044   12.044
 pao_calc_energy                    749  5.0    0.006    0.006   10.887   10.887
 qs_vxc_create                       13  9.0    0.000    0.000    9.787    9.787
 xc_vxc_pw_create                    13 10.0    0.158    0.158    9.787    9.787
 dbcsr_multiply_generic           40051  8.4    0.686    0.686    8.845    8.845
 qs_rho_update_rho                   13  6.0    0.000    0.000    7.243    7.243
 calculate_rho_elec                  13  7.0    5.918    5.918    7.243    7.243
 xc_rho_set_and_dset_create          13 11.0    0.060    0.060    7.177    7.177
 sum_up_and_integrate                13  9.0    0.027    0.027    6.465    6.465
 integrate_v_rspace                  13 10.0    5.729    5.729    6.438    6.438
 pw_transfer                        248 10.6    0.016    0.016    6.138    6.138
 fft_wrap_pw1pw2                    222 11.7    0.002    0.002    6.005    6.005
 fft_wrap_pw1pw2_200                144 12.8    0.495    0.495    5.749    5.749
 pao_dm_trs4                        749  6.0    0.004    0.004    5.630    5.630
 density_matrix_trs4                761  7.0    0.299    0.299    5.373    5.373
 ls_scf_init_matrix_S               755  7.0    0.004    0.004    5.238    5.238
 pao_rebuild_S                      749  6.0    0.003    0.003    5.196    5.196
 xc_functional_eval                  13 12.0    0.000    0.000    4.943    4.943
 pbe_lda_eval                        13 13.0    4.943    4.943    4.943    4.943
 matrix_sqrt_Newton_Schulz          755  8.0    0.194    0.194    4.710    4.710
 fft3d_s                            223 13.6    3.373    3.373    3.385    3.385
 multiply_cannon                  40051  9.4    1.552    1.552    3.380    3.380
 make_m2s                         80102  9.4    0.234    0.234    3.284    3.284
 make_images                      80102 10.4    0.870    0.870    2.917    2.917
 pao_guess_initial_P                  1  4.0    0.000    0.000    1.952    1.952
 pao_read_preopt_dm                   1  5.0    0.000    0.000    1.952    1.952
 arnoldi_extremal                  1516  8.5    0.005    0.005    1.454    1.454
 arnoldi_normal_ev                 1516  9.5    0.016    0.016    1.448    1.448
 density_rs2pw                       13  8.0    0.001    0.001    1.303    1.303
 pao_calc_AB                        986  5.8    0.001    0.001    1.131    1.131
 pao_calc_AB_direct                 986  6.8    0.036    0.036    1.130    1.130
 pw_scatter_s                       117 14.2    1.091    1.091    1.091    1.091
 build_subspace                    1516 10.5    0.089    0.089    1.082    1.082
 pao_calc_grad_lnv_wrt_AB           236  7.0    0.011    0.011    1.052    1.052
 pw_gather_s                        105 13.1    1.013    1.013    1.013    1.013
 dbcsr_matrix_vector_mult         36354 11.5    0.176    0.176    0.955    0.955
 dbcsr_create_new                306350 10.7    0.536    0.536    0.950    0.950
 dbcsr_finalize                   94515  9.7    0.175    0.175    0.921    0.921
 -------------------------------------------------------------------------------

 The number of warnings for this run is : 0
 
 -------------------------------------------------------------------------------
  **** **** ******  **  PROGRAM ENDED AT                 2019-02-14 11:12:39.531
 ***** ** ***  *** **   PROGRAM RAN ON                                      otto
 **    ****   ******    PROGRAM RAN BY                                       ole
 ***** **    ** ** **   PROGRAM PROCESS ID                                  7794
  **** **  *******  **  PROGRAM STOPPED IN /home/ole/git/pao_ml_equivar/2H2O_MD/
                                           frame_1625
