 DBCSR| CPU Multiplication driver                                           XSMM (U)
 DBCSR| Multrec recursion limit                                              512 (U)
 DBCSR| Multiplication stack size                                           1000 (D)
 DBCSR| Maximum elements for images                                    UNLIMITED (U)
 DBCSR| Multiplicative factor virtual images                                   1 (U)
 DBCSR| Use multiplication densification                                       T (D)
 DBCSR| Multiplication size stacks                                             3 (U)
 DBCSR| Use memory pool for CPU allocation                                     F (U)
 DBCSR| OMP: Current number of threads                                         1
 DBCSR| OMP: Max number of threads                                             1
 DBCSR| Split modifier for TAS multiplication algorithm                  1.0E+00 (U)


  **** **** ******  **  PROGRAM STARTED AT               2023-02-01 10:47:55.645
 ***** ** ***  *** **   PROGRAM STARTED ON                                moritz
 **    ****   ******    PROGRAM STARTED BY                                   ole
 ***** **    ** ** **   PROGRAM PROCESS ID                                148805
  **** **  *******  **  PROGRAM STARTED IN /home/ole/git/pao_ml_equivar/2H2O_MD/
                                           frame_1700

 CP2K| version string:                 CP2K version 2023.1 (Development Version)
 CP2K| source code revision number:                                  git:03b4147
 CP2K| cp2kflags: omp libint fftw3 libxc quip xsmm spglib libvori libbqb libtorc
 CP2K|            h
 CP2K| is freely available from                            https://www.cp2k.org/
 CP2K| Program compiled at                           Mi 01 Feb 2023 10:36:52 CET
 CP2K| Program compiled on                                                moritz
 CP2K| Program compiled for                                                local
 CP2K| Data directory path                               /home/ole/git/cp2k/data
 CP2K| Input file name                                            2H2O_pao44.inp

 GLOBAL| Force Environment number                                              1
 GLOBAL| Basis set file name                                        BASIS_MOLOPT
 GLOBAL| Potential file name                                      GTH_POTENTIALS
 GLOBAL| MM Potential file name                                     MM_POTENTIAL
 GLOBAL| Coordinate file name                                         coords.xyz
 GLOBAL| Method name                                                        CP2K
 GLOBAL| Project name                                                 2H2O_pao44
 GLOBAL| Run type                                                         ENERGY
 GLOBAL| FFT library                                                       FFTW3
 GLOBAL| Diagonalization library                                       ScaLAPACK
 GLOBAL| DGEMM library                                                      BLAS
 GLOBAL| Orthonormality check for eigenvectors                          DISABLED
 GLOBAL| Matrix multiplication library                                 ScaLAPACK
 GLOBAL| All-to-all communication in single precision                          F
 GLOBAL| FFTs using library dependent lengths                                  F
 GLOBAL| Grid backend                                                       AUTO
 GLOBAL| Global print level                                                  LOW
 GLOBAL| MPI I/O enabled                                                       T
 GLOBAL| Total number of message passing processes                             1
 GLOBAL| Number of threads for this process                                    1
 GLOBAL| This output is from process                                           0
 GLOBAL| Stack size for threads created by OpenMP (OMP_STACKSIZE)        default
 GLOBAL| CPU model name           AMD Ryzen Threadripper 3970X 32-Core Processor
 GLOBAL| CPUID                                                              1002
 GLOBAL| Compiled for CPUID                                                    0

 *** HINT in environment.F:884 :: The compiler target flags (generic) used ***
 *** to build this binary cannot exploit all extensions of this CPU model  ***
 *** (x86_avx2). Consider compiler target flags as part of FCFLAGS and     ***
 *** CFLAGS (ARCH file).                                                   ***


 MEMORY| system memory details [Kb]
 MEMORY|                        rank 0           min           max       average
 MEMORY| MemTotal            131773860     131773860     131773860     131773860
 MEMORY| MemFree             109811740     109811740     109811740     109811740
 MEMORY| Buffers                302624        302624        302624        302624
 MEMORY| Cached                7056636       7056636       7056636       7056636
 MEMORY| Slab                   780228        780228        780228        780228
 MEMORY| SReclaimable           332704        332704        332704        332704
 MEMORY| MemLikelyFree       117503704     117503704     117503704     117503704


 GENERATE|  Preliminary Number of Bonds generated:                             0
 GENERATE|  Achieved consistency in connectivity generation.

 *******************************************************************************
 *******************************************************************************
 **                                                                           **
 **     #####                         ##              ##                      **
 **    ##   ##            ##          ##              ##                      **
 **   ##     ##                       ##            ######                    **
 **   ##     ##  ##   ##  ##   #####  ##  ##   ####   ##    #####    #####    **
 **   ##     ##  ##   ##  ##  ##      ## ##   ##      ##   ##   ##  ##   ##   **
 **   ##  ## ##  ##   ##  ##  ##      ####     ###    ##   ######   ######    **
 **    ##  ###   ##   ##  ##  ##      ## ##      ##   ##   ##       ##        **
 **     #######   #####   ##   #####  ##  ##  ####    ##    #####   ##        **
 **           ##                                                    ##        **
 **                                                                           **
 **                                                ... make the atoms dance   **
 **                                                                           **
 **            Copyright (C) by CP2K developers group (2000-2023)             **
 **                      J. Chem. Phys. 152, 194103 (2020)                    **
 **                                                                           **
 *******************************************************************************


 TOTAL NUMBERS AND MAXIMUM NUMBERS

  Total number of            - Atomic kinds:                                   2
                             - Atoms:                                          6
                             - Shell sets:                                     6
                             - Shells:                                        22
                             - Primitive Cartesian functions:                 42
                             - Cartesian basis functions:                     48
                             - Spherical basis functions:                     46

  Maximum angular momentum of- Orbital basis functions:                        2
                             - Local part of the GTH pseudopotential:          2
                             - Non-local part of the GTH pseudopotential:      0

 ------------------------------ Linear scaling SCF -----------------------------
 eps_scf:                                                              0.100E-07
 eps_filter:                                                           0.100E-07
 mixing_fraction:                                                      0.450E+00
 max_scf:                                                                     25
 fixed chemical potential (mu)                                                 F
 has unit metric:                                                              F
 Computing inv(S):                                                             T
 Computing sqrt(S):                                                            T
 Computing S preconditioner                                                    F
 S sqrt method:                                                     NEWTONSCHULZ
 S sqrt order:                                                                 3
 Extrapolation order:                                                          1
 Use single precision matrices                                                 F
 S preconditioner type                                                      NONE
 Polarized Atomic Orbitals (PAO)                                               T
 Purification method                                   Trace resetting 4th order
 Cluster type                                                             ATOMIC
 Computing Chebyshev                                                       FALSE
 Using PAO                                                                     T
 -------------------------------------------------------------------------------

 
 PAO|                                  EPS_PAO                           0.5E-06
 PAO|                                  MIXING                            0.5E+00
 PAO|                                  MAX_PAO                              1500
 PAO|                                  MAX_CYCLES                           1000
 PAO|                                  PARAMETERIZATION              EQUIVARIANT
 PAO|                                  PRECONDITION                            F
 PAO|                                  REGULARIZATION                    0.0E+00
 PAO|                                  EPS_PGF                           0.1E-09
 PAO|                                  PENALTY_DISTANCE                  0.1E+00
 PAO|                                  PENALTY_STRENGTH                  0.5E-02
 PAO|                                  LINPOT_PRECONDITION_DELTA         0.0E+00
 PAO|                                  LINPOT_INITGUESS_DELT             0.0E+00
 PAO|                                  LINPOT_REGULARIZATION_DELTA       0.0E+00
 PAO|                                  LINPOT_REGULARIZATION_STRENGTH    0.0E+00
 PAO|                                  OPTIMIZER                              CG
 PAO|                                  CG_INIT_STEPS                           2
 PAO|                                  CG_RESET_LIMIT                    0.1E+00
 PAO|                                  CHECK_UNITARY_TOL                -0.1E+01
 PAO|                                  CHECK_GRADIENT_TOL               -0.1E+01
 PAO|                                  NUM_GRADIENT_ORDER                      2
 PAO|                                  NUM_GRADIENT_EPS                  0.1E-07
 PAO|                                  PRINT%RESTART%WRITE_CYCLES            100
 PAO|                                  RESTART_FILE 
 PAO|                                  PREOPT_DM_FILE 2H2O_ref_LS_DM_SPIN_1_RESTART.dm
 PAO|                                  MACHINE_LEARNING%METHOD       GAUSSIAN_PR
 PAO|                                  MACHINE_LEARNING%PRIOR               ZERO
 PAO|                                  MACHINE_LEARNING%DESCRIPTOR     POTENTIAL
 PAO|                                  MACHINE_LEARNING%TOLERANCE        0.1E-01
 PAO|                                  MACHINE_LEARNING%GP_NOISE_VAR     0.1E+00
 PAO|                                  MACHINE_LEARNING%GP_SCALE         0.5E-01
 

 Calculating atomic Fock matrix for atomic kind: O

 Electronic structure
    Total number of core electrons                                          2.00
    Total number of valence electrons                                       6.00
    Total number of electrons                                               8.00
    Multiplicity                                                   not specified
    S   [  2.00] 2.00
    P      4.00


 *******************************************************************************
                  Iteration          Convergence                     Energy [au]
 *******************************************************************************
                          1        0.708315                     -15.576645311500
                          2        0.608879                     -15.587933561584
                          3        0.102828E-01                 -15.656849565404
                          4        0.113889E-02                 -15.656866888140
                          5        0.434197E-03                 -15.656867072159
                          6        0.263771E-03                 -15.656867091904
                          7        0.478536E-06                 -15.656867103452

 Energy components [Hartree]           Total Energy ::          -15.656867103452
                                        Band Energy ::           -3.000198112285
                                     Kinetic Energy ::           11.759971203220
                                   Potential Energy ::          -27.416838306672
                                      Virial (-V/T) ::            2.331369510426
                                        Core Energy ::          -26.140716385623
                                          XC Energy ::           -3.154051012914
                                     Coulomb Energy ::           13.637900295084
                       Total Pseudopotential Energy ::          -37.935781716540
                       Local Pseudopotential Energy ::          -39.218907440693
                    Nonlocal Pseudopotential Energy ::            1.283125724153
                                        Confinement ::            0.350941276976

 Orbital energies  State     L     Occupation   Energy[a.u.]          Energy[eV]

                       1     0          2.000      -0.864471          -23.523463

                       1     1          4.000      -0.317814           -8.648154


 Total Electron Density at R=0:                                         0.000068

 Calculating atomic Fock matrix for atomic kind: H

 Electronic structure
    Total number of core electrons                                          0.00
    Total number of valence electrons                                       1.00
    Total number of electrons                                               1.00
    Multiplicity                                                   not specified
    S      1.00


 *******************************************************************************
                  Iteration          Convergence                     Energy [au]
 *******************************************************************************
                          1        0.437545E-02                  -0.424159432110
                          2        0.531356E-03                  -0.424178438213
                          3        0.259176E-06                  -0.424178722480

 Energy components [Hartree]           Total Energy ::           -0.424178722480
                                        Band Energy ::           -0.199015229016
                                     Kinetic Energy ::            0.464007633961
                                   Potential Energy ::           -0.888186356441
                                      Virial (-V/T) ::            1.914163240935
                                        Core Energy ::           -0.479160803564
                                          XC Energy ::           -0.244352904054
                                     Coulomb Energy ::            0.299334985138
                       Total Pseudopotential Energy ::           -0.962295316385
                       Local Pseudopotential Energy ::           -0.962295316385
                    Nonlocal Pseudopotential Energy ::            0.000000000000
                                        Confinement ::            0.191268788606

 Orbital energies  State     L     Occupation   Energy[a.u.]          Energy[eV]

                       1     0          1.000      -0.199015           -5.415480


 Total Electron Density at R=0:                                         0.242907
 PAO| Made initial guess for matrix_X with norm:   4.8989794855663558     

     Lanczos converged:  T threshold:   0.100E-02
     Est. extremal eigenvalues:    0.323E+01   0.117E+00
     Est. condition number :    0.275E+02

 Order=           3
     NS sqrt iter    1 1.00000000   0.787E+00       0.001       62.188
     NS sqrt iter    2 1.00000000   0.417E+00       0.001      108.369
     NS sqrt iter    3 1.00000000   0.157E+00       0.001      109.076
     NS sqrt iter    4 1.00000000   0.169E-01       0.001      110.592
     NS sqrt iter    5 1.00000000   0.306E-04       0.001       83.584
     Symmetrizing Results
     Final NS sqrt iter    5 1.00000000   0.149E-08

 PAO| Read restart DM 2H2O_ref_LS_DM_SPIN_1_RESTART.dm with checksum:    56.479314317926118     
 PAO| Quickstep energy from restart density:  -34.447451524587684     
 PAO| ======================= Iteration:         1 =============================

     Lanczos converged:  T threshold:   0.100E-02
     Est. extremal eigenvalues:    0.323E+01   0.117E+00
     Est. condition number :    0.275E+02

 Order=           3
     NS sqrt iter    1 1.00000000   0.787E+00       0.001       63.799
     NS sqrt iter    2 1.00000000   0.417E+00       0.001      110.592
     NS sqrt iter    3 1.00000000   0.157E+00       0.001      110.592
     NS sqrt iter    4 1.00000000   0.169E-01       0.001      110.592
     NS sqrt iter    5 1.00000000   0.306E-04       0.001       83.584
     Symmetrizing Results
     Final NS sqrt iter    5 1.00000000   0.149E-08

     Est. extremal eigenvalues     -0.90832     1.78233  converged:  T
     TRS4 it   1 1.00000000   0.877E+00       0.000       16.128   0.100E-07
     TRS4 it   2 1.00000000   0.675E+00       0.001       32.256   0.100E-07
     TRS4 it   3 1.00000000   0.492E+00       0.001       32.256   0.100E-07
     TRS4 it   4 1.00000000   0.311E+00       0.001       32.256   0.100E-07
     TRS4 it   5 1.00000000   0.154E+00       0.001       32.256   0.100E-07
     TRS4 it   6 1.00000000   0.455E-01       0.001       32.256   0.100E-07
     TRS4 it   7 1.00000000   0.528E-02       0.001       32.256   0.100E-07
     TRS4 it   8 1.00000000   0.967E-04       0.001       32.256   0.100E-07
     TRS4 it   9 1.00000000   0.390E-07       0.001       32.256   0.100E-07
     Final TRS4 iteration    9 1.00000000   0.390E-07
     Chemical potential (mu):      -0.06728
 
 PAO| energy:  -7.5550218693769917      penalty:   3.5745259767827095E-033
 PAO|CG| warming up with steepest descent
 PAO|CG| beta:    0.0000000000000000     
 PAO| norm of gradient:  0.78447711766959483     
 PAO|LS| adapt:  T F F
 PAO|LS| adapt: scan_steps:    0.0000000000000000        0.0000000000000000        0.0000000000000000     
 PAO|LS| adapt: energies:   -7.5550218693769917        0.0000000000000000        0.0000000000000000     
 PAO| ======================= Iteration:         2 =============================

     Lanczos converged:  T threshold:   0.100E-02
     Est. extremal eigenvalues:    0.316E+01   0.132E+00
     Est. condition number :    0.239E+02

 Order=           3
     NS sqrt iter    1 1.00000000   0.774E+00       0.001       59.090
     NS sqrt iter    2 1.00000000   0.403E+00       0.001       96.792
     NS sqrt iter    3 1.00000000   0.140E+00       0.001       97.228
     NS sqrt iter    4 1.00000000   0.115E-01       0.001       98.170
     NS sqrt iter    5 1.00000000   0.912E-05       0.001       76.724
     Symmetrizing Results
     Final NS sqrt iter    5 1.00000000   0.130E-09

     Est. extremal eigenvalues     -0.91206     1.74048  converged:  T
     TRS4 it   1 1.00000000   0.876E+00       0.000       16.128   0.100E-07
     TRS4 it   2 1.00000000   0.659E+00       0.001       32.256   0.100E-07
     TRS4 it   3 1.00000000   0.476E+00       0.001       32.256   0.100E-07
     TRS4 it   4 1.00000000   0.290E+00       0.001       32.256   0.100E-07
     TRS4 it   5 1.00000000   0.134E+00       0.001       32.256   0.100E-07
     TRS4 it   6 1.00000000   0.345E-01       0.001       32.256   0.100E-07
     TRS4 it   7 1.00000000   0.306E-02       0.001       32.256   0.100E-07
     TRS4 it   8 1.00000000   0.327E-04       0.001       32.256   0.100E-07
     TRS4 it   9 1.00000000   0.450E-08       0.001       32.256   0.100E-07
     Final TRS4 iteration    9 1.00000000   0.450E-08
     Chemical potential (mu):      -0.05555
 
 PAO| energy:  -7.6105473557953101      penalty:   2.2655440331977452E-008
 PAO|LS| adapt:  T T F
 PAO|LS| adapt: scan_steps:    0.0000000000000000       0.10000000000000001        0.0000000000000000     
 PAO|LS| adapt: energies:   -7.5550218693769917       -7.6105473557953101        0.0000000000000000     
 PAO| ======================= Iteration:         3 =============================

     Lanczos converged:  T threshold:   0.100E-02
     Est. extremal eigenvalues:    0.308E+01   0.144E+00
     Est. condition number :    0.214E+02

 Order=           3
     NS sqrt iter    1 1.00000000   0.759E+00       0.001       64.512
     NS sqrt iter    2 1.00000000   0.387E+00       0.001      110.592
     NS sqrt iter    3 1.00000000   0.124E+00       0.001      109.541
     NS sqrt iter    4 1.00000000   0.784E-02       0.001      110.592
     NS sqrt iter    5 1.00000000   0.296E-05       0.001       82.944
     Symmetrizing Results
     Final NS sqrt iter    5 1.00000000   0.144E-10

     Est. extremal eigenvalues     -0.91551     1.71032  converged:  T
     TRS4 it   1 1.00000000   0.876E+00       0.000       16.128   0.100E-07
     TRS4 it   2 1.00000000   0.645E+00       0.001       32.256   0.100E-07
     TRS4 it   3 1.00000000   0.460E+00       0.001       32.256   0.100E-07
     TRS4 it   4 1.00000000   0.270E+00       0.001       32.256   0.100E-07
     TRS4 it   5 1.00000000   0.115E+00       0.001       32.256   0.100E-07
     TRS4 it   6 1.00000000   0.255E-01       0.001       32.256   0.100E-07
     TRS4 it   7 1.00000000   0.166E-02       0.001       32.256   0.100E-07
     TRS4 it   8 1.00000000   0.963E-05       0.001       32.256   0.100E-07
     TRS4 it   9 1.00000000   0.392E-09       0.001       32.256   0.100E-07
     Final TRS4 iteration    9 1.00000000   0.392E-09
     Chemical potential (mu):      -0.04267
 
 PAO| energy:  -7.6533845598622774      penalty:   3.6248704585202169E-007
 PAO|LS| adapt:  T T F
 PAO|LS| adapt: scan_steps:    0.0000000000000000       0.20000000000000001        0.0000000000000000     
 PAO|LS| adapt: energies:   -7.5550218693769917       -7.6533845598622774        0.0000000000000000     
 PAO| ======================= Iteration:         4 =============================

     Lanczos converged:  T threshold:   0.100E-02
     Est. extremal eigenvalues:    0.290E+01   0.160E+00
     Est. condition number :    0.182E+02

 Order=           3
     NS sqrt iter    1 1.00000000   0.727E+00       0.001       58.931
     NS sqrt iter    2 1.00000000   0.355E+00       0.001       96.573
     NS sqrt iter    3 1.00000000   0.963E-01       0.001       96.984
     NS sqrt iter    4 1.00000000   0.382E-02       0.001       96.780
     NS sqrt iter    5 1.00000000   0.469E-06       0.001       74.714
     Symmetrizing Results
     Final NS sqrt iter    5 1.00000000   0.529E-09

     Est. extremal eigenvalues     -0.92072     1.67207  converged:  T
     TRS4 it   1 1.00000000   0.879E+00       0.000       16.128   0.100E-07
     TRS4 it   2 1.00000000   0.624E+00       0.001       32.256   0.100E-07
     TRS4 it   3 1.00000000   0.433E+00       0.001       32.256   0.100E-07
     TRS4 it   4 1.00000000   0.234E+00       0.001       32.256   0.100E-07
     TRS4 it   5 1.00000000   0.848E-01       0.001       32.256   0.100E-07
     TRS4 it   6 1.00000000   0.132E-01       0.001       32.256   0.100E-07
     TRS4 it   7 1.00000000   0.415E-03       0.001       32.256   0.100E-07
     TRS4 it   8 1.00000000   0.584E-06       0.001       32.256   0.100E-07
     TRS4 it   9 1.00000000   0.146E-11       0.001       32.256   0.100E-07
     Final TRS4 iteration    9 1.00000000   0.146E-11
     Chemical potential (mu):      -0.01445
 
 PAO| energy:  -7.6994159676724969      penalty:   5.7997927379567552E-006
 PAO|LS| Need extra step
 PAO|LS| adapt:  T T F
 PAO|LS| adapt: scan_steps:    0.0000000000000000       0.40000000000000002        0.0000000000000000     
 PAO|LS| adapt: energies:   -7.5550218693769917       -7.6994159676724969        0.0000000000000000     
 PAO| ======================= Iteration:         5 =============================

     Lanczos converged:  T threshold:   0.100E-02
     Est. extremal eigenvalues:    0.257E+01   0.185E+00
     Est. condition number :    0.139E+02

 Order=           3
     NS sqrt iter    1 1.00000000   0.668E+00       0.001       63.620
     NS sqrt iter    2 1.00000000   0.295E+00       0.001      108.158
     NS sqrt iter    3 1.00000000   0.587E-01       0.001      109.618
     NS sqrt iter    4 1.00000000   0.108E-02       0.001      110.060
     NS sqrt iter    5 1.00000000   0.146E-07       0.001       47.488
     Symmetrizing Results
     Final NS sqrt iter    5 1.00000000   0.375E-08

     Est. extremal eigenvalues     -0.92102     1.63430  converged:  T
     TRS4 it   1 1.00000000   0.886E+00       0.000       16.128   0.100E-07
     TRS4 it   2 1.00000000   0.596E+00       0.001       32.256   0.100E-07
     TRS4 it   3 1.00000000   0.390E+00       0.001       32.256   0.100E-07
     TRS4 it   4 1.00000000   0.181E+00       0.001       32.256   0.100E-07
     TRS4 it   5 1.00000000   0.468E-01       0.001       32.256   0.100E-07
     TRS4 it   6 1.00000000   0.360E-02       0.001       32.256   0.100E-07
     TRS4 it   7 1.00000000   0.257E-04       0.001       32.256   0.100E-07
     TRS4 it   8 1.00000000   0.172E-08       0.001       32.256   0.100E-07
     Final TRS4 iteration    8 1.00000000   0.172E-08
     Chemical potential (mu):       0.03405
 
 PAO| energy:  -7.6396637059687649      penalty:   9.2796683841907590E-005
 PAO|LS| Need extra step
 PAO|LS| adapt:  T T T
 PAO|LS| adapt: scan_steps:    0.0000000000000000       0.40000000000000002       0.80000000000000004     
 PAO|LS| adapt: energies:   -7.5550218693769917       -7.6994159676724969       -7.6396637059687649     
 PAO|LS| adapt: suggested step_size:   0.48292269976509938     
 PAO|LS| adapt: predicted energy  -7.7038026736745380     
 PAO| ======================= Iteration:         6 =============================

     Lanczos converged:  T threshold:   0.100E-02
     Est. extremal eigenvalues:    0.283E+01   0.165E+00
     Est. condition number :    0.171E+02

 Order=           3
     NS sqrt iter    1 1.00000000   0.713E+00       0.001       58.883
     NS sqrt iter    2 1.00000000   0.341E+00       0.001       98.593
     NS sqrt iter    3 1.00000000   0.866E-01       0.001       98.970
     NS sqrt iter    4 1.00000000   0.290E-02       0.001       98.557
     NS sqrt iter    5 1.00000000   0.232E-06       0.001       77.696
     Symmetrizing Results
     Final NS sqrt iter    5 1.00000000   0.825E-09

     Est. extremal eigenvalues     -0.92198     1.66143  converged:  T
     TRS4 it   1 1.00000000   0.881E+00       0.000       16.128   0.100E-07
     TRS4 it   2 1.00000000   0.617E+00       0.001       32.256   0.100E-07
     TRS4 it   3 1.00000000   0.423E+00       0.001       32.256   0.100E-07
     TRS4 it   4 1.00000000   0.221E+00       0.001       32.256   0.100E-07
     TRS4 it   5 1.00000000   0.745E-01       0.001       32.256   0.100E-07
     TRS4 it   6 1.00000000   0.993E-02       0.001       32.256   0.100E-07
     TRS4 it   7 1.00000000   0.224E-03       0.001       32.256   0.100E-07
     TRS4 it   8 1.00000000   0.164E-06       0.017        1.934   0.100E-07
     TRS4 it   9 1.00000000   0.117E-12       0.001       32.256   0.100E-07
     Final TRS4 iteration    9 1.00000000   0.117E-12
     Chemical potential (mu):      -0.00219
 
 PAO| energy:  -7.7031094622136553      penalty:   1.2322050606357629E-005
 PAO|CG| warming up with steepest descent
 PAO|CG| beta:    0.0000000000000000     
 PAO| norm of gradient:  0.41156866061596720     
 PAO| energy improvement: -0.14808759283666362     
 PAO| step      6                   -7.703109462  0.257E-01  0.483E+00     0.104
 PAO|LS| adapt:  T F F
 PAO|LS| adapt: scan_steps:    0.0000000000000000        0.0000000000000000        0.0000000000000000     
 PAO|LS| adapt: energies:   -7.7031094622136553        0.0000000000000000        0.0000000000000000     
 PAO| ======================= Iteration:         7 =============================

     Lanczos converged:  T threshold:   0.100E-02
     Est. extremal eigenvalues:    0.274E+01   0.179E+00
     Est. condition number :    0.153E+02

 Order=           3
     NS sqrt iter    1 1.00000000   0.695E+00       0.001       64.512
     NS sqrt iter    2 1.00000000   0.321E+00       0.001      110.245
     NS sqrt iter    3 1.00000000   0.719E-01       0.001      110.592
     NS sqrt iter    4 1.00000000   0.175E-02       0.001      108.239
     NS sqrt iter    5 1.00000000   0.560E-07       0.001       64.896
     Symmetrizing Results
     Final NS sqrt iter    5 1.00000000   0.324E-08

     Est. extremal eigenvalues     -0.92369     1.66913  converged:  T
     TRS4 it   1 1.00000000   0.886E+00       0.000       16.128   0.100E-07
     TRS4 it   2 1.00000000   0.621E+00       0.001       32.256   0.100E-07
     TRS4 it   3 1.00000000   0.427E+00       0.001       32.256   0.100E-07
     TRS4 it   4 1.00000000   0.226E+00       0.001       32.256   0.100E-07
     TRS4 it   5 1.00000000   0.774E-01       0.001       32.256   0.100E-07
     TRS4 it   6 1.00000000   0.105E-01       0.001       32.256   0.100E-07
     TRS4 it   7 1.00000000   0.239E-03       0.001       32.256   0.100E-07
     TRS4 it   8 1.00000000   0.171E-06       0.001       32.256   0.100E-07
     TRS4 it   9 1.00000000   0.120E-12       0.001       32.256   0.100E-07
     Final TRS4 iteration    9 1.00000000   0.120E-12
     Chemical potential (mu):      -0.00046
 
 PAO| energy:  -7.7006512909112255      penalty:   1.8247403492862088E-005
 PAO|LS| adapt:  T F T
 PAO|LS| adapt: scan_steps:    0.0000000000000000        0.0000000000000000       0.48292269976509938     
 PAO|LS| adapt: energies:   -7.7031094622136553        0.0000000000000000       -7.7006512909112255     
 PAO| ======================= Iteration:         8 =============================

     Lanczos converged:  T threshold:   0.100E-02
     Est. extremal eigenvalues:    0.279E+01   0.172E+00
     Est. condition number :    0.162E+02

 Order=           3
     NS sqrt iter    1 1.00000000   0.704E+00       0.001       64.512
     NS sqrt iter    2 1.00000000   0.331E+00       0.001      110.164
     NS sqrt iter    3 1.00000000   0.791E-01       0.001      110.592
     NS sqrt iter    4 1.00000000   0.227E-02       0.001      110.024
     NS sqrt iter    5 1.00000000   0.117E-06       0.001       73.600
     Symmetrizing Results
     Final NS sqrt iter    5 1.00000000   0.839E-09

     Est. extremal eigenvalues     -0.92396     1.66507  converged:  T
     TRS4 it   1 1.00000000   0.883E+00       0.000       16.128   0.100E-07
     TRS4 it   2 1.00000000   0.619E+00       0.001       32.256   0.100E-07
     TRS4 it   3 1.00000000   0.425E+00       0.001       32.256   0.100E-07
     TRS4 it   4 1.00000000   0.223E+00       0.001       32.256   0.100E-07
     TRS4 it   5 1.00000000   0.759E-01       0.001       32.256   0.100E-07
     TRS4 it   6 1.00000000   0.104E-01       0.001       32.256   0.100E-07
     TRS4 it   7 1.00000000   0.240E-03       0.001       32.256   0.100E-07
     TRS4 it   8 1.00000000   0.182E-06       0.001       32.256   0.100E-07
     TRS4 it   9 1.00000000   0.139E-12       0.001       32.256   0.100E-07
     Final TRS4 iteration    9 1.00000000   0.139E-12
     Chemical potential (mu):      -0.00183
 
 PAO| energy:  -7.7227129779370323      penalty:   1.3304895089706205E-005
 PAO|LS| adapt:  T T T
 PAO|LS| adapt: scan_steps:    0.0000000000000000       0.24146134988254969       0.48292269976509938     
 PAO|LS| adapt: energies:   -7.7031094622136553       -7.7227129779370323       -7.7006512909112255     
 PAO|LS| adapt: suggested step_size:   0.23433845929564515     
 PAO|LS| adapt: predicted energy  -7.7227311063924144     
 PAO| ======================= Iteration:         9 =============================

     Lanczos converged:  T threshold:   0.100E-02
     Est. extremal eigenvalues:    0.279E+01   0.172E+00
     Est. condition number :    0.162E+02

 Order=           3
     NS sqrt iter    1 1.00000000   0.705E+00       0.001       57.375
     NS sqrt iter    2 1.00000000   0.331E+00       0.001       97.716
     NS sqrt iter    3 1.00000000   0.793E-01       0.001       96.900
     NS sqrt iter    4 1.00000000   0.229E-02       0.001       97.924
     NS sqrt iter    5 1.00000000   0.120E-06       0.001       68.955
     Symmetrizing Results
     Final NS sqrt iter    5 1.00000000   0.850E-09

     Est. extremal eigenvalues     -0.92394     1.66495  converged:  T
     TRS4 it   1 1.00000000   0.883E+00       0.000       16.128   0.100E-07
     TRS4 it   2 1.00000000   0.619E+00       0.001       32.256   0.100E-07
     TRS4 it   3 1.00000000   0.425E+00       0.001       32.256   0.100E-07
     TRS4 it   4 1.00000000   0.223E+00       0.001       32.256   0.100E-07
     TRS4 it   5 1.00000000   0.759E-01       0.001       32.256   0.100E-07
     TRS4 it   6 1.00000000   0.104E-01       0.001       32.256   0.100E-07
     TRS4 it   7 1.00000000   0.240E-03       0.001       32.256   0.100E-07
     TRS4 it   8 1.00000000   0.181E-06       0.001       32.256   0.100E-07
     TRS4 it   9 1.00000000   0.139E-12       0.001       32.256   0.100E-07
     Final TRS4 iteration    9 1.00000000   0.139E-12
     Chemical potential (mu):      -0.00185
 
 PAO| energy:  -7.7227413762902968      penalty:   1.3234035559530454E-005
 PAO|CG| trace_G_new    3.7291990877321171E-002
 PAO|CG| trace_G_prev   0.16938876240122117     
 PAO|CG| trace_G_mix   -1.4255001204186010E-003
 PAO|CG| trace_D   0.16938876240122117     
 PAO|CG| trace_D_Gnew   1.4255001204186010E-003
 PAO|CG| beta:   0.22857178037603190     
 PAO| norm of gradient:  0.19311134321246168     
 PAO| energy improvement:  -1.9631914076641444E-002
 PAO| step      9                   -7.722741376  0.121E-01  0.234E+00     0.103
 PAO|LS| adapt:  T F F
 PAO|LS| adapt: scan_steps:    0.0000000000000000        0.0000000000000000        0.0000000000000000     
 PAO|LS| adapt: energies:   -7.7227413762902968        0.0000000000000000        0.0000000000000000     
 PAO| ======================= Iteration:        10 =============================

     Lanczos converged:  T threshold:   0.100E-02
     Est. extremal eigenvalues:    0.275E+01   0.178E+00
     Est. condition number :    0.155E+02

 Order=           3
     NS sqrt iter    1 1.00000000   0.697E+00       0.001       57.532
     NS sqrt iter    2 1.00000000   0.323E+00       0.001       96.435
     NS sqrt iter    3 1.00000000   0.738E-01       0.001       97.821
     NS sqrt iter    4 1.00000000   0.186E-02       0.001       97.828
     NS sqrt iter    5 1.00000000   0.664E-07       0.001       62.562
     Symmetrizing Results
     Final NS sqrt iter    5 1.00000000   0.235E-08

     Est. extremal eigenvalues     -0.92482     1.66811  converged:  T
     TRS4 it   1 1.00000000   0.884E+00       0.000       16.128   0.100E-07
     TRS4 it   2 1.00000000   0.619E+00       0.001       32.256   0.100E-07
     TRS4 it   3 1.00000000   0.424E+00       0.001       32.256   0.100E-07
     TRS4 it   4 1.00000000   0.222E+00       0.001       32.256   0.100E-07
     TRS4 it   5 1.00000000   0.745E-01       0.001       32.256   0.100E-07
     TRS4 it   6 1.00000000   0.989E-02       0.001       32.256   0.100E-07
     TRS4 it   7 1.00000000   0.214E-03       0.001       32.256   0.100E-07
     TRS4 it   8 1.00000000   0.138E-06       0.001       32.256   0.100E-07
     TRS4 it   9 1.00000000   0.795E-13       0.001       32.256   0.100E-07
     Final TRS4 iteration    9 1.00000000   0.795E-13
     Chemical potential (mu):       0.00175
 
 PAO| energy:  -7.7277425917696929      penalty:   1.3804203125254874E-005
 PAO|LS| adapt:  T T F
 PAO|LS| adapt: scan_steps:    0.0000000000000000       0.23433845929564515        0.0000000000000000     
 PAO|LS| adapt: energies:   -7.7227413762902968       -7.7277425917696929        0.0000000000000000     
 PAO| ======================= Iteration:        11 =============================

     Lanczos converged:  T threshold:   0.100E-02
     Est. extremal eigenvalues:    0.271E+01   0.183E+00
     Est. condition number :    0.148E+02

 Order=           3
     NS sqrt iter    1 1.00000000   0.689E+00       0.001       58.566
     NS sqrt iter    2 1.00000000   0.314E+00       0.001       96.710
     NS sqrt iter    3 1.00000000   0.685E-01       0.001       98.020
     NS sqrt iter    4 1.00000000   0.151E-02       0.001       98.338
     NS sqrt iter    5 1.00000000   0.358E-07       0.001       54.469
     Symmetrizing Results
     Final NS sqrt iter    5 1.00000000   0.384E-08

     Est. extremal eigenvalues     -0.92463     1.67205  converged:  T
     TRS4 it   1 1.00000000   0.885E+00       0.000       16.128   0.100E-07
     TRS4 it   2 1.00000000   0.620E+00       0.001       32.256   0.100E-07
     TRS4 it   3 1.00000000   0.424E+00       0.001       32.256   0.100E-07
     TRS4 it   4 1.00000000   0.220E+00       0.001       32.256   0.100E-07
     TRS4 it   5 1.00000000   0.731E-01       0.001       32.256   0.100E-07
     TRS4 it   6 1.00000000   0.943E-02       0.001       32.256   0.100E-07
     TRS4 it   7 1.00000000   0.190E-03       0.001       32.256   0.100E-07
     TRS4 it   8 1.00000000   0.104E-06       0.001       32.256   0.100E-07
     TRS4 it   9 1.00000000   0.437E-13       0.001       32.256   0.100E-07
     Final TRS4 iteration    9 1.00000000   0.437E-13
     Chemical potential (mu):       0.00550
 
 PAO| energy:  -7.7256893915879461      penalty:   1.5084487539429304E-005
 PAO|LS| adapt:  T T T
 PAO|LS| adapt: scan_steps:    0.0000000000000000       0.23433845929564515       0.46867691859129029     
 PAO|LS| adapt: energies:   -7.7227413762902968       -7.7277425917696929       -7.7256893915879461     
 PAO|LS| adapt: suggested step_size:   0.28330306501319408     
 PAO|LS| adapt: predicted energy  -7.7278965874125056     
 PAO| ======================= Iteration:        12 =============================

     Lanczos converged:  T threshold:   0.100E-02
     Est. extremal eigenvalues:    0.274E+01   0.179E+00
     Est. condition number :    0.154E+02

 Order=           3
     NS sqrt iter    1 1.00000000   0.695E+00       0.001       58.372
     NS sqrt iter    2 1.00000000   0.321E+00       0.001      100.494
     NS sqrt iter    3 1.00000000   0.726E-01       0.001       98.380
     NS sqrt iter    4 1.00000000   0.178E-02       0.001       97.886
     NS sqrt iter    5 1.00000000   0.585E-07       0.001       60.917
     Symmetrizing Results
     Final NS sqrt iter    5 1.00000000   0.248E-08

     Est. extremal eigenvalues     -0.92487     1.66888  converged:  T
     TRS4 it   1 1.00000000   0.884E+00       0.000       16.128   0.100E-07
     TRS4 it   2 1.00000000   0.619E+00       0.001       32.256   0.100E-07
     TRS4 it   3 1.00000000   0.424E+00       0.001       32.256   0.100E-07
     TRS4 it   4 1.00000000   0.221E+00       0.001       32.256   0.100E-07
     TRS4 it   5 1.00000000   0.742E-01       0.001       32.256   0.100E-07
     TRS4 it   6 1.00000000   0.979E-02       0.001       32.256   0.100E-07
     TRS4 it   7 1.00000000   0.209E-03       0.001       32.256   0.100E-07
     TRS4 it   8 1.00000000   0.131E-06       0.001       32.256   0.100E-07
     TRS4 it   9 1.00000000   0.700E-13       0.001       32.256   0.100E-07
     Final TRS4 iteration    9 1.00000000   0.700E-13
     Chemical potential (mu):       0.00253
 
 PAO| energy:  -7.7278828630517067      penalty:   1.4006377792909877E-005
 PAO|CG| trace_G_new    1.2800765979391247E-002
 PAO|CG| trace_G_prev    3.7291990877321171E-002
 PAO|CG| trace_G_mix   -5.0465551898526417E-004
 PAO|CG| trace_D    4.5490058525466892E-002
 PAO|CG| trace_D_Gnew   2.5554291077325552E-004
 PAO|CG| beta:   0.35679032374933078     
 PAO| norm of gradient:  0.11314047012184122     
 PAO| energy improvement:  -5.1414867614099080E-003
 PAO| step     12                   -7.727882863  0.707E-02  0.283E+00     0.059
 PAO|LS| adapt:  T F F
 PAO|LS| adapt: scan_steps:    0.0000000000000000        0.0000000000000000        0.0000000000000000     
 PAO|LS| adapt: energies:   -7.7278828630517067        0.0000000000000000        0.0000000000000000     
 PAO| ======================= Iteration:        13 =============================

     Lanczos converged:  T threshold:   0.100E-02
     Est. extremal eigenvalues:    0.271E+01   0.183E+00
     Est. condition number :    0.148E+02

 Order=           3
     NS sqrt iter    1 1.00000000   0.688E+00       0.001       57.468
     NS sqrt iter    2 1.00000000   0.314E+00       0.001       98.645
     NS sqrt iter    3 1.00000000   0.684E-01       0.001       97.331
     NS sqrt iter    4 1.00000000   0.150E-02       0.001       97.520
     NS sqrt iter    5 1.00000000   0.355E-07       0.001       52.919
     Symmetrizing Results
     Final NS sqrt iter    5 1.00000000   0.380E-08

     Est. extremal eigenvalues     -0.92532     1.66413  converged:  T
     TRS4 it   1 1.00000000   0.885E+00       0.000       16.128   0.100E-07
     TRS4 it   2 1.00000000   0.617E+00       0.001       32.256   0.100E-07
     TRS4 it   3 1.00000000   0.420E+00       0.001       32.256   0.100E-07
     TRS4 it   4 1.00000000   0.216E+00       0.001       32.256   0.100E-07
     TRS4 it   5 1.00000000   0.705E-01       0.001       32.256   0.100E-07
     TRS4 it   6 1.00000000   0.876E-02       0.001       32.256   0.100E-07
     TRS4 it   7 1.00000000   0.163E-03       0.001       32.256   0.100E-07
     TRS4 it   8 1.00000000   0.764E-07       0.001       32.256   0.100E-07
     Final TRS4 iteration    8 1.00000000   0.764E-07
     Chemical potential (mu):       0.00548
 
 PAO| energy:  -7.7300458717219067      penalty:   1.4354143319606234E-005
 PAO|LS| adapt:  T T F
 PAO|LS| adapt: scan_steps:    0.0000000000000000       0.28330306501319408        0.0000000000000000     
 PAO|LS| adapt: energies:   -7.7278828630517067       -7.7300458717219067        0.0000000000000000     
 PAO| ======================= Iteration:        14 =============================

     Lanczos converged:  T threshold:   0.100E-02
     Est. extremal eigenvalues:    0.268E+01   0.188E+00
     Est. condition number :    0.143E+02

 Order=           3
     NS sqrt iter    1 1.00000000   0.681E+00       0.001       57.963
     NS sqrt iter    2 1.00000000   0.307E+00       0.001       98.672
     NS sqrt iter    3 1.00000000   0.645E-01       0.001       99.301
     NS sqrt iter    4 1.00000000   0.127E-02       0.001       97.938
     NS sqrt iter    5 1.00000000   0.214E-07       0.001       48.399
     Symmetrizing Results
     Final NS sqrt iter    5 1.00000000   0.384E-08

     Est. extremal eigenvalues     -0.92531     1.65962  converged:  T
     TRS4 it   1 1.00000000   0.885E+00       0.000       16.128   0.100E-07
     TRS4 it   2 1.00000000   0.614E+00       0.001       32.256   0.100E-07
     TRS4 it   3 1.00000000   0.417E+00       0.001       32.256   0.100E-07
     TRS4 it   4 1.00000000   0.212E+00       0.001       32.256   0.100E-07
     TRS4 it   5 1.00000000   0.670E-01       0.001       32.256   0.100E-07
     TRS4 it   6 1.00000000   0.784E-02       0.001       32.256   0.100E-07
     TRS4 it   7 1.00000000   0.128E-03       0.001       32.256   0.100E-07
     TRS4 it   8 1.00000000   0.446E-07       0.001       32.256   0.100E-07
     Final TRS4 iteration    8 1.00000000   0.446E-07
     Chemical potential (mu):       0.00994
 
 PAO| energy:  -7.7293811623978206      penalty:   1.5189708621974599E-005
 PAO|LS| adapt:  T T T
 PAO|LS| adapt: scan_steps:    0.0000000000000000       0.28330306501319408       0.56660613002638816     
 PAO|LS| adapt: energies:   -7.7278828630517067       -7.7300458717219067       -7.7293811623978206     
 PAO|LS| adapt: suggested step_size:   0.35835878095075285     
 PAO|LS| adapt: predicted energy  -7.7301451081439572     
 PAO| ======================= Iteration:        15 =============================

     Lanczos converged:  T threshold:   0.100E-02
     Est. extremal eigenvalues:    0.270E+01   0.184E+00
     Est. condition number :    0.147E+02

 Order=           3
     NS sqrt iter    1 1.00000000   0.686E+00       0.001       57.691
     NS sqrt iter    2 1.00000000   0.312E+00       0.001       98.508
     NS sqrt iter    3 1.00000000   0.674E-01       0.001       97.795
     NS sqrt iter    4 1.00000000   0.144E-02       0.001       97.179
     NS sqrt iter    5 1.00000000   0.310E-07       0.001       51.076
     Symmetrizing Results
     Final NS sqrt iter    5 1.00000000   0.408E-08

     Est. extremal eigenvalues     -0.92536     1.66291  converged:  T
     TRS4 it   1 1.00000000   0.885E+00       0.000       16.128   0.100E-07
     TRS4 it   2 1.00000000   0.616E+00       0.001       32.256   0.100E-07
     TRS4 it   3 1.00000000   0.419E+00       0.001       32.256   0.100E-07
     TRS4 it   4 1.00000000   0.215E+00       0.001       32.256   0.100E-07
     TRS4 it   5 1.00000000   0.696E-01       0.001       32.256   0.100E-07
     TRS4 it   6 1.00000000   0.851E-02       0.001       32.256   0.100E-07
     TRS4 it   7 1.00000000   0.153E-03       0.001       32.256   0.100E-07
     TRS4 it   8 1.00000000   0.663E-07       0.001       32.256   0.100E-07
     Final TRS4 iteration    8 1.00000000   0.663E-07
     Chemical potential (mu):       0.00667
 
 PAO| energy:  -7.7301421816719165      penalty:   1.4524699555202027E-005
 PAO|CG| trace_G_new    2.9296680291716940E-003
 PAO|CG| trace_G_prev    1.2800765979391247E-002
 PAO|CG| trace_G_mix    9.5289720505563945E-005
 PAO|CG| trace_D    1.8409269708572214E-002
 PAO|CG| trace_D_Gnew   3.3427739306440086E-005
 PAO|CG| beta:   0.22142255496502106     
 PAO| norm of gradient:   5.4126407872421151E-002
 PAO| energy improvement:  -2.2593186202097826E-003
 PAO| step     15                   -7.730142182  0.338E-02  0.358E+00     0.073
 PAO|LS| adapt:  T F F
 PAO|LS| adapt: scan_steps:    0.0000000000000000        0.0000000000000000        0.0000000000000000     
 PAO|LS| adapt: energies:   -7.7301421816719165        0.0000000000000000        0.0000000000000000     
 PAO| ======================= Iteration:        16 =============================

     Lanczos converged:  T threshold:   0.100E-02
     Est. extremal eigenvalues:    0.269E+01   0.185E+00
     Est. condition number :    0.146E+02

 Order=           3
     NS sqrt iter    1 1.00000000   0.685E+00       0.001       58.047
     NS sqrt iter    2 1.00000000   0.311E+00       0.001       98.007
     NS sqrt iter    3 1.00000000   0.667E-01       0.001       98.163
     NS sqrt iter    4 1.00000000   0.139E-02       0.001       96.789
     NS sqrt iter    5 1.00000000   0.280E-07       0.001       51.077
     Symmetrizing Results
     Final NS sqrt iter    5 1.00000000   0.364E-08

     Est. extremal eigenvalues     -0.92539     1.66261  converged:  T
     TRS4 it   1 1.00000000   0.885E+00       0.000       16.128   0.100E-07
     TRS4 it   2 1.00000000   0.615E+00       0.001       32.256   0.100E-07
     TRS4 it   3 1.00000000   0.418E+00       0.001       32.256   0.100E-07
     TRS4 it   4 1.00000000   0.213E+00       0.001       32.256   0.100E-07
     TRS4 it   5 1.00000000   0.683E-01       0.001       32.256   0.100E-07
     TRS4 it   6 1.00000000   0.820E-02       0.001       32.256   0.100E-07
     TRS4 it   7 1.00000000   0.142E-03       0.001       32.256   0.100E-07
     TRS4 it   8 1.00000000   0.570E-07       0.001       32.256   0.100E-07
     Final TRS4 iteration    8 1.00000000   0.570E-07
     Chemical potential (mu):       0.00799
 
 PAO| energy:  -7.7303058847106962      penalty:   1.4362299168267230E-005
 PAO|LS| adapt:  T T F
 PAO|LS| adapt: scan_steps:    0.0000000000000000       0.35835878095075285        0.0000000000000000     
 PAO|LS| adapt: energies:   -7.7301421816719165       -7.7303058847106962        0.0000000000000000     
 PAO| ======================= Iteration:        17 =============================

     Lanczos converged:  T threshold:   0.100E-02
     Est. extremal eigenvalues:    0.269E+01   0.186E+00
     Est. condition number :    0.144E+02

 Order=           3
     NS sqrt iter    1 1.00000000   0.683E+00       0.001       58.859
     NS sqrt iter    2 1.00000000   0.309E+00       0.001       97.729
     NS sqrt iter    3 1.00000000   0.661E-01       0.001       99.726
     NS sqrt iter    4 1.00000000   0.135E-02       0.017        6.427
     NS sqrt iter    5 1.00000000   0.253E-07       0.001       50.882
     Symmetrizing Results
     Final NS sqrt iter    5 1.00000000   0.270E-08

     Est. extremal eigenvalues     -0.92522     1.66245  converged:  T
     TRS4 it   1 1.00000000   0.885E+00       0.000       16.128   0.100E-07
     TRS4 it   2 1.00000000   0.615E+00       0.001       32.256   0.100E-07
     TRS4 it   3 1.00000000   0.417E+00       0.001       32.256   0.100E-07
     TRS4 it   4 1.00000000   0.212E+00       0.001       32.256   0.100E-07
     TRS4 it   5 1.00000000   0.671E-01       0.001       32.256   0.100E-07
     TRS4 it   6 1.00000000   0.790E-02       0.001       32.256   0.100E-07
     TRS4 it   7 1.00000000   0.132E-03       0.001       32.256   0.100E-07
     TRS4 it   8 1.00000000   0.491E-07       0.001       32.256   0.100E-07
     Final TRS4 iteration    8 1.00000000   0.491E-07
     Chemical potential (mu):       0.00928
 
 PAO| energy:  -7.7286970218608184      penalty:   1.4330461698823030E-005
 PAO|LS| adapt:  T T T
 PAO|LS| adapt: scan_steps:    0.0000000000000000       0.35835878095075285       0.71671756190150571     
 PAO|LS| adapt: energies:   -7.7301421816719165       -7.7303058847106962       -7.7286970218608184     
 PAO|LS| adapt: suggested step_size:   0.21227515396176555     
 PAO|LS| adapt: predicted energy  -7.7304531632189999     
 PAO| ======================= Iteration:        18 =============================

     Lanczos converged:  T threshold:   0.100E-02
     Est. extremal eigenvalues:    0.270E+01   0.185E+00
     Est. condition number :    0.146E+02

 Order=           3
     NS sqrt iter    1 1.00000000   0.685E+00       0.001       57.774
     NS sqrt iter    2 1.00000000   0.311E+00       0.001       99.915
     NS sqrt iter    3 1.00000000   0.670E-01       0.017        6.436
     NS sqrt iter    4 1.00000000   0.141E-02       0.001       97.908
     NS sqrt iter    5 1.00000000   0.292E-07       0.001       51.628
     Symmetrizing Results
     Final NS sqrt iter    5 1.00000000   0.389E-08

     Est. extremal eigenvalues     -0.92540     1.66272  converged:  T
     TRS4 it   1 1.00000000   0.885E+00       0.000       16.128   0.100E-07
     TRS4 it   2 1.00000000   0.616E+00       0.001       32.256   0.100E-07
     TRS4 it   3 1.00000000   0.419E+00       0.001       32.256   0.100E-07
     TRS4 it   4 1.00000000   0.214E+00       0.001       32.256   0.100E-07
     TRS4 it   5 1.00000000   0.688E-01       0.001       32.256   0.100E-07
     TRS4 it   6 1.00000000   0.832E-02       0.001       32.256   0.100E-07
     TRS4 it   7 1.00000000   0.146E-03       0.001       32.256   0.100E-07
     TRS4 it   8 1.00000000   0.606E-07       0.001       32.256   0.100E-07
     Final TRS4 iteration    8 1.00000000   0.606E-07
     Chemical potential (mu):       0.00745
 
 PAO| energy:  -7.7304527242851542      penalty:   1.4413087300487791E-005
 PAO|CG| trace_G_new    7.7394597637355574E-004
 PAO|CG| trace_G_prev    2.9296680291716940E-003
 PAO|CG| trace_G_mix    3.4126297754868113E-007
 PAO|CG| trace_D    3.8174334334614324E-003
 PAO|CG| trace_D_Gnew  -1.9067495033501986E-006
 PAO|CG| beta:   0.26405883045210710     
 PAO| norm of gradient:   2.7819884549968137E-002
 PAO| energy improvement:  -3.1054261323770760E-004
 PAO| step     18                   -7.730452724  0.174E-02  0.212E+00     0.105
 PAO|LS| adapt:  T F F
 PAO|LS| adapt: scan_steps:    0.0000000000000000        0.0000000000000000        0.0000000000000000     
 PAO|LS| adapt: energies:   -7.7304527242851542        0.0000000000000000        0.0000000000000000     
 PAO| ======================= Iteration:        19 =============================

     Lanczos converged:  T threshold:   0.100E-02
     Est. extremal eigenvalues:    0.270E+01   0.185E+00
     Est. condition number :    0.146E+02

 Order=           3
     NS sqrt iter    1 1.00000000   0.685E+00       0.001       58.939
     NS sqrt iter    2 1.00000000   0.312E+00       0.001       97.970
     NS sqrt iter    3 1.00000000   0.672E-01       0.001       99.737
     NS sqrt iter    4 1.00000000   0.142E-02       0.001       99.123
     NS sqrt iter    5 1.00000000   0.295E-07       0.001       51.448
     Symmetrizing Results
     Final NS sqrt iter    5 1.00000000   0.399E-08

     Est. extremal eigenvalues     -0.92540     1.66285  converged:  T
     TRS4 it   1 1.00000000   0.885E+00       0.000       16.128   0.100E-07
     TRS4 it   2 1.00000000   0.616E+00       0.001       32.256   0.100E-07
     TRS4 it   3 1.00000000   0.418E+00       0.001       32.256   0.100E-07
     TRS4 it   4 1.00000000   0.214E+00       0.001       32.256   0.100E-07
     TRS4 it   5 1.00000000   0.687E-01       0.001       32.256   0.100E-07
     TRS4 it   6 1.00000000   0.830E-02       0.001       32.256   0.100E-07
     TRS4 it   7 1.00000000   0.146E-03       0.001       32.256   0.100E-07
     TRS4 it   8 1.00000000   0.610E-07       0.001       32.256   0.100E-07
     Final TRS4 iteration    8 1.00000000   0.610E-07
     Chemical potential (mu):       0.00739
 
 PAO| energy:  -7.7305781252905552      penalty:   1.4146086966187422E-005
 PAO|LS| adapt:  T T F
 PAO|LS| adapt: scan_steps:    0.0000000000000000       0.21227515396176555        0.0000000000000000     
 PAO|LS| adapt: energies:   -7.7304527242851542       -7.7305781252905552        0.0000000000000000     
 PAO| ======================= Iteration:        20 =============================

     Lanczos converged:  T threshold:   0.100E-02
     Est. extremal eigenvalues:    0.270E+01   0.185E+00
     Est. condition number :    0.146E+02

 Order=           3
     NS sqrt iter    1 1.00000000   0.685E+00       0.001       58.436
     NS sqrt iter    2 1.00000000   0.312E+00       0.001       98.394
     NS sqrt iter    3 1.00000000   0.674E-01       0.001       99.105
     NS sqrt iter    4 1.00000000   0.143E-02       0.001       99.075
     NS sqrt iter    5 1.00000000   0.298E-07       0.001       51.614
     Symmetrizing Results
     Final NS sqrt iter    5 1.00000000   0.408E-08

     Est. extremal eigenvalues     -0.92539     1.66298  converged:  T
     TRS4 it   1 1.00000000   0.885E+00       0.000       16.128   0.100E-07
     TRS4 it   2 1.00000000   0.615E+00       0.001       32.256   0.100E-07
     TRS4 it   3 1.00000000   0.418E+00       0.001       32.256   0.100E-07
     TRS4 it   4 1.00000000   0.214E+00       0.001       32.256   0.100E-07
     TRS4 it   5 1.00000000   0.686E-01       0.001       32.256   0.100E-07
     TRS4 it   6 1.00000000   0.828E-02       0.001       32.256   0.100E-07
     TRS4 it   7 1.00000000   0.146E-03       0.001       32.256   0.100E-07
     TRS4 it   8 1.00000000   0.615E-07       0.001       32.256   0.100E-07
     Final TRS4 iteration    8 1.00000000   0.615E-07
     Chemical potential (mu):       0.00731
 
 PAO| energy:  -7.7306250774262590      penalty:   1.3891286387969220E-005
 PAO|LS| adapt:  T T F
 PAO|LS| adapt: scan_steps:    0.0000000000000000       0.42455030792353110        0.0000000000000000     
 PAO|LS| adapt: energies:   -7.7304527242851542       -7.7306250774262590        0.0000000000000000     
 PAO| ======================= Iteration:        21 =============================

     Lanczos converged:  T threshold:   0.100E-02
     Est. extremal eigenvalues:    0.270E+01   0.184E+00
     Est. condition number :    0.146E+02

 Order=           3
     NS sqrt iter    1 1.00000000   0.685E+00       0.001       58.662
     NS sqrt iter    2 1.00000000   0.312E+00       0.001       97.972
     NS sqrt iter    3 1.00000000   0.679E-01       0.001      101.167
     NS sqrt iter    4 1.00000000   0.145E-02       0.001       98.565
     NS sqrt iter    5 1.00000000   0.305E-07       0.001       51.294
     Symmetrizing Results
     Final NS sqrt iter    5 1.00000000   0.476E-08

     Est. extremal eigenvalues     -0.92538     1.66327  converged:  T
     TRS4 it   1 1.00000000   0.885E+00       0.000       16.128   0.100E-07
     TRS4 it   2 1.00000000   0.615E+00       0.001       32.256   0.100E-07
     TRS4 it   3 1.00000000   0.418E+00       0.001       32.256   0.100E-07
     TRS4 it   4 1.00000000   0.213E+00       0.001       32.256   0.100E-07
     TRS4 it   5 1.00000000   0.683E-01       0.001       32.256   0.100E-07
     TRS4 it   6 1.00000000   0.825E-02       0.001       32.256   0.100E-07
     TRS4 it   7 1.00000000   0.146E-03       0.001       32.256   0.100E-07
     TRS4 it   8 1.00000000   0.624E-07       0.001       32.256   0.100E-07
     Final TRS4 iteration    8 1.00000000   0.624E-07
     Chemical potential (mu):       0.00714
 
 PAO| energy:  -7.7304808783180885      penalty:   1.3417806494284245E-005
 PAO|LS| Need extra step
 PAO|LS| adapt:  T T T
 PAO|LS| adapt: scan_steps:    0.0000000000000000       0.42455030792353110       0.84910061584706220     
 PAO|LS| adapt: energies:   -7.7304527242851542       -7.7306250774262590       -7.7304808783180885     
 PAO|LS| adapt: suggested step_size:   0.44342997688642261     
 PAO|LS| adapt: predicted energy  -7.7306253904273401     
 PAO| ======================= Iteration:        22 =============================

     Lanczos converged:  T threshold:   0.100E-02
     Est. extremal eigenvalues:    0.270E+01   0.185E+00
     Est. condition number :    0.146E+02

 Order=           3
     NS sqrt iter    1 1.00000000   0.685E+00       0.001       58.306
     NS sqrt iter    2 1.00000000   0.312E+00       0.001      101.281
     NS sqrt iter    3 1.00000000   0.675E-01       0.001       98.477
     NS sqrt iter    4 1.00000000   0.143E-02       0.001       98.413
     NS sqrt iter    5 1.00000000   0.298E-07       0.001       50.465
     Symmetrizing Results
     Final NS sqrt iter    5 1.00000000   0.409E-08

     Est. extremal eigenvalues     -0.92539     1.66300  converged:  T
     TRS4 it   1 1.00000000   0.885E+00       0.000       16.128   0.100E-07
     TRS4 it   2 1.00000000   0.615E+00       0.001       32.256   0.100E-07
     TRS4 it   3 1.00000000   0.418E+00       0.001       32.256   0.100E-07
     TRS4 it   4 1.00000000   0.214E+00       0.001       32.256   0.100E-07
     TRS4 it   5 1.00000000   0.686E-01       0.001       32.256   0.100E-07
     TRS4 it   6 1.00000000   0.828E-02       0.001       32.256   0.100E-07
     TRS4 it   7 1.00000000   0.146E-03       0.001       32.256   0.100E-07
     TRS4 it   8 1.00000000   0.615E-07       0.001       32.256   0.100E-07
     Final TRS4 iteration    8 1.00000000   0.615E-07
     Chemical potential (mu):       0.00730
 
 PAO| energy:  -7.7306254312163896      penalty:   1.3869210046381361E-005
 PAO|CG| trace_G_new    2.3331850060158497E-004
 PAO|CG| trace_G_prev    7.7394597637355574E-004
 PAO|CG| trace_G_mix    4.0792724557596943E-006
 PAO|CG| trace_D    1.0411313971967083E-003
 PAO|CG| trace_D_Gnew  -2.1547591152703917E-006
 PAO|CG| beta:   0.29619538720255556     
 PAO| norm of gradient:   1.5274766793689028E-002
 PAO| energy improvement:  -1.7270693123538905E-004
 PAO| step     22                   -7.730625431  0.955E-03  0.443E+00     0.073
 PAO|LS| adapt:  T F F
 PAO|LS| adapt: scan_steps:    0.0000000000000000        0.0000000000000000        0.0000000000000000     
 PAO|LS| adapt: energies:   -7.7306254312163896        0.0000000000000000        0.0000000000000000     
 PAO| ======================= Iteration:        23 =============================

     Lanczos converged:  T threshold:   0.100E-02
     Est. extremal eigenvalues:    0.270E+01   0.185E+00
     Est. condition number :    0.146E+02

 Order=           3
     NS sqrt iter    1 1.00000000   0.685E+00       0.001       57.573
     NS sqrt iter    2 1.00000000   0.312E+00       0.001       97.441
     NS sqrt iter    3 1.00000000   0.675E-01       0.001       97.016
     NS sqrt iter    4 1.00000000   0.143E-02       0.001       98.021
     NS sqrt iter    5 1.00000000   0.298E-07       0.001       51.614
     Symmetrizing Results
     Final NS sqrt iter    5 1.00000000   0.409E-08

     Est. extremal eigenvalues     -0.92539     1.66309  converged:  T
     TRS4 it   1 1.00000000   0.885E+00       0.000       16.128   0.100E-07
     TRS4 it   2 1.00000000   0.616E+00       0.001       32.256   0.100E-07
     TRS4 it   3 1.00000000   0.418E+00       0.001       32.256   0.100E-07
     TRS4 it   4 1.00000000   0.214E+00       0.001       32.256   0.100E-07
     TRS4 it   5 1.00000000   0.687E-01       0.001       32.256   0.100E-07
     TRS4 it   6 1.00000000   0.832E-02       0.001       32.256   0.100E-07
     TRS4 it   7 1.00000000   0.148E-03       0.001       32.256   0.100E-07
     TRS4 it   8 1.00000000   0.628E-07       0.001       32.256   0.100E-07
     Final TRS4 iteration    8 1.00000000   0.628E-07
     Chemical potential (mu):       0.00711
 
 PAO| energy:  -7.7306620597018894      penalty:   1.3228148864223938E-005
 PAO|LS| adapt:  T T F
 PAO|LS| adapt: scan_steps:    0.0000000000000000       0.44342997688642261        0.0000000000000000     
 PAO|LS| adapt: energies:   -7.7306254312163896       -7.7306620597018894        0.0000000000000000     
 PAO| ======================= Iteration:        24 =============================

     Lanczos converged:  T threshold:   0.100E-02
     Est. extremal eigenvalues:    0.270E+01   0.185E+00
     Est. condition number :    0.146E+02

 Order=           3
     NS sqrt iter    1 1.00000000   0.685E+00       0.001       58.839
     NS sqrt iter    2 1.00000000   0.312E+00       0.001       97.358
     NS sqrt iter    3 1.00000000   0.676E-01       0.001      100.121
     NS sqrt iter    4 1.00000000   0.143E-02       0.001      100.683
     NS sqrt iter    5 1.00000000   0.298E-07       0.001       51.704
     Symmetrizing Results
     Final NS sqrt iter    5 1.00000000   0.409E-08

     Est. extremal eigenvalues     -0.92539     1.66319  converged:  T
     TRS4 it   1 1.00000000   0.885E+00       0.000       16.128   0.100E-07
     TRS4 it   2 1.00000000   0.616E+00       0.001       32.256   0.100E-07
     TRS4 it   3 1.00000000   0.419E+00       0.001       32.256   0.100E-07
     TRS4 it   4 1.00000000   0.214E+00       0.001       32.256   0.100E-07
     TRS4 it   5 1.00000000   0.688E-01       0.001       32.256   0.100E-07
     TRS4 it   6 1.00000000   0.835E-02       0.001       32.256   0.100E-07
     TRS4 it   7 1.00000000   0.149E-03       0.001       32.256   0.100E-07
     TRS4 it   8 1.00000000   0.641E-07       0.001       32.256   0.100E-07
     Final TRS4 iteration    8 1.00000000   0.641E-07
     Chemical potential (mu):       0.00691
 
 PAO| energy:  -7.7305637855616256      penalty:   1.2613995982638900E-005
 PAO|LS| adapt:  T T T
 PAO|LS| adapt: scan_steps:    0.0000000000000000       0.44342997688642261       0.88685995377284521     
 PAO|LS| adapt: energies:   -7.7306254312163896       -7.7306620597018894       -7.7305637855616256     
 PAO|LS| adapt: suggested step_size:   0.34211419036108665     
 PAO|LS| adapt: predicted energy  -7.7306655809331568     
 PAO| ======================= Iteration:        25 =============================

     Lanczos converged:  T threshold:   0.100E-02
     Est. extremal eigenvalues:    0.270E+01   0.185E+00
     Est. condition number :    0.146E+02

 Order=           3
     NS sqrt iter    1 1.00000000   0.685E+00       0.001       57.806
     NS sqrt iter    2 1.00000000   0.312E+00       0.001       98.214
     NS sqrt iter    3 1.00000000   0.675E-01       0.001       99.668
     NS sqrt iter    4 1.00000000   0.143E-02       0.001      100.527
     NS sqrt iter    5 1.00000000   0.298E-07       0.001       51.298
     Symmetrizing Results
     Final NS sqrt iter    5 1.00000000   0.409E-08

     Est. extremal eigenvalues     -0.92539     1.66307  converged:  T
     TRS4 it   1 1.00000000   0.885E+00       0.000       16.128   0.100E-07
     TRS4 it   2 1.00000000   0.616E+00       0.001       32.256   0.100E-07
     TRS4 it   3 1.00000000   0.418E+00       0.001       32.256   0.100E-07
     TRS4 it   4 1.00000000   0.214E+00       0.001       32.256   0.100E-07
     TRS4 it   5 1.00000000   0.686E-01       0.001       32.256   0.100E-07
     TRS4 it   6 1.00000000   0.831E-02       0.001       32.256   0.100E-07
     TRS4 it   7 1.00000000   0.147E-03       0.001       32.256   0.100E-07
     TRS4 it   8 1.00000000   0.625E-07       0.001       32.256   0.100E-07
     Final TRS4 iteration    8 1.00000000   0.625E-07
     Chemical potential (mu):       0.00716
 
 PAO| energy:  -7.7306655443813703      penalty:   1.3372227494705482E-005
 PAO|CG| trace_G_new    9.5275883230397048E-005
 PAO|CG| trace_G_prev    2.3331850060158497E-004
 PAO|CG| trace_G_mix    3.6666042937550765E-007
 PAO|CG| trace_D    3.2593519512642594E-004
 PAO|CG| trace_D_Gnew  -3.2538757902212221E-007
 PAO|CG| beta:   0.40677967052037878     
 PAO| norm of gradient:   9.7609365959623485E-003
 PAO| energy improvement:  -4.0113164980759564E-005
 PAO| step     25                   -7.730665544  0.610E-03  0.342E+00     0.056
 PAO|LS| adapt:  T F F
 PAO|LS| adapt: scan_steps:    0.0000000000000000        0.0000000000000000        0.0000000000000000     
 PAO|LS| adapt: energies:   -7.7306655443813703        0.0000000000000000        0.0000000000000000     
 PAO| ======================= Iteration:        26 =============================

     Lanczos converged:  T threshold:   0.100E-02
     Est. extremal eigenvalues:    0.270E+01   0.185E+00
     Est. condition number :    0.146E+02

 Order=           3
     NS sqrt iter    1 1.00000000   0.685E+00       0.001       58.407
     NS sqrt iter    2 1.00000000   0.312E+00       0.001       98.131
     NS sqrt iter    3 1.00000000   0.674E-01       0.001       97.068
     NS sqrt iter    4 1.00000000   0.143E-02       0.001       98.460
     NS sqrt iter    5 1.00000000   0.296E-07       0.001       51.618
     Symmetrizing Results
     Final NS sqrt iter    5 1.00000000   0.402E-08

     Est. extremal eigenvalues     -0.92540     1.66321  converged:  T
     TRS4 it   1 1.00000000   0.885E+00       0.000       16.128   0.100E-07
     TRS4 it   2 1.00000000   0.616E+00       0.001       32.256   0.100E-07
     TRS4 it   3 1.00000000   0.418E+00       0.001       32.256   0.100E-07
     TRS4 it   4 1.00000000   0.214E+00       0.001       32.256   0.100E-07
     TRS4 it   5 1.00000000   0.687E-01       0.001       32.256   0.100E-07
     TRS4 it   6 1.00000000   0.831E-02       0.001       32.256   0.100E-07
     TRS4 it   7 1.00000000   0.147E-03       0.001       32.256   0.100E-07
     TRS4 it   8 1.00000000   0.623E-07       0.001       32.256   0.100E-07
     Final TRS4 iteration    8 1.00000000   0.623E-07
     Chemical potential (mu):       0.00720
 
 PAO| energy:  -7.7306753143334346      penalty:   1.2808185177531324E-005
 PAO|LS| adapt:  T T F
 PAO|LS| adapt: scan_steps:    0.0000000000000000       0.34211419036108665        0.0000000000000000     
 PAO|LS| adapt: energies:   -7.7306655443813703       -7.7306753143334346        0.0000000000000000     
 PAO| ======================= Iteration:        27 =============================

     Lanczos converged:  T threshold:   0.100E-02
     Est. extremal eigenvalues:    0.270E+01   0.185E+00
     Est. condition number :    0.146E+02

 Order=           3
     NS sqrt iter    1 1.00000000   0.685E+00       0.001       58.864
     NS sqrt iter    2 1.00000000   0.312E+00       0.001       98.977
     NS sqrt iter    3 1.00000000   0.674E-01       0.001       99.742
     NS sqrt iter    4 1.00000000   0.142E-02       0.001       98.882
     NS sqrt iter    5 1.00000000   0.294E-07       0.001       51.314
     Symmetrizing Results
     Final NS sqrt iter    5 1.00000000   0.395E-08

     Est. extremal eigenvalues     -0.92540     1.66334  converged:  T
     TRS4 it   1 1.00000000   0.885E+00       0.000       16.128   0.100E-07
     TRS4 it   2 1.00000000   0.616E+00       0.001       32.256   0.100E-07
     TRS4 it   3 1.00000000   0.418E+00       0.001       32.256   0.100E-07
     TRS4 it   4 1.00000000   0.214E+00       0.001       32.256   0.100E-07
     TRS4 it   5 1.00000000   0.687E-01       0.001       32.256   0.100E-07
     TRS4 it   6 1.00000000   0.831E-02       0.001       32.256   0.100E-07
     TRS4 it   7 1.00000000   0.147E-03       0.001       32.256   0.100E-07
     TRS4 it   8 1.00000000   0.621E-07       0.001       32.256   0.100E-07
     Final TRS4 iteration    8 1.00000000   0.621E-07
     Chemical potential (mu):       0.00724
 
 PAO| energy:  -7.7306392492698404      penalty:   1.2259458264143926E-005
 PAO|LS| adapt:  T T T
 PAO|LS| adapt: scan_steps:    0.0000000000000000       0.34211419036108665       0.68422838072217329     
 PAO|LS| adapt: energies:   -7.7306655443813703       -7.7306753143334346       -7.7306392492698404     
 PAO|LS| adapt: suggested step_size:   0.24398036557351807     
 PAO|LS| adapt: predicted energy  -7.7306771999902857     
 PAO| ======================= Iteration:        28 =============================

     Lanczos converged:  T threshold:   0.100E-02
     Est. extremal eigenvalues:    0.270E+01   0.185E+00
     Est. condition number :    0.146E+02

 Order=           3
     NS sqrt iter    1 1.00000000   0.685E+00       0.001       57.483
     NS sqrt iter    2 1.00000000   0.312E+00       0.001       97.987
     NS sqrt iter    3 1.00000000   0.675E-01       0.001       99.340
     NS sqrt iter    4 1.00000000   0.143E-02       0.017        6.436
     NS sqrt iter    5 1.00000000   0.296E-07       0.001       51.256
     Symmetrizing Results
     Final NS sqrt iter    5 1.00000000   0.404E-08

     Est. extremal eigenvalues     -0.92540     1.66317  converged:  T
     TRS4 it   1 1.00000000   0.885E+00       0.000       16.128   0.100E-07
     TRS4 it   2 1.00000000   0.616E+00       0.001       32.256   0.100E-07
     TRS4 it   3 1.00000000   0.418E+00       0.001       32.256   0.100E-07
     TRS4 it   4 1.00000000   0.214E+00       0.001       32.256   0.100E-07
     TRS4 it   5 1.00000000   0.687E-01       0.001       32.256   0.100E-07
     TRS4 it   6 1.00000000   0.831E-02       0.001       32.256   0.100E-07
     TRS4 it   7 1.00000000   0.147E-03       0.001       32.256   0.100E-07
     TRS4 it   8 1.00000000   0.623E-07       0.001       32.256   0.100E-07
     Final TRS4 iteration    8 1.00000000   0.623E-07
     Chemical potential (mu):       0.00719
 
 PAO| energy:  -7.7306771938626069      penalty:   1.2968403437416699E-005
 PAO|CG| trace_G_new    1.9538651717236050E-005
 PAO|CG| trace_G_prev    9.5275883230397048E-005
 PAO|CG| trace_G_mix    1.2483236794553298E-007
 PAO|CG| trace_D    1.4947300440542341E-004
 PAO|CG| trace_D_Gnew  -5.0580343050324286E-008
 PAO|CG| beta:   0.20376425482557675     
 PAO| norm of gradient:   4.4202547118051974E-003
 PAO| energy improvement:  -1.1649481236553072E-005
 PAO| step     28                   -7.730677194  0.276E-03  0.244E+00     0.089
 PAO|LS| adapt:  T F F
 PAO|LS| adapt: scan_steps:    0.0000000000000000        0.0000000000000000        0.0000000000000000     
 PAO|LS| adapt: energies:   -7.7306771938626069        0.0000000000000000        0.0000000000000000     
 PAO| ======================= Iteration:        29 =============================

     Lanczos converged:  T threshold:   0.100E-02
     Est. extremal eigenvalues:    0.270E+01   0.185E+00
     Est. condition number :    0.146E+02

 Order=           3
     NS sqrt iter    1 1.00000000   0.685E+00       0.001       58.368
     NS sqrt iter    2 1.00000000   0.312E+00       0.001       97.027
     NS sqrt iter    3 1.00000000   0.674E-01       0.001       98.458
     NS sqrt iter    4 1.00000000   0.143E-02       0.001       98.798
     NS sqrt iter    5 1.00000000   0.296E-07       0.001       51.727
     Symmetrizing Results
     Final NS sqrt iter    5 1.00000000   0.400E-08

     Est. extremal eigenvalues     -0.92540     1.66320  converged:  T
     TRS4 it   1 1.00000000   0.885E+00       0.000       16.128   0.100E-07
     TRS4 it   2 1.00000000   0.616E+00       0.001       32.256   0.100E-07
     TRS4 it   3 1.00000000   0.418E+00       0.001       32.256   0.100E-07
     TRS4 it   4 1.00000000   0.214E+00       0.001       32.256   0.100E-07
     TRS4 it   5 1.00000000   0.686E-01       0.001       32.256   0.100E-07
     TRS4 it   6 1.00000000   0.829E-02       0.001       32.256   0.100E-07
     TRS4 it   7 1.00000000   0.147E-03       0.001       32.256   0.100E-07
     TRS4 it   8 1.00000000   0.616E-07       0.017        1.926   0.100E-07
     Final TRS4 iteration    8 1.00000000   0.616E-07
     Chemical potential (mu):       0.00730
 
 PAO| energy:  -7.7306813794717613      penalty:   1.2631488683087791E-005
 PAO|LS| adapt:  T T F
 PAO|LS| adapt: scan_steps:    0.0000000000000000       0.24398036557351807        0.0000000000000000     
 PAO|LS| adapt: energies:   -7.7306771938626069       -7.7306813794717613        0.0000000000000000     
 PAO| ======================= Iteration:        30 =============================

     Lanczos converged:  T threshold:   0.100E-02
     Est. extremal eigenvalues:    0.270E+01   0.185E+00
     Est. condition number :    0.146E+02

 Order=           3
     NS sqrt iter    1 1.00000000   0.685E+00       0.001       58.739
     NS sqrt iter    2 1.00000000   0.312E+00       0.001       97.754
     NS sqrt iter    3 1.00000000   0.674E-01       0.001       97.915
     NS sqrt iter    4 1.00000000   0.142E-02       0.001       94.718
     NS sqrt iter    5 1.00000000   0.295E-07       0.001       51.388
     Symmetrizing Results
     Final NS sqrt iter    5 1.00000000   0.396E-08

     Est. extremal eigenvalues     -0.92540     1.66324  converged:  T
     TRS4 it   1 1.00000000   0.885E+00       0.000       16.128   0.100E-07
     TRS4 it   2 1.00000000   0.616E+00       0.001       32.256   0.100E-07
     TRS4 it   3 1.00000000   0.418E+00       0.001       32.256   0.100E-07
     TRS4 it   4 1.00000000   0.214E+00       0.001       32.256   0.100E-07
     TRS4 it   5 1.00000000   0.685E-01       0.001       32.256   0.100E-07
     TRS4 it   6 1.00000000   0.827E-02       0.017        1.925   0.100E-07
     TRS4 it   7 1.00000000   0.146E-03       0.001       32.256   0.100E-07
     TRS4 it   8 1.00000000   0.609E-07       0.001       32.256   0.100E-07
     Final TRS4 iteration    8 1.00000000   0.609E-07
     Chemical potential (mu):       0.00741
 
 PAO| energy:  -7.7306843951288347      penalty:   1.2299355134389625E-005
 PAO|LS| adapt:  T T F
 PAO|LS| adapt: scan_steps:    0.0000000000000000       0.48796073114703614        0.0000000000000000     
 PAO|LS| adapt: energies:   -7.7306771938626069       -7.7306843951288347        0.0000000000000000     
 PAO| ======================= Iteration:        31 =============================

     Lanczos converged:  T threshold:   0.100E-02
     Est. extremal eigenvalues:    0.270E+01   0.185E+00
     Est. condition number :    0.146E+02

 Order=           3
     NS sqrt iter    1 1.00000000   0.685E+00       0.001       58.537
     NS sqrt iter    2 1.00000000   0.311E+00       0.001       98.330
     NS sqrt iter    3 1.00000000   0.673E-01       0.001       98.647
     NS sqrt iter    4 1.00000000   0.142E-02       0.001       96.903
     NS sqrt iter    5 1.00000000   0.294E-07       0.001       51.317
     Symmetrizing Results
     Final NS sqrt iter    5 1.00000000   0.388E-08

     Est. extremal eigenvalues     -0.92540     1.66330  converged:  T
     TRS4 it   1 1.00000000   0.885E+00       0.000       16.128   0.100E-07
     TRS4 it   2 1.00000000   0.616E+00       0.001       32.256   0.100E-07
     TRS4 it   3 1.00000000   0.418E+00       0.001       32.256   0.100E-07
     TRS4 it   4 1.00000000   0.213E+00       0.005        6.803   0.100E-07
     TRS4 it   5 1.00000000   0.684E-01       0.001       32.256   0.100E-07
     TRS4 it   6 1.00000000   0.824E-02       0.001       32.256   0.100E-07
     TRS4 it   7 1.00000000   0.144E-03       0.001       32.256   0.100E-07
     TRS4 it   8 1.00000000   0.596E-07       0.001       32.256   0.100E-07
     Final TRS4 iteration    8 1.00000000   0.596E-07
     Chemical potential (mu):       0.00762
 
 PAO| energy:  -7.7306869158198452      penalty:   1.1649376314450533E-005
 PAO|LS| Need extra step
 PAO|LS| adapt:  T T F
 PAO|LS| adapt: scan_steps:    0.0000000000000000       0.97592146229407228        0.0000000000000000     
 PAO|LS| adapt: energies:   -7.7306771938626069       -7.7306869158198452        0.0000000000000000     
 PAO| ======================= Iteration:        32 =============================

     Lanczos converged:  T threshold:   0.100E-02
     Est. extremal eigenvalues:    0.270E+01   0.185E+00
     Est. condition number :    0.146E+02

 Order=           3
     NS sqrt iter    1 1.00000000   0.684E+00       0.001       58.608
     NS sqrt iter    2 1.00000000   0.311E+00       0.001      100.246
     NS sqrt iter    3 1.00000000   0.671E-01       0.001       98.715
     NS sqrt iter    4 1.00000000   0.141E-02       0.001       98.178
     NS sqrt iter    5 1.00000000   0.292E-07       0.001       51.149
     Symmetrizing Results
     Final NS sqrt iter    5 1.00000000   0.373E-08

     Est. extremal eigenvalues     -0.92540     1.66344  converged:  T
     TRS4 it   1 1.00000000   0.885E+00       0.000       16.128   0.100E-07
     TRS4 it   2 1.00000000   0.616E+00       0.001       32.256   0.100E-07
     TRS4 it   3 1.00000000   0.418E+00       0.017        1.926   0.100E-07
     TRS4 it   4 1.00000000   0.213E+00       0.001       32.256   0.100E-07
     TRS4 it   5 1.00000000   0.681E-01       0.001       32.256   0.100E-07
     TRS4 it   6 1.00000000   0.816E-02       0.001       32.256   0.100E-07
     TRS4 it   7 1.00000000   0.141E-03       0.001       32.256   0.100E-07
     TRS4 it   8 1.00000000   0.569E-07       0.001       32.256   0.100E-07
     Final TRS4 iteration    8 1.00000000   0.569E-07
     Chemical potential (mu):       0.00806
 
 PAO| energy:  -7.7306779087143331      penalty:   1.0406185786045280E-005
 PAO|LS| Need extra step
 PAO|LS| adapt:  T T T
 PAO|LS| adapt: scan_steps:    0.0000000000000000       0.97592146229407228        1.9518429245881446     
 PAO|LS| adapt: energies:   -7.7306771938626069       -7.7306869158198452       -7.7306779087143331     
[...]
     Symmetrizing Results
     Final NS sqrt iter    5 1.00000000   0.196E-10

     Est. extremal eigenvalues     -0.92518     1.39931  converged:  T
     TRS4 it   1 1.00000000   0.816E+00       0.001       13.764   0.100E-07
     TRS4 it   2 1.00000000   0.578E+00       0.001       22.415   0.100E-07
     TRS4 it   3 1.00000000   0.409E+00       0.001       25.175   0.100E-07
     TRS4 it   4 1.00000000   0.244E+00       0.001       27.116   0.100E-07
     TRS4 it   5 1.00000000   0.106E+00       0.001       26.134   0.100E-07
     TRS4 it   6 1.00000000   0.244E-01       0.001       24.558   0.100E-07
     TRS4 it   7 1.00000000   0.177E-02       0.001       23.741   0.100E-07
     TRS4 it   8 1.00000000   0.117E-04       0.001       25.553   0.100E-07
     TRS4 it   9 1.00000000   0.594E-09       0.001       29.392   0.100E-07
     Final TRS4 iteration    9 1.00000000   0.594E-09
     Chemical potential (mu):      -0.07168
 
 PAO| energy:  -7.7298594832214809      penalty:   3.1904143367565410E-011
 PAO|CG| warming up with steepest descent
 PAO|CG| beta:    0.0000000000000000     
 PAO| norm of gradient:   7.6206523962381241E-006
 PAO| energy improvement:  -2.8793856188258360E-011
 PAO| step    874                   -7.729859483  0.476E-06  0.252E+00     0.175
 PAO| converged after          874  steps :-)
 PAO| Recalculating energy after mixing.

     Lanczos converged:  T threshold:   0.100E-02
     Est. extremal eigenvalues:    0.254E+01   0.226E+00
     Est. condition number :    0.112E+02

 Order=           3
     NS sqrt iter    1 1.00000000   0.637E+00       0.003       23.364
     NS sqrt iter    2 1.00000000   0.268E+00       0.002       50.826
     NS sqrt iter    3 1.00000000   0.434E-01       0.002       53.739
     NS sqrt iter    4 1.00000000   0.367E-03       0.002       50.499
     NS sqrt iter    5 1.00000000   0.289E-09       0.001       27.587
     Symmetrizing Results
     Final NS sqrt iter    5 1.00000000   0.196E-10

     Est. extremal eigenvalues     -0.92518     1.39931  converged:  T
     TRS4 it   1 1.00000000   0.816E+00       0.001       16.128   0.100E-07
     TRS4 it   2 1.00000000   0.578E+00       0.001       32.256   0.100E-07
     TRS4 it   3 1.00000000   0.409E+00       0.001       32.256   0.100E-07
     TRS4 it   4 1.00000000   0.244E+00       0.001       32.256   0.100E-07
     TRS4 it   5 1.00000000   0.106E+00       0.001       32.256   0.100E-07
     TRS4 it   6 1.00000000   0.244E-01       0.001       32.256   0.100E-07
     TRS4 it   7 1.00000000   0.177E-02       0.001       32.256   0.100E-07
     TRS4 it   8 1.00000000   0.117E-04       0.001       32.256   0.100E-07
     TRS4 it   9 1.00000000   0.594E-09       0.001       32.256   0.100E-07
     Final TRS4 iteration    9 1.00000000   0.594E-09
     Chemical potential (mu):      -0.07168
 
 PAO| energy:  -7.7298594832142813      penalty:   3.2229571282157019E-011
 PAO| Writing restart file.
     Est. extremal eigenvalues     -0.92518     1.39931  converged:  T
     TRS4 it   1 1.00000000   0.816E+00       0.001       16.128   0.100E-07
     TRS4 it   2 1.00000000   0.578E+00       0.001       32.256   0.100E-07
     TRS4 it   3 1.00000000   0.409E+00       0.001       32.256   0.100E-07
     TRS4 it   4 1.00000000   0.244E+00       0.001       32.256   0.100E-07
     TRS4 it   5 1.00000000   0.106E+00       0.001       32.256   0.100E-07
     TRS4 it   6 1.00000000   0.244E-01       0.001       32.256   0.100E-07
     TRS4 it   7 1.00000000   0.177E-02       0.001       32.256   0.100E-07
     TRS4 it   8 1.00000000   0.117E-04       0.001       32.256   0.100E-07
     TRS4 it   9 1.00000000   0.594E-09       0.001       32.256   0.100E-07
     Final TRS4 iteration    9 1.00000000   0.594E-09
     Chemical potential (mu):      -0.07168

 SCF     1       -34.447233918       -34.447233918    3.806589

*********************************************************
 Using MIXING_FRACTION=0.450 to mix KS matrix:  iscf=  2
 KS_nw=0.450*KS + 0.550*KS_old
*********************************************************
     Est. extremal eigenvalues     -0.92518     1.39931  converged:  T
     TRS4 it   1 1.00000000   0.816E+00       0.002        7.373   0.100E-07
     TRS4 it   2 1.00000000   0.578E+00       0.002       20.557   0.100E-07
     TRS4 it   3 1.00000000   0.409E+00       0.001       32.256   0.100E-07
     TRS4 it   4 1.00000000   0.244E+00       0.001       32.256   0.100E-07
     TRS4 it   5 1.00000000   0.106E+00       0.001       32.256   0.100E-07
     TRS4 it   6 1.00000000   0.244E-01       0.001       32.256   0.100E-07
     TRS4 it   7 1.00000000   0.177E-02       0.001       32.256   0.100E-07
     TRS4 it   8 1.00000000   0.117E-04       0.001       32.256   0.100E-07
     TRS4 it   9 1.00000000   0.594E-09       0.001       32.256   0.100E-07
     Final TRS4 iteration    9 1.00000000   0.594E-09
     Chemical potential (mu):      -0.07168

 SCF     2       -34.447233918        -0.000000000    3.952074


 SCF run converged in     2 steps.

 PAO| Storing density matrix for ASPC guess in slot:           1

 ENERGY| Total FORCE_EVAL ( QS ) energy [a.u.]:              -34.447233917554513

 -------------------------------------------------------------------------------
 -                                                                             -
 -                                DBCSR STATISTICS                             -
 -                                                                             -
 -------------------------------------------------------------------------------
 COUNTER                                    TOTAL       BLAS       SMM       ACC
 flops     5 x     5 x     4                26000       0.0%    100.0%      0.0%
 flops    13 x     5 x     4                27040       0.0%    100.0%      0.0%
 flops     5 x    13 x     4                27040       0.0%    100.0%      0.0%
 flops    13 x    13 x     4                52728       0.0%    100.0%      0.0%
 flops     4 x     4 x     5              6819840       0.0%    100.0%      0.0%
 flops     5 x     4 x     5              8371200       0.0%    100.0%      0.0%
 flops     4 x     4 x    13              8865792       0.0%    100.0%      0.0%
 flops    13 x     4 x     5             10882560       0.0%    100.0%      0.0%
 flops     5 x     4 x    13             10882560       0.0%    100.0%      0.0%
 flops     5 x     4 x     4             13109920       0.0%    100.0%      0.0%
 flops    13 x     4 x    13             14147328       0.0%    100.0%      0.0%
 flops    13 x     4 x     4             17129216       0.0%    100.0%      0.0%
 flops     4 x     4 x     4            865806592       0.0%    100.0%      0.0%
 flops inhomo. stacks                           0       0.0%      0.0%      0.0%
 flops total                       956.147816E+06       0.0%    100.0%      0.0%
 flops max/rank                    956.147816E+06       0.0%    100.0%      0.0%
 matmuls inhomo. stacks                         0       0.0%      0.0%      0.0%
 matmuls total                            7045612       0.0%    100.0%      0.0%
 number of processed stacks                 56138       0.0%    100.0%      0.0%
 average stack size                                     0.0     125.5       0.0
 marketing flops                     1.560501E+09
 -------------------------------------------------------------------------------
 # multiplications                          47001
 max memory usage/rank             507.375616E+06
 # max total images/rank                        1
 # max 3D layers                                1
 # MPI messages exchanged                       0
 -------------------------------------------------------------------------------

 -------------------------------------------------------------------------------
 -                                                                             -
 -                                DBM STATISTICS                               -
 -                                                                             -
 -------------------------------------------------------------------------------
    M  x    N  x    K                                          COUNT     PERCENT
 -------------------------------------------------------------------------------

 -------------------------------------------------------------------------------
 -                                                                             -
 -                                GRID STATISTICS                              -
 -                                                                             -
 -------------------------------------------------------------------------------
 LP    KERNEL             BACKEND                              COUNT     PERCENT
 2     collocate ortho    REF                                  49361      30.69%
 2     integrate ortho    REF                                  49361      30.69%
 3     collocate ortho    REF                                  25415      15.80%
 3     integrate ortho    REF                                  25415      15.80%
 4     collocate ortho    REF                                   5629       3.50%
 4     integrate ortho    REF                                   5629       3.50%
 0     collocate general  REF                                      6       0.00%
 -------------------------------------------------------------------------------

 MEMORY| Estimated peak process memory [MiB]                                 484

 -------------------------------------------------------------------------------
 -                                                                             -
 -                           R E F E R E N C E S                               -
 -                                                                             -
 -------------------------------------------------------------------------------
 
 CP2K version 2023.1 (Development Version), the CP2K developers group (2023).
 CP2K is freely available from https://www.cp2k.org/ .

 Kuehne,Thomas D.; Iannuzzi,Marcella; Del Ben,Mauro;
 Rybkin,Vladimir V.; Seewald,Patrick; Stein,Frederick; Laino,Teodoro;
 Khaliullin,Rustam Z.; Schuett,Ole; Schiffmann,Florian; Golze,Dorothea;
 Wilhelm,Jan; Chulkov,Sergey; Bani-Hashemian,Mohammad Hossein;
 Weber,Valery; Borstnik,Urban; Taillefumier,Mathieu;
 Jakobovits,Alice Shoshana; Lazzaro,Alfio; Pabst,Hans; Mueller,Tiziano;
 Schade,Robert; Guidon,Manuel; Andermatt,Samuel; Holmberg,Nico;
 Schenter,Gregory K.; Hehn,Anna; Bussy,Augustin; Belleflamme,Fabian;
 Tabacchi,Gloria; Gloess,Andreas; Lass,Michael; Bethune,Iain;
 Mundy,Christopher J.; Plessl,Christian; Watkins,Matt;
 VandeVondele,Joost; Krack,Matthias; Hutter,Juerg. 
 The Journal of Chemical Physics, 152 (19), (2020). 
 CP2K: An electronic structure and molecular dynamics software package -
 Quickstep: Efficient and accurate electronic structure calculations.
 https://doi.org/10.1063/5.0007045

 Schuett, O; VandeVondele, J. 
 Journal of Chemical Theory and Computation, 14, (2018). 
 Machine Learning Adaptive Basis Sets for Efficient Large Scale
 Density Functional Theory Simulation.
 https://doi.org/10.1021/acs.jctc.8b00378

 Schuett, Ole; Messmer, Peter; Hutter, Juerg; VandeVondele, Joost. 
 Electronic Structure Calculations on Graphics Processing Units, John
 Wiley & Sons, Ltd, 173-190 (2016). 
 GPU-Accelerated Sparse Matrix-Matrix Multiplication for
 Linear Scaling Density Functional Theory.
 https://doi.org/10.1002/9781118670712.ch8

 Heinecke, A; Henry, G; Hutchinson, M; Pabst, H. 
 Proceedings of Intl. Supercomputing Conference, 981-991 (2016). 
 LIBXSMM: Accelerating Small Matrix Multiplications
 by Runtime Code Generation.
 https://doi.org/10.1109/SC.2016.83

 Borstnik, U; VandeVondele, J; Weber, V; Hutter, J. 
 PARALLEL COMPUTING, 40 (5-6), 47-58 (2014). 
 Sparse matrix multiplication: The distributed block-compressed sparse
 row library.
 https://doi.org/10.1016/j.parco.2014.03.012

 Hutter, J; Iannuzzi, M; Schiffmann, F; VandeVondele, J. 
 WIREs Comput Mol Sci., 4 (1), 15-25 (2014). 
 CP2K: atomistic simulations of condensed matter systems.
 https://doi.org/10.1002/wcms.1159

 VandeVondele, J; Borstnik, U; Hutter, J. 
 JOURNAL OF CHEMICAL THEORY AND COMPUTATION, 8 (10), 3565-3573 (2012). 
 Linear Scaling Self-Consistent Field Calculations with Millions of Atoms
 in the Condensed Phase.
 https://doi.org/10.1021/ct200897x

 VandeVondele, J; Hutter, J. 
 JOURNAL OF CHEMICAL PHYSICS, 127 (11), 114105 (2007). 
 Gaussian basis sets for accurate calculations on molecular systems in
 gas and condensed phases.
 https://doi.org/10.1063/1.2770708

 Krack, M. 
 THEORETICAL CHEMISTRY ACCOUNTS, 114 (1-3), 145-152 (2005). 
 Pseudopotentials for H to Kr optimized for gradient-corrected
 exchange-correlation functionals.
 https://doi.org/10.1007/s00214-005-0655-y

 VandeVondele, J; Krack, M; Mohamed, F; Parrinello, M; Chassaing, T;
 Hutter, J. COMPUTER PHYSICS COMMUNICATIONS, 167 (2), 103-128 (2005). 
 QUICKSTEP: Fast and accurate density functional calculations using a
 mixed Gaussian and plane waves approach.
 https://doi.org/10.1016/j.cpc.2004.12.014

 Frigo, M; Johnson, SG. 
 PROCEEDINGS OF THE IEEE, 93 (2), 216-231 (2005). 
 The design and implementation of FFTW3.
 https://doi.org/10.1109/JPROC.2004.840301

 Niklasson, AMN; Tymczak, CJ; Challacombe, M. 
 JOURNAL OF CHEMICAL PHYSICS, 118 (19), 8611-8620 (2003). 
 Trace resetting density matrix purification in O(N)
 self-consistent-field theory.
 https://doi.org/10.1063/1.1559913

 Hartwigsen, C; Goedecker, S; Hutter, J. 
 PHYSICAL REVIEW B, 58 (7), 3641-3662 (1998). 
 Relativistic separable dual-space Gaussian pseudopotentials from H to Rn.
 https://doi.org/10.1103/PhysRevB.58.3641

 Lippert, G; Hutter, J; Parrinello, M. 
 MOLECULAR PHYSICS, 92 (3), 477-487 (1997). 
 A hybrid Gaussian and plane wave density functional scheme.
 https://doi.org/10.1080/002689797170220

 Perdew, JP; Burke, K; Ernzerhof, M. 
 PHYSICAL REVIEW LETTERS, 77 (18), 3865-3868 (1996). 
 Generalized gradient approximation made simple.
 https://doi.org/10.1103/PhysRevLett.77.3865

 Goedecker, S; Teter, M; Hutter, J. 
 PHYSICAL REVIEW B, 54 (3), 1703-1710 (1996). 
 Separable dual-space Gaussian pseudopotentials.
 https://doi.org/10.1103/PhysRevB.54.1703


 -------------------------------------------------------------------------------
 -                                                                             -
 -                                T I M I N G                                  -
 -                                                                             -
 -------------------------------------------------------------------------------
 SUBROUTINE                       CALLS  ASD         SELF TIME        TOTAL TIME
                                MAXIMUM       AVERAGE  MAXIMUM  AVERAGE  MAXIMUM
 CP2K                                 1  1.0    0.071    0.071   74.719   74.719
 qs_energies                          1  2.0    0.000    0.000   73.630   73.630
 ls_scf                               1  3.0    0.000    0.000   73.502   73.502
 ls_scf_main                          6  4.0    0.002    0.002   44.905   44.905
 ls_scf_dm_to_ks                     12  5.0    0.000    0.000   44.694   44.694
 qs_ks_update_qs_env                 13  6.0    0.000    0.000   36.698   36.698
 rebuild_ks_matrix                   13  7.0    0.000    0.000   36.696   36.696
 qs_ks_build_kohn_sham_matrix        13  8.0    0.005    0.005   36.696   36.696
 pao_update                           6  4.0    0.019    0.019   23.138   23.138
 qs_vxc_create                       13  9.0    0.001    0.001   21.383   21.383
 xc_vxc_pw_create                    13 10.0    0.403    0.403   21.382   21.382
 pao_calc_energy                    879  5.0    0.007    0.007   20.909   20.909
 pw_transfer                        248 11.1    0.055    0.055   19.320   19.320
 fft_wrap_pw1pw2                    222 12.3    0.006    0.006   18.718   18.718
 fft_wrap_pw1pw2_200                144 13.7    1.909    1.909   18.109   18.109
 dbcsr_multiply_generic           47001  8.4    1.051    1.051   16.624   16.624
 qs_rho_update_rho_low               13  6.0    0.000    0.000   13.325   13.325
 calculate_rho_elec                  13  7.0    0.089    0.089   13.325   13.325
 xc_rho_set_and_dset_create          13 11.0    0.582    0.582   13.083   13.083
 xc_pw_derive                        78 12.0    0.002    0.002   12.712   12.712
 sum_up_and_integrate                13  9.0    0.290    0.290   11.372   11.372
 integrate_v_rspace                  13 10.0    0.002    0.002   11.081   11.081
 pao_dm_trs4                        879  6.0    0.007    0.007   10.731   10.731
 density_matrix_trs4                891  7.0    0.308    0.308   10.256   10.256
 ls_scf_init_matrix_S               885  7.0    0.007    0.007   10.108   10.108
 pao_rebuild_S                      879  6.0    0.003    0.003   10.027   10.027
 matrix_sqrt_Newton_Schulz          885  8.0    0.258    0.258    9.111    9.111
 grid_integrate_task_list            13 11.0    8.959    8.959    8.959    8.959
 grid_collocate_task_list            13  8.0    8.512    8.512    8.512    8.512
 fft3d_s                            223 14.2    8.074    8.074    8.112    8.112
 xc_pw_divergence                    13 11.0    0.001    0.001    7.635    7.635
 make_m2s                         94002  9.4    0.384    0.384    6.294    6.294
 multiply_cannon                  47001  9.4    2.663    2.663    6.155    6.155
 make_images                      94002 10.4    1.614    1.614    5.544    5.544
 pao_guess_initial_P                  1  4.0    0.000    0.000    5.339    5.339
 pao_read_preopt_dm                   1  5.0    0.000    0.000    5.339    5.339
 xc_functional_eval                  13 12.0    0.000    0.000    4.874    4.874
 pbe_lda_eval                        13 13.0    4.873    4.873    4.873    4.873
 density_rs2pw                       13  8.0    0.002    0.002    4.723    4.723
 pw_scatter_s                       117 14.7    4.613    4.613    4.613    4.613
 pw_gather_s                        105 13.8    4.011    4.011    4.011    4.011
 arnoldi_extremal                  1776  8.5    0.008    0.008    3.266    3.266
 arnoldi_normal_ev                 1776  9.5    0.039    0.039    3.258    3.258
 build_subspace                    1776 10.5    0.123    0.123    2.530    2.530
 pw_derive                           78 13.0    2.495    2.495    2.495    2.495
 dbcsr_matrix_vector_mult         42602 11.5    0.278    0.278    2.368    2.368
 pao_calc_AB                       1160  5.8    0.002    0.002    2.200    2.200
 pao_calc_AB_equi                  1160  6.8    0.087    0.087    2.198    2.198
 potential_pw2rs                     13 11.0    0.005    0.005    2.121    2.121
 pao_calc_grad_lnv_wrt_AB           280  7.0    0.013    0.013    1.962    1.962
 pw_copy                            156 11.8    1.933    1.933    1.933    1.933
 dbcsr_finalize                  112225  9.6    0.361    0.361    1.858    1.858
 dbcsr_create_new                360910 10.7    0.984    0.984    1.625    1.625
 multiply_cannon_loop             47001 10.4    0.242    0.242    1.547    1.547
 -------------------------------------------------------------------------------

 The number of warnings for this run is : 0
 
 -------------------------------------------------------------------------------
  **** **** ******  **  PROGRAM ENDED AT                 2023-02-01 10:49:10.705
 ***** ** ***  *** **   PROGRAM RAN ON                                    moritz
 **    ****   ******    PROGRAM RAN BY                                       ole
 ***** **    ** ** **   PROGRAM PROCESS ID                                148805
  **** **  *******  **  PROGRAM STOPPED IN /home/ole/git/pao_ml_equivar/2H2O_MD/
                                           frame_1700
