       6
 i =      375, time =       75.000, E =       -34.4472813699
  O         2.7125836801        4.3128678885        3.2629689509
  H         2.1657718706        5.0973929936        3.5010618151
  H         2.7790317394        4.3758886612        2.2973453067
  O         5.9096392865        4.3062650367        4.9754261716
  H         5.8920745210        3.3408864391        5.1138516331
  H         5.2418037905        4.4214923672        4.2659424437