 DBCSR| CPU Multiplication driver                                           BLAS
 DBCSR| Multrec recursion limit                                              512
 DBCSR| Multiplication stack size                                           1000
 DBCSR| Maximum elements for images                                    UNLIMITED
 DBCSR| Multiplicative factor virtual images                                   1
 DBCSR| Use multiplication densification                                       T
 DBCSR| Multiplication size stacks                                             3


  **** **** ******  **  PROGRAM STARTED AT               2019-03-28 17:32:17.490
 ***** ** ***  *** **   PROGRAM STARTED ON        oleschuett.zrh.corp.google.com
 **    ****   ******    PROGRAM STARTED BY                            oleschuett
 ***** **    ** ** **   PROGRAM PROCESS ID                                 30664
  **** **  *******  **  PROGRAM STARTED IN /usr/local/google/home/oleschuett/git
                                           /pao_ml_equivar/2H2O_rotations/phi_10

 CP2K| version string:                    CP2K version 7.0 (Development Version)
 CP2K| source code revision number:                                git:d9814d431
 CP2K| cp2kflags: libint fftw3 libxc libderiv_max_am1=5 libint_max_am=6         
 CP2K| is freely available from                            https://www.cp2k.org/
 CP2K| Program compiled at                          Mon Mar 25 16:50:07 CET 2019
 CP2K| Program compiled on                        oleschuett.zrh.corp.google.com
 CP2K| Program compiled for                                                local
 CP2K| Data directory path       /usr/local/google/home/oleschuett/git/cp2k/data
 CP2K| Input file name                                            2H2O_pao44.inp

 GLOBAL| Force Environment number                                              1
 GLOBAL| Basis set file name                                        BASIS_MOLOPT
 GLOBAL| Potential file name                                      GTH_POTENTIALS
 GLOBAL| MM Potential file name                                     MM_POTENTIAL
 GLOBAL| Coordinate file name                                         coords.xyz
 GLOBAL| Method name                                                        CP2K
 GLOBAL| Project name                                                 2H2O_pao44
 GLOBAL| Preferred FFT library                                             FFTW3
 GLOBAL| Preferred diagonalization lib.                                       SL
 GLOBAL| Run type                                                         ENERGY
 GLOBAL| All-to-all communication in single precision                          F
 GLOBAL| FFTs using library dependent lengths                                  F
 GLOBAL| Global print level                                                  LOW
 GLOBAL| MPI I/O enabled                                                       T
 GLOBAL| Total number of message passing processes                             1
 GLOBAL| Number of threads for this process                                    1
 GLOBAL| This output is from process                                           0
 GLOBAL| CPU model name :  Intel(R) Xeon(R) CPU E5-1650 v4 @ 3.60GHz

 MEMORY| system memory details [Kb]
 MEMORY|                        rank 0           min           max       average
 MEMORY| MemTotal             65953612      65953612      65953612      65953612
 MEMORY| MemFree               4205760       4205760       4205760       4205760
 MEMORY| Buffers               2548000       2548000       2548000       2548000
 MEMORY| Cached               25395032      25395032      25395032      25395032
 MEMORY| Slab                  3623568       3623568       3623568       3623568
 MEMORY| SReclaimable          2422904       2422904       2422904       2422904
 MEMORY| MemLikelyFree        34571696      34571696      34571696      34571696


 GENERATE|  Preliminary Number of Bonds generated:                             0
 GENERATE|  Achieved consistency in connectivity generation.

 *******************************************************************************
 *******************************************************************************
 **                                                                           **
 **     #####                         ##              ##                      **
 **    ##   ##            ##          ##              ##                      **
 **   ##     ##                       ##            ######                    **
 **   ##     ##  ##   ##  ##   #####  ##  ##   ####   ##    #####    #####    **
 **   ##     ##  ##   ##  ##  ##      ## ##   ##      ##   ##   ##  ##   ##   **
 **   ##  ## ##  ##   ##  ##  ##      ####     ###    ##   ######   ######    **
 **    ##  ###   ##   ##  ##  ##      ## ##      ##   ##   ##       ##        **
 **     #######   #####   ##   #####  ##  ##  ####    ##    #####   ##        **
 **           ##                                                    ##        **
 **                                                                           **
 **                                                ... make the atoms dance   **
 **                                                                           **
 **            Copyright (C) by CP2K developers group (2000 - 2018)           **
 **                                                                           **
 *******************************************************************************


 TOTAL NUMBERS AND MAXIMUM NUMBERS

  Total number of            - Atomic kinds:                                   2
                             - Atoms:                                          6
                             - Shell sets:                                     6
                             - Shells:                                        22
                             - Primitive Cartesian functions:                 42
                             - Cartesian basis functions:                     48
                             - Spherical basis functions:                     46

  Maximum angular momentum of- Orbital basis functions:                        2
                             - Local part of the GTH pseudopotential:          2
                             - Non-local part of the GTH pseudopotential:      0

 ------------------------------ Linear scaling SCF -----------------------------
 eps_scf:                                                              0.100E-07
 eps_filter:                                                           0.100E-07
 mixing_fraction:                                                      0.450E+00
 max_scf:                                                                     25
 fixed chemical potential (mu)                                                 F
 has unit metric:                                                              F
 Computing inv(S):                                                             T
 Computing sqrt(S):                                                            T
 Computing s preconditioner                                                    F
 sign sqrt order:                                                              3
 Extrapolation order:                                                          1
 Use single precision matrices                                                 F
 S preconditioner type                                                      NONE
 Polarized Atomic Orbitals (PAO)                                               T
 Purification method                                   Trace resetting 4th order
 Cluster type                                                             ATOMIC
 Computing Chebyshev                                                       FALSE
 Using PAO                                                                     T
 -------------------------------------------------------------------------------

 
 PAO|                                  EPS_PAO                           0.1E-04
 PAO|                                  MIXING                            0.5E+00
 PAO|                                  MAX_PAO                              1000
 PAO|                                  MAX_CYCLES                           1000
 PAO|                                  PARAMETERIZATION                   DIRECT
 PAO|                                  PRECONDITION                            F
 PAO|                                  REGULARIZATION                    0.0E+00
 PAO|                                  EPS_PGF                           0.1E-09
 PAO|                                  PENALTY_DISTANCE                  0.1E+00
 PAO|                                  PENALTY_STRENGTH                  0.5E-02
 PAO|                                  LINPOT_PRECONDITION_DELTA         0.0E+00
 PAO|                                  LINPOT_INITGUESS_DELT             0.0E+00
 PAO|                                  LINPOT_REGULARIZATION_DELTA       0.0E+00
 PAO|                                  LINPOT_REGULARIZATION_STRENGTH    0.0E+00
 PAO|                                  OPTIMIZER                              CG
 PAO|                                  CG_INIT_STEPS                           2
 PAO|                                  CG_RESET_LIMIT                    0.1E+00
 PAO|                                  CHECK_UNITARY_TOL                -0.1E+01
 PAO|                                  CHECK_GRADIENT_TOL               -0.1E+01
 PAO|                                  NUM_GRADIENT_ORDER                      2
 PAO|                                  NUM_GRADIENT_EPS                  0.1E-07
 PAO|                                  PRINT%RESTART%WRITE_CYCLES            100
 PAO|                                  RESTART_FILE 
 PAO|                                  PREOPT_DM_FILE 2H2O_ref_LS_DM_SPIN_1_RESTART.dm
 PAO|                                  MACHINE_LEARNING%METHOD        GAUSSIAN_P
 PAO|                                  MACHINE_LEARNING%PRIOR               ZERO
 PAO|                                  MACHINE_LEARNING%DESCRIPTOR     POTENTIAL
 PAO|                                  MACHINE_LEARNING%TOLERANCE        0.1E-01
 PAO|                                  MACHINE_LEARNING%GP_NOISE_VAR     0.1E+00
 PAO|                                  MACHINE_LEARNING%GP_SCALE         0.5E-01
 

 Calculating atomic Fock matrix for atomic kind: O

 Electronic structure
    Total number of core electrons                                          2.00
    Total number of valence electrons                                       6.00
    Total number of electrons                                               8.00
    Multiplicity                                                   not specified
    S   [  2.00] 2.00
    P      4.00


 *******************************************************************************
                  Iteration          Convergence                     Energy [au]
 *******************************************************************************
                          1        0.708315                     -15.576645311500
                          2        0.608879                     -15.587933561584
                          3        0.102828E-01                 -15.656849565404
                          4        0.113889E-02                 -15.656866888140
                          5        0.434197E-03                 -15.656867072159
                          6        0.263771E-03                 -15.656867091904
                          7        0.478536E-06                 -15.656867103452

 Energy components [Hartree]           Total Energy ::          -15.656867103452
                                        Band Energy ::           -3.000198112285
                                     Kinetic Energy ::           11.759971203220
                                   Potential Energy ::          -27.416838306672
                                      Virial (-V/T) ::            2.331369510426
                                        Core Energy ::          -26.140716385623
                                          XC Energy ::           -3.154051012914
                                     Coulomb Energy ::           13.637900295084
                       Total Pseudopotential Energy ::          -37.935781716540
                       Local Pseudopotential Energy ::          -39.218907440693
                    Nonlocal Pseudopotential Energy ::            1.283125724153
                                        Confinement ::            0.350941276976

 Orbital energies  State     L     Occupation   Energy[a.u.]          Energy[eV]

                       1     0          2.000      -0.864471          -23.523463

                       1     1          4.000      -0.317814           -8.648154


 Total Electron Density at R=0:                                         0.000068

 Calculating atomic Fock matrix for atomic kind: H

 Electronic structure
    Total number of core electrons                                          0.00
    Total number of valence electrons                                       1.00
    Total number of electrons                                               1.00
    Multiplicity                                                   not specified
    S      1.00


 *******************************************************************************
                  Iteration          Convergence                     Energy [au]
 *******************************************************************************
                          1        0.437545E-02                  -0.424159432110
                          2        0.531356E-03                  -0.424178438213
                          3        0.259176E-06                  -0.424178722480

 Energy components [Hartree]           Total Energy ::           -0.424178722480
                                        Band Energy ::           -0.199015229016
                                     Kinetic Energy ::            0.464007633961
                                   Potential Energy ::           -0.888186356441
                                      Virial (-V/T) ::            1.914163240935
                                        Core Energy ::           -0.479160803564
                                          XC Energy ::           -0.244352904054
                                     Coulomb Energy ::            0.299334985138
                       Total Pseudopotential Energy ::           -0.962295316385
                       Local Pseudopotential Energy ::           -0.962295316385
                    Nonlocal Pseudopotential Energy ::            0.000000000000
                                        Confinement ::            0.191268788606

 Orbital energies  State     L     Occupation   Energy[a.u.]          Energy[eV]

                       1     0          1.000      -0.199015           -5.415480


 Total Electron Density at R=0:                                         0.242907
 PAO| Made initial guess for matrix_X with norm:   4.8989794855663558     

     Lanczos converged:  T threshold:   0.100E-02
     Est. extremal eigenvalues:    0.335E+01   0.114E+00
     Est. condition number :    0.295E+02
     NS sqrt iter    1 1.00000000   0.819E+00       0.002       41.300
     NS sqrt iter    2 1.00000000   0.440E+00       0.002       65.672
     NS sqrt iter    3 1.00000000   0.171E+00       0.002       66.466
     NS sqrt iter    4 1.00000000   0.207E-01       0.002       65.101
     NS sqrt iter    5 1.00000000   0.548E-04       0.002       56.241
     Final NS sqrt iter    5 1.00000000   0.300E-08

 PAO| Read restart DM 2H2O_ref_LS_DM_SPIN_1_RESTART.dm with checksum:    72.109205180180609     
 PAO| Quickstep energy from restart density:  -34.450244720440629     
 PAO| ======================= Iteration:         1 =============================

     Lanczos converged:  T threshold:   0.100E-02
     Est. extremal eigenvalues:    0.335E+01   0.114E+00
     Est. condition number :    0.295E+02
     NS sqrt iter    1 1.00000000   0.819E+00       0.002       32.184
     NS sqrt iter    2 1.00000000   0.440E+00       0.002       55.303
     NS sqrt iter    3 1.00000000   0.171E+00       0.002       62.737
     NS sqrt iter    4 1.00000000   0.207E-01       0.002       57.215
     NS sqrt iter    5 1.00000000   0.548E-04       0.002       55.308
     Final NS sqrt iter    5 1.00000000   0.300E-08

     Est. extremal eigenvalues     -0.92081     1.90386  converged:  T
     TRS4 it   1 1.00000000   0.885E+00       0.001       16.128   0.100E-07
     TRS4 it   2 1.00000000   0.696E+00       0.001       32.256   0.100E-07
     TRS4 it   3 1.00000000   0.501E+00       0.001       32.256   0.100E-07
     TRS4 it   4 1.00000000   0.315E+00       0.001       32.256   0.100E-07
     TRS4 it   5 1.00000000   0.156E+00       0.001       32.256   0.100E-07
     TRS4 it   6 1.00000000   0.496E-01       0.001       32.256   0.100E-07
     TRS4 it   7 1.00000000   0.704E-02       0.001       32.256   0.100E-07
     TRS4 it   8 1.00000000   0.199E-03       0.001       32.256   0.100E-07
     TRS4 it   9 1.00000000   0.176E-06       0.001       32.256   0.100E-07
     TRS4 it  10 1.00000000   0.139E-12       0.001       29.139   0.100E-07
     Final TRS4 iteration   10 1.00000000   0.139E-12
     Chemical potential (mu):      -0.06668
 
 PAO| energy:  -7.6341630710985617      penalty:   2.2186712959340956E-033
 PAO|CG| warming up with steepest descent
 PAO|CG| beta:    0.0000000000000000     
 PAO| norm of gradient:  0.78324079787514700     
 PAO|LS| adapt:  T F F
 PAO|LS| adapt: scan_steps:    0.0000000000000000        0.0000000000000000        0.0000000000000000     
 PAO|LS| adapt: energies:   -7.6341630710985617        0.0000000000000000        0.0000000000000000     
 PAO| ======================= Iteration:         2 =============================

     Lanczos converged:  T threshold:   0.100E-02
     Est. extremal eigenvalues:    0.327E+01   0.126E+00
     Est. condition number :    0.258E+02
     NS sqrt iter    1 1.00000000   0.803E+00       0.002       37.330
     NS sqrt iter    2 1.00000000   0.425E+00       0.002       63.203
     NS sqrt iter    3 1.00000000   0.153E+00       0.002       63.378
     NS sqrt iter    4 1.00000000   0.143E-01       0.002       58.347
     NS sqrt iter    5 1.00000000   0.175E-04       0.002       51.878
     Final NS sqrt iter    5 1.00000000   0.469E-09

     Est. extremal eigenvalues     -0.92448     1.84782  converged:  T
     TRS4 it   1 1.00000000   0.882E+00       0.001       16.128   0.100E-07
     TRS4 it   2 1.00000000   0.677E+00       0.001       30.802   0.100E-07
     TRS4 it   3 1.00000000   0.486E+00       0.001       32.256   0.100E-07
     TRS4 it   4 1.00000000   0.295E+00       0.001       32.096   0.100E-07
     TRS4 it   5 1.00000000   0.137E+00       0.001       32.256   0.100E-07
     TRS4 it   6 1.00000000   0.383E-01       0.001       29.891   0.100E-07
     TRS4 it   7 1.00000000   0.425E-02       0.001       32.256   0.100E-07
     TRS4 it   8 1.00000000   0.731E-04       0.001       32.256   0.100E-07
     TRS4 it   9 1.00000000   0.238E-07       0.001       32.256   0.100E-07
     Final TRS4 iteration    9 1.00000000   0.238E-07
     Chemical potential (mu):      -0.05464
 
 PAO| energy:  -7.6896317669038909      penalty:   2.2465125805550954E-008
 PAO|LS| adapt:  T T F
 PAO|LS| adapt: scan_steps:    0.0000000000000000       0.10000000000000001        0.0000000000000000     
 PAO|LS| adapt: energies:   -7.6341630710985617       -7.6896317669038909        0.0000000000000000     
 PAO| ======================= Iteration:         3 =============================

     Lanczos converged:  T threshold:   0.100E-02
     Est. extremal eigenvalues:    0.317E+01   0.138E+00
     Est. condition number :    0.230E+02
     NS sqrt iter    1 1.00000000   0.786E+00       0.002       37.753
     NS sqrt iter    2 1.00000000   0.408E+00       0.002       63.667
     NS sqrt iter    3 1.00000000   0.136E+00       0.002       65.866
     NS sqrt iter    4 1.00000000   0.989E-02       0.002       58.280
     NS sqrt iter    5 1.00000000   0.585E-05       0.002       51.726
     Final NS sqrt iter    5 1.00000000   0.525E-10

     Est. extremal eigenvalues     -0.92791     1.80186  converged:  T
     TRS4 it   1 1.00000000   0.878E+00       0.001       16.128   0.100E-07
     TRS4 it   2 1.00000000   0.660E+00       0.001       32.256   0.100E-07
     TRS4 it   3 1.00000000   0.470E+00       0.001       32.256   0.100E-07
     TRS4 it   4 1.00000000   0.275E+00       0.001       32.256   0.100E-07
     TRS4 it   5 1.00000000   0.119E+00       0.001       32.256   0.100E-07
     TRS4 it   6 1.00000000   0.287E-01       0.001       32.256   0.100E-07
     TRS4 it   7 1.00000000   0.238E-02       0.001       32.256   0.100E-07
     TRS4 it   8 1.00000000   0.229E-04       0.001       32.256   0.100E-07
     TRS4 it   9 1.00000000   0.233E-08       0.001       32.173   0.100E-07
     Final TRS4 iteration    9 1.00000000   0.233E-08
     Chemical potential (mu):      -0.04163
 
 PAO| energy:  -7.7326868025964011      penalty:   3.5944201458733359E-007
 PAO|LS| adapt:  T T F
 PAO|LS| adapt: scan_steps:    0.0000000000000000       0.20000000000000001        0.0000000000000000     
 PAO|LS| adapt: energies:   -7.6341630710985617       -7.7326868025964011        0.0000000000000000     
 PAO| ======================= Iteration:         4 =============================

     Lanczos converged:  T threshold:   0.100E-02
     Est. extremal eigenvalues:    0.298E+01   0.156E+00
     Est. condition number :    0.191E+02
     NS sqrt iter    1 1.00000000   0.749E+00       0.002       39.014
     NS sqrt iter    2 1.00000000   0.374E+00       0.002       62.651
     NS sqrt iter    3 1.00000000   0.106E+00       0.002       66.673
     NS sqrt iter    4 1.00000000   0.483E-02       0.002       66.411
     NS sqrt iter    5 1.00000000   0.824E-06       0.002       53.508
     Final NS sqrt iter    5 1.00000000   0.112E-11

     Est. extremal eigenvalues     -0.93325     1.73339  converged:  T
     TRS4 it   1 1.00000000   0.873E+00       0.001       16.128   0.100E-07
     TRS4 it   2 1.00000000   0.632E+00       0.001       32.256   0.100E-07
     TRS4 it   3 1.00000000   0.441E+00       0.001       32.256   0.100E-07
     TRS4 it   4 1.00000000   0.238E+00       0.001       29.860   0.100E-07
     TRS4 it   5 1.00000000   0.869E-01       0.001       26.128   0.100E-07
     TRS4 it   6 1.00000000   0.148E-01       0.001       30.185   0.100E-07
     TRS4 it   7 1.00000000   0.602E-03       0.001       32.256   0.100E-07
     TRS4 it   8 1.00000000   0.143E-05       0.001       32.256   0.100E-07
     TRS4 it   9 1.00000000   0.909E-11       0.001       32.256   0.100E-07
     Final TRS4 iteration    9 1.00000000   0.909E-11
     Chemical potential (mu):      -0.01284
 
 PAO| energy:  -7.7799321905751873      penalty:   5.7510722469982412E-006
 PAO|LS| Need extra step
 PAO|LS| adapt:  T T F
 PAO|LS| adapt: scan_steps:    0.0000000000000000       0.40000000000000002        0.0000000000000000     
 PAO|LS| adapt: energies:   -7.6341630710985617       -7.7799321905751873        0.0000000000000000     
 PAO| ======================= Iteration:         5 =============================

     Lanczos converged:  T threshold:   0.100E-02
     Est. extremal eigenvalues:    0.263E+01   0.184E+00
     Est. condition number :    0.143E+02
     NS sqrt iter    1 1.00000000   0.687E+00       0.002       39.423
     NS sqrt iter    2 1.00000000   0.313E+00       0.002       66.992
     NS sqrt iter    3 1.00000000   0.658E-01       0.002       67.105
     NS sqrt iter    4 1.00000000   0.133E-02       0.002       67.069
     NS sqrt iter    5 1.00000000   0.222E-07       0.001       37.506
     Final NS sqrt iter    5 1.00000000   0.297E-08

     Est. extremal eigenvalues     -0.93451     1.65402  converged:  T
     TRS4 it   1 1.00000000   0.865E+00       0.001       16.128   0.100E-07
     TRS4 it   2 1.00000000   0.593E+00       0.001       30.077   0.100E-07
     TRS4 it   3 1.00000000   0.391E+00       0.001       32.256   0.100E-07
     TRS4 it   4 1.00000000   0.180E+00       0.001       32.256   0.100E-07
     TRS4 it   5 1.00000000   0.463E-01       0.001       32.256   0.100E-07
     TRS4 it   6 1.00000000   0.375E-02       0.001       32.256   0.100E-07
     TRS4 it   7 1.00000000   0.319E-04       0.001       32.256   0.100E-07
     TRS4 it   8 1.00000000   0.292E-08       0.001       32.256   0.100E-07
     Final TRS4 iteration    8 1.00000000   0.292E-08
     Chemical potential (mu):       0.03775
 
 PAO| energy:  -7.7251557781088067      penalty:   9.2017156060830339E-005
 PAO|LS| Need extra step
 PAO|LS| adapt:  T T T
 PAO|LS| adapt: scan_steps:    0.0000000000000000       0.40000000000000002       0.80000000000000004     
 PAO|LS| adapt: energies:   -7.6341630710985617       -7.7799321905751873       -7.7251557781088067     
 PAO|LS| adapt: suggested step_size:   0.49074518502472014     
 PAO|LS| adapt: predicted energy  -7.7850929093461527     
 PAO| ======================= Iteration:         6 =============================

     Lanczos converged:  T threshold:   0.100E-02
     Est. extremal eigenvalues:    0.289E+01   0.163E+00
     Est. condition number :    0.177E+02
     NS sqrt iter    1 1.00000000   0.733E+00       0.002       34.583
     NS sqrt iter    2 1.00000000   0.359E+00       0.002       62.915
     NS sqrt iter    3 1.00000000   0.951E-01       0.002       60.322
     NS sqrt iter    4 1.00000000   0.355E-02       0.002       65.571
     NS sqrt iter    5 1.00000000   0.358E-06       0.002       43.877
     Final NS sqrt iter    5 1.00000000   0.142E-09

     Est. extremal eigenvalues     -0.93474     1.71006  converged:  T
     TRS4 it   1 1.00000000   0.871E+00       0.001       16.128   0.100E-07
     TRS4 it   2 1.00000000   0.622E+00       0.001       29.727   0.100E-07
     TRS4 it   3 1.00000000   0.428E+00       0.001       32.256   0.100E-07
     TRS4 it   4 1.00000000   0.223E+00       0.001       29.577   0.100E-07
     TRS4 it   5 1.00000000   0.750E-01       0.001       32.256   0.100E-07
     TRS4 it   6 1.00000000   0.107E-01       0.001       32.256   0.100E-07
     TRS4 it   7 1.00000000   0.301E-03       0.001       32.256   0.100E-07
     TRS4 it   8 1.00000000   0.342E-06       0.001       32.256   0.100E-07
     TRS4 it   9 1.00000000   0.519E-12       0.001       32.256   0.100E-07
     Final TRS4 iteration    9 1.00000000   0.519E-12
     Chemical potential (mu):       0.00115
 
 PAO| energy:  -7.7843793658301710      penalty:   1.3029658913142226E-005
 PAO|CG| warming up with steepest descent
 PAO|CG| beta:    0.0000000000000000     
 PAO| norm of gradient:  0.41722828117042898     
 PAO| energy improvement: -0.15021629473160925     
 PAO| step      6                   -7.784379366  0.261E-01  0.491E+00     0.138
 PAO|LS| adapt:  T F F
 PAO|LS| adapt: scan_steps:    0.0000000000000000        0.0000000000000000        0.0000000000000000     
 PAO|LS| adapt: energies:   -7.7843793658301710        0.0000000000000000        0.0000000000000000     
 PAO| ======================= Iteration:         7 =============================

     Lanczos converged:  T threshold:   0.100E-02
     Est. extremal eigenvalues:    0.281E+01   0.177E+00
     Est. condition number :    0.159E+02
     NS sqrt iter    1 1.00000000   0.716E+00       0.002       41.336
     NS sqrt iter    2 1.00000000   0.339E+00       0.002       64.701
     NS sqrt iter    3 1.00000000   0.796E-01       0.002       65.871
     NS sqrt iter    4 1.00000000   0.217E-02       0.002       63.248
     NS sqrt iter    5 1.00000000   0.918E-07       0.002       48.950
     Final NS sqrt iter    5 1.00000000   0.102E-08

     Est. extremal eigenvalues     -0.93648     1.69710  converged:  T
     TRS4 it   1 1.00000000   0.870E+00       0.001       15.838   0.100E-07
     TRS4 it   2 1.00000000   0.620E+00       0.001       26.686   0.100E-07
     TRS4 it   3 1.00000000   0.428E+00       0.001       31.822   0.100E-07
     TRS4 it   4 1.00000000   0.224E+00       0.001       27.562   0.100E-07
     TRS4 it   5 1.00000000   0.756E-01       0.002       19.696   0.100E-07
     TRS4 it   6 1.00000000   0.106E-01       0.001       30.010   0.100E-07
     TRS4 it   7 1.00000000   0.280E-03       0.001       29.651   0.100E-07
     TRS4 it   8 1.00000000   0.281E-06       0.001       32.256   0.100E-07
     TRS4 it   9 1.00000000   0.345E-12       0.001       32.256   0.100E-07
     Final TRS4 iteration    9 1.00000000   0.345E-12
     Chemical potential (mu):       0.00325
 
 PAO| energy:  -7.7785935516105402      penalty:   1.9744480688187997E-005
 PAO|LS| adapt:  T F T
 PAO|LS| adapt: scan_steps:    0.0000000000000000        0.0000000000000000       0.49074518502472014     
 PAO|LS| adapt: energies:   -7.7843793658301710        0.0000000000000000       -7.7785935516105402     
 PAO| ======================= Iteration:         8 =============================

     Lanczos converged:  T threshold:   0.100E-02
     Est. extremal eigenvalues:    0.285E+01   0.170E+00
     Est. condition number :    0.168E+02
     NS sqrt iter    1 1.00000000   0.725E+00       0.002       34.943
     NS sqrt iter    2 1.00000000   0.349E+00       0.002       65.704
     NS sqrt iter    3 1.00000000   0.872E-01       0.002       58.252
     NS sqrt iter    4 1.00000000   0.279E-02       0.002       59.983
     NS sqrt iter    5 1.00000000   0.185E-06       0.002       49.803
     Final NS sqrt iter    5 1.00000000   0.121E-08

     Est. extremal eigenvalues     -0.93655     1.70293  converged:  T
     TRS4 it   1 1.00000000   0.870E+00       0.001       16.128   0.100E-07
     TRS4 it   2 1.00000000   0.620E+00       0.001       28.321   0.100E-07
     TRS4 it   3 1.00000000   0.427E+00       0.001       32.256   0.100E-07
     TRS4 it   4 1.00000000   0.223E+00       0.001       32.256   0.100E-07
     TRS4 it   5 1.00000000   0.751E-01       0.001       32.256   0.100E-07
     TRS4 it   6 1.00000000   0.107E-01       0.001       30.010   0.100E-07
     TRS4 it   7 1.00000000   0.299E-03       0.001       31.979   0.100E-07
     TRS4 it   8 1.00000000   0.330E-06       0.001       32.256   0.100E-07
     TRS4 it   9 1.00000000   0.480E-12       0.001       32.256   0.100E-07
     Final TRS4 iteration    9 1.00000000   0.480E-12
     Chemical potential (mu):       0.00170
 
 PAO| energy:  -7.8040510558151723      penalty:   1.4133082883677333E-005
 PAO|LS| adapt:  T T T
 PAO|LS| adapt: scan_steps:    0.0000000000000000       0.24537259251236007       0.49074518502472014     
 PAO|LS| adapt: energies:   -7.7843793658301710       -7.8040510558151723       -7.7785935516105402     
 PAO|LS| adapt: suggested step_size:   0.22964352554852108     
 PAO|LS| adapt: predicted energy  -7.8041437775188980     
 PAO| ======================= Iteration:         9 =============================

     Lanczos converged:  T threshold:   0.100E-02
     Est. extremal eigenvalues:    0.285E+01   0.169E+00
     Est. condition number :    0.169E+02
     NS sqrt iter    1 1.00000000   0.725E+00       0.002       39.101
     NS sqrt iter    2 1.00000000   0.350E+00       0.002       66.619
     NS sqrt iter    3 1.00000000   0.877E-01       0.002       67.049
     NS sqrt iter    4 1.00000000   0.283E-02       0.002       65.714
     NS sqrt iter    5 1.00000000   0.193E-06       0.002       48.644
     Final NS sqrt iter    5 1.00000000   0.857E-09

     Est. extremal eigenvalues     -0.93649     1.70335  converged:  T
     TRS4 it   1 1.00000000   0.870E+00       0.001       16.128   0.100E-07
     TRS4 it   2 1.00000000   0.620E+00       0.001       31.822   0.100E-07
     TRS4 it   3 1.00000000   0.427E+00       0.001       32.256   0.100E-07
     TRS4 it   4 1.00000000   0.223E+00       0.001       32.256   0.100E-07
     TRS4 it   5 1.00000000   0.750E-01       0.001       32.256   0.100E-07
     TRS4 it   6 1.00000000   0.107E-01       0.001       32.256   0.100E-07
     TRS4 it   7 1.00000000   0.299E-03       0.001       32.256   0.100E-07
     TRS4 it   8 1.00000000   0.332E-06       0.001       32.256   0.100E-07
     TRS4 it   9 1.00000000   0.486E-12       0.001       32.256   0.100E-07
     Final TRS4 iteration    9 1.00000000   0.486E-12
     Chemical potential (mu):       0.00163
 
 PAO| energy:  -7.8041672455139821      penalty:   1.3964621035283761E-005
 PAO|CG| trace_G_new    3.6927700050283542E-002
 PAO|CG| trace_G_prev   0.17407943860843056     
 PAO|CG| trace_G_mix   -1.4456865959100113E-003
 PAO|CG| trace_D   0.17407943860843056     
 PAO|CG| trace_D_Gnew   1.4456865959100113E-003
 PAO|CG| beta:   0.22043606616005684     
 PAO| norm of gradient:  0.19216581394796406     
 PAO| energy improvement:  -1.9787879683811127E-002
 PAO| step      9                   -7.804167246  0.120E-01  0.230E+00     0.087
 PAO|LS| adapt:  T F F
 PAO|LS| adapt: scan_steps:    0.0000000000000000        0.0000000000000000        0.0000000000000000     
 PAO|LS| adapt: energies:   -7.8041672455139821        0.0000000000000000        0.0000000000000000     
 PAO| ======================= Iteration:        10 =============================

     Lanczos converged:  T threshold:   0.100E-02
     Est. extremal eigenvalues:    0.282E+01   0.175E+00
     Est. condition number :    0.161E+02
     NS sqrt iter    1 1.00000000   0.718E+00       0.002       40.645
     NS sqrt iter    2 1.00000000   0.341E+00       0.002       66.755
     NS sqrt iter    3 1.00000000   0.820E-01       0.002       67.747
     NS sqrt iter    4 1.00000000   0.233E-02       0.002       64.545
     NS sqrt iter    5 1.00000000   0.107E-06       0.002       51.625
     Final NS sqrt iter    5 1.00000000   0.114E-08

     Est. extremal eigenvalues     -0.93738     1.69753  converged:  T
     TRS4 it   1 1.00000000   0.868E+00       0.001       16.128   0.100E-07
     TRS4 it   2 1.00000000   0.618E+00       0.001       32.256   0.100E-07
     TRS4 it   3 1.00000000   0.425E+00       0.001       32.256   0.100E-07
     TRS4 it   4 1.00000000   0.220E+00       0.001       32.256   0.100E-07
     TRS4 it   5 1.00000000   0.728E-01       0.001       32.256   0.100E-07
     TRS4 it   6 1.00000000   0.100E-01       0.001       32.256   0.100E-07
     TRS4 it   7 1.00000000   0.258E-03       0.001       32.256   0.100E-07
     TRS4 it   8 1.00000000   0.240E-06       0.001       32.256   0.100E-07
     TRS4 it   9 1.00000000   0.253E-12       0.001       32.256   0.100E-07
     Final TRS4 iteration    9 1.00000000   0.253E-12
     Chemical potential (mu):       0.00489
 
 PAO| energy:  -7.8092101343040712      penalty:   1.4508348711779708E-005
 PAO|LS| adapt:  T T F
 PAO|LS| adapt: scan_steps:    0.0000000000000000       0.22964352554852108        0.0000000000000000     
 PAO|LS| adapt: energies:   -7.8041672455139821       -7.8092101343040712        0.0000000000000000     
 PAO| ======================= Iteration:        11 =============================

     Lanczos converged:  T threshold:   0.100E-02
     Est. extremal eigenvalues:    0.278E+01   0.181E+00
     Est. condition number :    0.154E+02
     NS sqrt iter    1 1.00000000   0.710E+00       0.002       40.795
     NS sqrt iter    2 1.00000000   0.333E+00       0.002       66.391
     NS sqrt iter    3 1.00000000   0.766E-01       0.002       64.855
     NS sqrt iter    4 1.00000000   0.190E-02       0.002       66.842
     NS sqrt iter    5 1.00000000   0.587E-07       0.002       48.649
     Final NS sqrt iter    5 1.00000000   0.543E-09

     Est. extremal eigenvalues     -0.93728     1.69315  converged:  T
     TRS4 it   1 1.00000000   0.866E+00       0.001       16.128   0.100E-07
     TRS4 it   2 1.00000000   0.617E+00       0.001       32.256   0.100E-07
     TRS4 it   3 1.00000000   0.423E+00       0.001       32.256   0.100E-07
     TRS4 it   4 1.00000000   0.217E+00       0.001       32.256   0.100E-07
     TRS4 it   5 1.00000000   0.708E-01       0.001       32.256   0.100E-07
     TRS4 it   6 1.00000000   0.941E-02       0.001       32.256   0.100E-07
     TRS4 it   7 1.00000000   0.222E-03       0.001       32.256   0.100E-07
     TRS4 it   8 1.00000000   0.172E-06       0.001       32.256   0.100E-07
     TRS4 it   9 1.00000000   0.128E-12       0.001       32.256   0.100E-07
     Final TRS4 iteration    9 1.00000000   0.128E-12
     Chemical potential (mu):       0.00828
 
 PAO| energy:  -7.8077693202245957      penalty:   1.5725254865285658E-005
 PAO|LS| adapt:  T T T
 PAO|LS| adapt: scan_steps:    0.0000000000000000       0.22964352554852108       0.45928705109704215     
 PAO|LS| adapt: energies:   -7.8041672455139821       -7.8092101343040712       -7.8077693202245957     
 PAO|LS| adapt: suggested step_size:   0.29343370474669456     
 PAO|LS| adapt: predicted energy  -7.8094602796007067     
 PAO| ======================= Iteration:        12 =============================

     Lanczos converged:  T threshold:   0.100E-02
     Est. extremal eigenvalues:    0.281E+01   0.177E+00
     Est. condition number :    0.159E+02
     NS sqrt iter    1 1.00000000   0.715E+00       0.002       40.927
     NS sqrt iter    2 1.00000000   0.339E+00       0.002       67.108
     NS sqrt iter    3 1.00000000   0.805E-01       0.002       67.910
     NS sqrt iter    4 1.00000000   0.220E-02       0.002       67.813
     NS sqrt iter    5 1.00000000   0.908E-07       0.001       51.402
     Final NS sqrt iter    5 1.00000000   0.959E-09

     Est. extremal eigenvalues     -0.93745     1.69617  converged:  T
     TRS4 it   1 1.00000000   0.867E+00       0.001       16.128   0.100E-07
     TRS4 it   2 1.00000000   0.618E+00       0.001       32.256   0.100E-07
     TRS4 it   3 1.00000000   0.424E+00       0.001       32.256   0.100E-07
     TRS4 it   4 1.00000000   0.219E+00       0.001       32.256   0.100E-07
     TRS4 it   5 1.00000000   0.723E-01       0.001       32.256   0.100E-07
     TRS4 it   6 1.00000000   0.987E-02       0.001       32.256   0.100E-07
     TRS4 it   7 1.00000000   0.247E-03       0.001       32.256   0.100E-07
     TRS4 it   8 1.00000000   0.219E-06       0.001       32.256   0.100E-07
     TRS4 it   9 1.00000000   0.209E-12       0.001       32.256   0.100E-07
     Final TRS4 iteration    9 1.00000000   0.209E-12
     Chemical potential (mu):       0.00582
 
 PAO| energy:  -7.8094441883551982      penalty:   1.4771220141452932E-005
 PAO|CG| trace_G_new    1.1836779005725348E-002
 PAO|CG| trace_G_prev    3.6927700050283542E-002
 PAO|CG| trace_G_mix   -4.5942588937236857E-004
 PAO|CG| trace_D    4.4749215515603860E-002
 PAO|CG| trace_D_Gnew   2.1124772951055778E-004
 PAO|CG| beta:   0.33298052351904606     
 PAO| norm of gradient:  0.10879696230008147     
 PAO| energy improvement:  -5.2769428412160480E-003
 PAO| step     12                   -7.809444188  0.680E-02  0.293E+00     0.081
 PAO|LS| adapt:  T F F
 PAO|LS| adapt: scan_steps:    0.0000000000000000        0.0000000000000000        0.0000000000000000     
 PAO|LS| adapt: energies:   -7.8094441883551982        0.0000000000000000        0.0000000000000000     
 PAO| ======================= Iteration:        13 =============================

     Lanczos converged:  T threshold:   0.100E-02
     Est. extremal eigenvalues:    0.277E+01   0.181E+00
     Est. condition number :    0.153E+02
     NS sqrt iter    1 1.00000000   0.708E+00       0.002       40.746
     NS sqrt iter    2 1.00000000   0.332E+00       0.002       66.584
     NS sqrt iter    3 1.00000000   0.762E-01       0.002       65.745
     NS sqrt iter    4 1.00000000   0.188E-02       0.002       67.310
     NS sqrt iter    5 1.00000000   0.572E-07       0.002       47.700
     Final NS sqrt iter    5 1.00000000   0.540E-09

     Est. extremal eigenvalues     -0.93793     1.68945  converged:  T
     TRS4 it   1 1.00000000   0.866E+00       0.001       16.128   0.100E-07
     TRS4 it   2 1.00000000   0.615E+00       0.001       32.256   0.100E-07
     TRS4 it   3 1.00000000   0.420E+00       0.001       32.256   0.100E-07
     TRS4 it   4 1.00000000   0.214E+00       0.001       32.256   0.100E-07
     TRS4 it   5 1.00000000   0.687E-01       0.001       32.256   0.100E-07
     TRS4 it   6 1.00000000   0.885E-02       0.001       32.256   0.100E-07
     TRS4 it   7 1.00000000   0.196E-03       0.001       32.256   0.100E-07
     TRS4 it   8 1.00000000   0.134E-06       0.001       32.256   0.100E-07
     TRS4 it   9 1.00000000   0.771E-13       0.001       32.256   0.100E-07
     Final TRS4 iteration    9 1.00000000   0.771E-13
     Chemical potential (mu):       0.01048
 
 PAO| energy:  -7.8115113275483683      penalty:   1.5080409172788338E-005
 PAO|LS| adapt:  T T F
 PAO|LS| adapt: scan_steps:    0.0000000000000000       0.29343370474669456        0.0000000000000000     
 PAO|LS| adapt: energies:   -7.8094441883551982       -7.8115113275483683        0.0000000000000000     
 PAO| ======================= Iteration:        14 =============================

     Lanczos converged:  T threshold:   0.100E-02
     Est. extremal eigenvalues:    0.274E+01   0.185E+00
     Est. condition number :    0.148E+02
     NS sqrt iter    1 1.00000000   0.702E+00       0.002       41.069
     NS sqrt iter    2 1.00000000   0.325E+00       0.002       65.772
     NS sqrt iter    3 1.00000000   0.721E-01       0.002       65.132
     NS sqrt iter    4 1.00000000   0.160E-02       0.002       63.796
     NS sqrt iter    5 1.00000000   0.360E-07       0.002       44.347
     Final NS sqrt iter    5 1.00000000   0.393E-09

     Est. extremal eigenvalues     -0.93791     1.68311  converged:  T
     TRS4 it   1 1.00000000   0.866E+00       0.001       16.128   0.100E-07
     TRS4 it   2 1.00000000   0.612E+00       0.001       32.256   0.100E-07
     TRS4 it   3 1.00000000   0.416E+00       0.001       32.256   0.100E-07
     TRS4 it   4 1.00000000   0.209E+00       0.001       32.256   0.100E-07
     TRS4 it   5 1.00000000   0.653E-01       0.001       32.256   0.100E-07
     TRS4 it   6 1.00000000   0.794E-02       0.001       32.256   0.100E-07
     TRS4 it   7 1.00000000   0.155E-03       0.001       32.256   0.100E-07
     TRS4 it   8 1.00000000   0.817E-07       0.001       32.256   0.100E-07
     TRS4 it   9 1.00000000   0.285E-13       0.001       32.256   0.100E-07
     Final TRS4 iteration    9 1.00000000   0.285E-13
     Chemical potential (mu):       0.01504
 
 PAO| energy:  -7.8108569324789192      penalty:   1.5869656368266776E-005
 PAO|LS| adapt:  T T T
 PAO|LS| adapt: scan_steps:    0.0000000000000000       0.29343370474669456       0.58686740949338911     
 PAO|LS| adapt: energies:   -7.8094441883551982       -7.8115113275483683       -7.8108569324789192     
 PAO|LS| adapt: suggested step_size:   0.36959419035521085     
 PAO|LS| adapt: predicted energy  -7.8116029967029021     
 PAO| ======================= Iteration:        15 =============================

     Lanczos converged:  T threshold:   0.100E-02
     Est. extremal eigenvalues:    0.276E+01   0.182E+00
     Est. condition number :    0.152E+02
     NS sqrt iter    1 1.00000000   0.707E+00       0.002       40.868
     NS sqrt iter    2 1.00000000   0.330E+00       0.002       66.599
     NS sqrt iter    3 1.00000000   0.751E-01       0.002       65.355
     NS sqrt iter    4 1.00000000   0.180E-02       0.002       66.377
     NS sqrt iter    5 1.00000000   0.507E-07       0.002       47.290
     Final NS sqrt iter    5 1.00000000   0.425E-09

     Est. extremal eigenvalues     -0.93797     1.68777  converged:  T
     TRS4 it   1 1.00000000   0.866E+00       0.001       16.128   0.100E-07
     TRS4 it   2 1.00000000   0.614E+00       0.001       32.124   0.100E-07
     TRS4 it   3 1.00000000   0.419E+00       0.001       25.649   0.100E-07
     TRS4 it   4 1.00000000   0.213E+00       0.001       32.256   0.100E-07
     TRS4 it   5 1.00000000   0.678E-01       0.001       32.105   0.100E-07
     TRS4 it   6 1.00000000   0.861E-02       0.001       32.256   0.100E-07
     TRS4 it   7 1.00000000   0.184E-03       0.001       32.256   0.100E-07
     TRS4 it   8 1.00000000   0.118E-06       0.001       32.256   0.100E-07
     TRS4 it   9 1.00000000   0.596E-13       0.001       32.256   0.100E-07
     Final TRS4 iteration    9 1.00000000   0.596E-13
     Chemical potential (mu):       0.01167
 
 PAO| energy:  -7.8115999709746262      penalty:   1.5236102697231549E-005
 PAO|CG| trace_G_new    2.6138659898998383E-003
 PAO|CG| trace_G_prev    1.1836779005725348E-002
 PAO|CG| trace_G_mix    6.6313477608814341E-005
 PAO|CG| trace_D    1.6657711565756437E-002
 PAO|CG| trace_D_Gnew   3.4048450323384116E-005
 PAO|CG| beta:   0.21522345826164321     
 PAO| norm of gradient:   5.1125981554390118E-002
 PAO| energy improvement:  -2.1557826194280594E-003
 PAO| step     15                   -7.811599971  0.320E-02  0.370E+00     0.082
 PAO|LS| adapt:  T F F
 PAO|LS| adapt: scan_steps:    0.0000000000000000        0.0000000000000000        0.0000000000000000     
 PAO|LS| adapt: energies:   -7.8115999709746262        0.0000000000000000        0.0000000000000000     
 PAO| ======================= Iteration:        16 =============================

     Lanczos converged:  T threshold:   0.100E-02
     Est. extremal eigenvalues:    0.276E+01   0.183E+00
     Est. condition number :    0.151E+02
     NS sqrt iter    1 1.00000000   0.705E+00       0.002       39.570
     NS sqrt iter    2 1.00000000   0.329E+00       0.002       65.369
     NS sqrt iter    3 1.00000000   0.745E-01       0.002       64.889
     NS sqrt iter    4 1.00000000   0.175E-02       0.002       65.957
     NS sqrt iter    5 1.00000000   0.465E-07       0.002       46.207
     Final NS sqrt iter    5 1.00000000   0.417E-09

     Est. extremal eigenvalues     -0.93800     1.68747  converged:  T
     TRS4 it   1 1.00000000   0.866E+00       0.001       16.128   0.100E-07
     TRS4 it   2 1.00000000   0.613E+00       0.001       31.607   0.100E-07
     TRS4 it   3 1.00000000   0.418E+00       0.001       32.256   0.100E-07
     TRS4 it   4 1.00000000   0.211E+00       0.001       32.256   0.100E-07
     TRS4 it   5 1.00000000   0.667E-01       0.001       32.256   0.100E-07
     TRS4 it   6 1.00000000   0.834E-02       0.001       32.256   0.100E-07
     TRS4 it   7 1.00000000   0.174E-03       0.001       32.256   0.100E-07
     TRS4 it   8 1.00000000   0.106E-06       0.001       32.256   0.100E-07
     TRS4 it   9 1.00000000   0.476E-13       0.001       29.106   0.100E-07
     Final TRS4 iteration    9 1.00000000   0.476E-13
     Chemical potential (mu):       0.01251
 
 PAO| energy:  -7.8117278968835171      penalty:   1.5017236435359928E-005
 PAO|LS| adapt:  T T F
 PAO|LS| adapt: scan_steps:    0.0000000000000000       0.36959419035521085        0.0000000000000000     
 PAO|LS| adapt: energies:   -7.8115999709746262       -7.8117278968835171        0.0000000000000000     
 PAO| ======================= Iteration:        17 =============================

     Lanczos converged:  T threshold:   0.100E-02
     Est. extremal eigenvalues:    0.275E+01   0.183E+00
     Est. condition number :    0.150E+02
     NS sqrt iter    1 1.00000000   0.703E+00       0.001       44.260
     NS sqrt iter    2 1.00000000   0.328E+00       0.002       72.033
     NS sqrt iter    3 1.00000000   0.738E-01       0.002       71.611
     NS sqrt iter    4 1.00000000   0.171E-02       0.001       74.688
     NS sqrt iter    5 1.00000000   0.428E-07       0.001       52.780
     Final NS sqrt iter    5 1.00000000   0.392E-09

     Est. extremal eigenvalues     -0.93791     1.68723  converged:  T
     TRS4 it   1 1.00000000   0.867E+00       0.001       16.128   0.100E-07
     TRS4 it   2 1.00000000   0.613E+00       0.001       32.256   0.100E-07
     TRS4 it   3 1.00000000   0.417E+00       0.001       32.256   0.100E-07
     TRS4 it   4 1.00000000   0.210E+00       0.001       32.256   0.100E-07
     TRS4 it   5 1.00000000   0.656E-01       0.001       32.256   0.100E-07
     TRS4 it   6 1.00000000   0.808E-02       0.001       32.256   0.100E-07
     TRS4 it   7 1.00000000   0.164E-03       0.001       32.256   0.100E-07
     TRS4 it   8 1.00000000   0.950E-07       0.001       32.256   0.100E-07
     TRS4 it   9 1.00000000   0.385E-13       0.001       32.256   0.100E-07
     Final TRS4 iteration    9 1.00000000   0.385E-13
     Chemical potential (mu):       0.01333
 
 PAO| energy:  -7.8101792856934393      penalty:   1.4923029385357567E-005
 PAO|LS| adapt:  T T T
 PAO|LS| adapt: scan_steps:    0.0000000000000000       0.36959419035521085       0.73918838071042170     
 PAO|LS| adapt: energies:   -7.8115999709746262       -7.8117278968835171       -7.8101792856934393     
 PAO|LS| adapt: suggested step_size:   0.21299848287792231     
 PAO|LS| adapt: predicted energy  -7.8118783816736714     
 PAO| ======================= Iteration:        18 =============================

     Lanczos converged:  T threshold:   0.100E-02
     Est. extremal eigenvalues:    0.276E+01   0.182E+00
     Est. condition number :    0.151E+02
     NS sqrt iter    1 1.00000000   0.706E+00       0.001       43.792
     NS sqrt iter    2 1.00000000   0.330E+00       0.001       75.065
     NS sqrt iter    3 1.00000000   0.747E-01       0.001       75.678
     NS sqrt iter    4 1.00000000   0.177E-02       0.002       69.003
     NS sqrt iter    5 1.00000000   0.482E-07       0.001       54.059
     Final NS sqrt iter    5 1.00000000   0.427E-09

     Est. extremal eigenvalues     -0.93801     1.68759  converged:  T
     TRS4 it   1 1.00000000   0.866E+00       0.001       16.128   0.100E-07
     TRS4 it   2 1.00000000   0.614E+00       0.001       32.256   0.100E-07
     TRS4 it   3 1.00000000   0.419E+00       0.001       32.256   0.100E-07
     TRS4 it   4 1.00000000   0.212E+00       0.001       32.256   0.100E-07
     TRS4 it   5 1.00000000   0.671E-01       0.001       32.256   0.100E-07
     TRS4 it   6 1.00000000   0.845E-02       0.001       32.256   0.100E-07
     TRS4 it   7 1.00000000   0.178E-03       0.001       32.256   0.100E-07
     TRS4 it   8 1.00000000   0.111E-06       0.001       32.256   0.100E-07
     TRS4 it   9 1.00000000   0.531E-13       0.001       32.256   0.100E-07
     Final TRS4 iteration    9 1.00000000   0.531E-13
     Chemical potential (mu):       0.01216
 
 PAO| energy:  -7.8118779154754421      penalty:   1.5095017405220632E-005
 PAO|CG| trace_G_new    7.2710669623510238E-004
 PAO|CG| trace_G_prev    2.6138659898998383E-003
 PAO|CG| trace_G_mix    1.6435316094572557E-006
 PAO|CG| trace_D    3.3708140787581096E-003
 PAO|CG| trace_D_Gnew  -1.7942051831231251E-006
 PAO|CG| beta:   0.27754413096497133     
 PAO| norm of gradient:   2.6964916024996302E-002
 PAO| energy improvement:  -2.7794450081586319E-004
 PAO| step     18                   -7.811877915  0.169E-02  0.213E+00     0.081
 PAO|LS| adapt:  T F F
 PAO|LS| adapt: scan_steps:    0.0000000000000000        0.0000000000000000        0.0000000000000000     
 PAO|LS| adapt: energies:   -7.8118779154754421        0.0000000000000000        0.0000000000000000     
 PAO| ======================= Iteration:        19 =============================

     Lanczos converged:  T threshold:   0.100E-02
     Est. extremal eigenvalues:    0.276E+01   0.182E+00
     Est. condition number :    0.151E+02
     NS sqrt iter    1 1.00000000   0.706E+00       0.002       37.106
     NS sqrt iter    2 1.00000000   0.330E+00       0.002       65.404
     NS sqrt iter    3 1.00000000   0.749E-01       0.002       64.928
     NS sqrt iter    4 1.00000000   0.178E-02       0.002       64.711
     NS sqrt iter    5 1.00000000   0.488E-07       0.002       47.228
     Final NS sqrt iter    5 1.00000000   0.414E-09

     Est. extremal eigenvalues     -0.93801     1.68786  converged:  T
     TRS4 it   1 1.00000000   0.866E+00       0.001       16.128   0.100E-07
     TRS4 it   2 1.00000000   0.613E+00       0.001       32.256   0.100E-07
     TRS4 it   3 1.00000000   0.418E+00       0.001       32.256   0.100E-07
     TRS4 it   4 1.00000000   0.212E+00       0.001       32.256   0.100E-07
     TRS4 it   5 1.00000000   0.670E-01       0.001       32.256   0.100E-07
     TRS4 it   6 1.00000000   0.844E-02       0.001       32.256   0.100E-07
     TRS4 it   7 1.00000000   0.179E-03       0.001       32.256   0.100E-07
     TRS4 it   8 1.00000000   0.112E-06       0.001       32.256   0.100E-07
     TRS4 it   9 1.00000000   0.541E-13       0.001       32.256   0.100E-07
     Final TRS4 iteration    9 1.00000000   0.541E-13
     Chemical potential (mu):       0.01187
 
 PAO| energy:  -7.8119960908804833      penalty:   1.4805366665842762E-005
 PAO|LS| adapt:  T T F
 PAO|LS| adapt: scan_steps:    0.0000000000000000       0.21299848287792231        0.0000000000000000     
 PAO|LS| adapt: energies:   -7.8118779154754421       -7.8119960908804833        0.0000000000000000     
 PAO| ======================= Iteration:        20 =============================

     Lanczos converged:  T threshold:   0.100E-02
     Est. extremal eigenvalues:    0.276E+01   0.182E+00
     Est. condition number :    0.152E+02
     NS sqrt iter    1 1.00000000   0.706E+00       0.002       39.198
     NS sqrt iter    2 1.00000000   0.330E+00       0.002       62.524
     NS sqrt iter    3 1.00000000   0.752E-01       0.002       57.531
     NS sqrt iter    4 1.00000000   0.179E-02       0.002       64.824
     NS sqrt iter    5 1.00000000   0.494E-07       0.002       46.146
     Final NS sqrt iter    5 1.00000000   0.423E-09

     Est. extremal eigenvalues     -0.93800     1.68813  converged:  T
     TRS4 it   1 1.00000000   0.866E+00       0.001       16.128   0.100E-07
     TRS4 it   2 1.00000000   0.613E+00       0.001       32.256   0.100E-07
     TRS4 it   3 1.00000000   0.418E+00       0.001       32.256   0.100E-07
     TRS4 it   4 1.00000000   0.212E+00       0.001       32.256   0.100E-07
     TRS4 it   5 1.00000000   0.670E-01       0.001       32.256   0.100E-07
     TRS4 it   6 1.00000000   0.843E-02       0.001       32.256   0.100E-07
     TRS4 it   7 1.00000000   0.180E-03       0.001       32.256   0.100E-07
     TRS4 it   8 1.00000000   0.114E-06       0.001       32.256   0.100E-07
     TRS4 it   9 1.00000000   0.565E-13       0.001       32.256   0.100E-07
     Final TRS4 iteration    9 1.00000000   0.565E-13
     Chemical potential (mu):       0.01159
 
 PAO| energy:  -7.8120402588041857      penalty:   1.4528184727644452E-005
 PAO|LS| adapt:  T T F
 PAO|LS| adapt: scan_steps:    0.0000000000000000       0.42599696575584461        0.0000000000000000     
 PAO|LS| adapt: energies:   -7.8118779154754421       -7.8120402588041857        0.0000000000000000     
 PAO| ======================= Iteration:        21 =============================

     Lanczos converged:  T threshold:   0.100E-02
     Est. extremal eigenvalues:    0.276E+01   0.182E+00
     Est. condition number :    0.152E+02
     NS sqrt iter    1 1.00000000   0.705E+00       0.002       38.780
     NS sqrt iter    2 1.00000000   0.330E+00       0.002       63.246
     NS sqrt iter    3 1.00000000   0.756E-01       0.002       62.749
     NS sqrt iter    4 1.00000000   0.182E-02       0.002       63.403
     NS sqrt iter    5 1.00000000   0.507E-07       0.002       45.302
     Final NS sqrt iter    5 1.00000000   0.429E-09

     Est. extremal eigenvalues     -0.93800     1.68868  converged:  T
     TRS4 it   1 1.00000000   0.867E+00       0.001       16.128   0.100E-07
     TRS4 it   2 1.00000000   0.613E+00       0.001       31.186   0.100E-07
     TRS4 it   3 1.00000000   0.418E+00       0.001       32.256   0.100E-07
     TRS4 it   4 1.00000000   0.211E+00       0.001       32.256   0.100E-07
     TRS4 it   5 1.00000000   0.668E-01       0.001       32.256   0.100E-07
     TRS4 it   6 1.00000000   0.842E-02       0.001       32.256   0.100E-07
     TRS4 it   7 1.00000000   0.181E-03       0.001       32.256   0.100E-07
     TRS4 it   8 1.00000000   0.118E-06       0.001       32.256   0.100E-07
     TRS4 it   9 1.00000000   0.612E-13       0.001       31.889   0.100E-07
     Final TRS4 iteration    9 1.00000000   0.612E-13
     Chemical potential (mu):       0.01102
 
 PAO| energy:  -7.8119041606994424      penalty:   1.4010649009621922E-005
 PAO|LS| Need extra step
 PAO|LS| adapt:  T T T
 PAO|LS| adapt: scan_steps:    0.0000000000000000       0.42599696575584461       0.85199393151168923     
 PAO|LS| adapt: energies:   -7.8118779154754421       -7.8120402588041857       -7.8119041606994424     
 PAO|LS| adapt: suggested step_size:   0.44472825527398796     
 PAO|LS| adapt: predicted energy  -7.8120405473079355     
 PAO| ======================= Iteration:        22 =============================

     Lanczos converged:  T threshold:   0.100E-02
     Est. extremal eigenvalues:    0.276E+01   0.182E+00
     Est. condition number :    0.152E+02
     NS sqrt iter    1 1.00000000   0.706E+00       0.002       39.447
     NS sqrt iter    2 1.00000000   0.330E+00       0.002       63.412
     NS sqrt iter    3 1.00000000   0.752E-01       0.002       63.622
     NS sqrt iter    4 1.00000000   0.180E-02       0.002       63.566
     NS sqrt iter    5 1.00000000   0.495E-07       0.002       45.220
     Final NS sqrt iter    5 1.00000000   0.423E-09

     Est. extremal eigenvalues     -0.93800     1.68815  converged:  T
     TRS4 it   1 1.00000000   0.866E+00       0.001       16.128   0.100E-07
     TRS4 it   2 1.00000000   0.613E+00       0.001       32.256   0.100E-07
     TRS4 it   3 1.00000000   0.418E+00       0.001       32.256   0.100E-07
     TRS4 it   4 1.00000000   0.212E+00       0.001       32.256   0.100E-07
     TRS4 it   5 1.00000000   0.669E-01       0.001       32.256   0.100E-07
     TRS4 it   6 1.00000000   0.843E-02       0.001       32.256   0.100E-07
     TRS4 it   7 1.00000000   0.180E-03       0.001       31.556   0.100E-07
     TRS4 it   8 1.00000000   0.114E-06       0.001       32.256   0.100E-07
     TRS4 it   9 1.00000000   0.568E-13       0.001       32.256   0.100E-07
     Final TRS4 iteration    9 1.00000000   0.568E-13
     Chemical potential (mu):       0.01156
 
 PAO| energy:  -7.8120405825931467      penalty:   1.4504399655616737E-005
 PAO|CG| trace_G_new    2.2426540524291447E-004
 PAO|CG| trace_G_prev    7.2710669623510238E-004
 PAO|CG| trace_G_mix    3.0343438464443860E-006
 PAO|CG| trace_D    9.8775895697822609E-004
 PAO|CG| trace_D_Gnew  -1.8772924058344707E-006
 PAO|CG| beta:   0.30426217024542068     
 PAO| norm of gradient:   1.4975493489127979E-002
 PAO| energy improvement:  -1.6266711770462905E-004
 PAO| step     22                   -7.812040583  0.936E-03  0.445E+00     0.109
 PAO|LS| adapt:  T F F
 PAO|LS| adapt: scan_steps:    0.0000000000000000        0.0000000000000000        0.0000000000000000     
 PAO|LS| adapt: energies:   -7.8120405825931467        0.0000000000000000        0.0000000000000000     
 PAO| ======================= Iteration:        23 =============================

     Lanczos converged:  T threshold:   0.100E-02
     Est. extremal eigenvalues:    0.276E+01   0.182E+00
     Est. condition number :    0.152E+02
     NS sqrt iter    1 1.00000000   0.706E+00       0.002       40.590
     NS sqrt iter    2 1.00000000   0.330E+00       0.003       39.760
     NS sqrt iter    3 1.00000000   0.752E-01       0.002       64.138
     NS sqrt iter    4 1.00000000   0.180E-02       0.002       64.962
     NS sqrt iter    5 1.00000000   0.495E-07       0.002       46.452
     Final NS sqrt iter    5 1.00000000   0.424E-09

     Est. extremal eigenvalues     -0.93800     1.68778  converged:  T
     TRS4 it   1 1.00000000   0.866E+00       0.001       16.128   0.100E-07
     TRS4 it   2 1.00000000   0.613E+00       0.001       32.256   0.100E-07
     TRS4 it   3 1.00000000   0.418E+00       0.001       32.256   0.100E-07
     TRS4 it   4 1.00000000   0.212E+00       0.001       32.256   0.100E-07
     TRS4 it   5 1.00000000   0.670E-01       0.001       32.256   0.100E-07
     TRS4 it   6 1.00000000   0.847E-02       0.001       32.256   0.100E-07
     TRS4 it   7 1.00000000   0.181E-03       0.001       32.256   0.100E-07
     TRS4 it   8 1.00000000   0.117E-06       0.001       32.256   0.100E-07
     TRS4 it   9 1.00000000   0.595E-13       0.001       32.256   0.100E-07
     Final TRS4 iteration    9 1.00000000   0.595E-13
     Chemical potential (mu):       0.01126
 
 PAO| energy:  -7.8120905998357841      penalty:   1.3821176897665844E-005
 PAO|LS| adapt:  T T F
 PAO|LS| adapt: scan_steps:    0.0000000000000000       0.44472825527398796        0.0000000000000000     
 PAO|LS| adapt: energies:   -7.8120405825931467       -7.8120905998357841        0.0000000000000000     
 PAO| ======================= Iteration:        24 =============================

     Lanczos converged:  T threshold:   0.100E-02
     Est. extremal eigenvalues:    0.276E+01   0.182E+00
     Est. condition number :    0.152E+02
     NS sqrt iter    1 1.00000000   0.705E+00       0.002       40.752
     NS sqrt iter    2 1.00000000   0.330E+00       0.002       63.086
     NS sqrt iter    3 1.00000000   0.753E-01       0.002       63.259
     NS sqrt iter    4 1.00000000   0.180E-02       0.002       64.147
     NS sqrt iter    5 1.00000000   0.495E-07       0.002       45.325
     Final NS sqrt iter    5 1.00000000   0.426E-09

     Est. extremal eigenvalues     -0.93800     1.68740  converged:  T
     TRS4 it   1 1.00000000   0.866E+00       0.001       16.128   0.100E-07
     TRS4 it   2 1.00000000   0.613E+00       0.001       32.256   0.100E-07
     TRS4 it   3 1.00000000   0.418E+00       0.001       32.256   0.100E-07
     TRS4 it   4 1.00000000   0.212E+00       0.001       32.256   0.100E-07
     TRS4 it   5 1.00000000   0.671E-01       0.001       32.256   0.100E-07
     TRS4 it   6 1.00000000   0.850E-02       0.001       32.256   0.100E-07
     TRS4 it   7 1.00000000   0.183E-03       0.001       32.256   0.100E-07
     TRS4 it   8 1.00000000   0.120E-06       0.001       32.256   0.100E-07
     TRS4 it   9 1.00000000   0.627E-13       0.001       32.256   0.100E-07
     Final TRS4 iteration    9 1.00000000   0.627E-13
     Chemical potential (mu):       0.01095
 
 PAO| energy:  -7.8120400228423046      penalty:   1.3166523281716285E-005
 PAO|LS| adapt:  T T T
 PAO|LS| adapt: scan_steps:    0.0000000000000000       0.44472825527398796       0.88945651054797592     
 PAO|LS| adapt: energies:   -7.8120405825931467       -7.8120905998357841       -7.8120400228423046     
 PAO|LS| adapt: suggested step_size:   0.44349092287297692     
 PAO|LS| adapt: predicted energy  -7.8120906002251216     
 PAO| ======================= Iteration:        25 =============================

     Lanczos converged:  T threshold:   0.100E-02
     Est. extremal eigenvalues:    0.276E+01   0.182E+00
     Est. condition number :    0.152E+02
     NS sqrt iter    1 1.00000000   0.706E+00       0.002       39.763
     NS sqrt iter    2 1.00000000   0.330E+00       0.002       62.269
     NS sqrt iter    3 1.00000000   0.752E-01       0.002       63.275
     NS sqrt iter    4 1.00000000   0.180E-02       0.002       63.258
     NS sqrt iter    5 1.00000000   0.495E-07       0.002       45.691
     Final NS sqrt iter    5 1.00000000   0.424E-09

     Est. extremal eigenvalues     -0.93800     1.68778  converged:  T
     TRS4 it   1 1.00000000   0.866E+00       0.001       16.128   0.100E-07
     TRS4 it   2 1.00000000   0.613E+00       0.001       32.256   0.100E-07
     TRS4 it   3 1.00000000   0.418E+00       0.001       32.256   0.100E-07
     TRS4 it   4 1.00000000   0.212E+00       0.001       32.256   0.100E-07
     TRS4 it   5 1.00000000   0.670E-01       0.001       32.256   0.100E-07
     TRS4 it   6 1.00000000   0.847E-02       0.001       32.256   0.100E-07
     TRS4 it   7 1.00000000   0.181E-03       0.001       32.256   0.100E-07
     TRS4 it   8 1.00000000   0.117E-06       0.001       32.256   0.100E-07
     TRS4 it   9 1.00000000   0.590E-13       0.001       32.256   0.100E-07
     Final TRS4 iteration    9 1.00000000   0.590E-13
     Chemical potential (mu):       0.01126
 
 PAO| energy:  -7.8120905997754342      penalty:   1.3823037855752649E-005
 PAO|CG| trace_G_new    8.1116077367046757E-005
 PAO|CG| trace_G_prev    2.2426540524291447E-004
 PAO|CG| trace_G_mix    7.2932722264961478E-007
 PAO|CG| trace_D    3.1685003131901995E-004
 PAO|CG| trace_D_Gnew  -3.6349660440653088E-007
 PAO|CG| beta:   0.35844471891385005     
 PAO| norm of gradient:   9.0064464339186939E-003
 PAO| energy improvement:  -5.0017182287476203E-005
 PAO| step     25                   -7.812090600  0.563E-03  0.443E+00     0.085
 PAO|LS| adapt:  T F F
 PAO|LS| adapt: scan_steps:    0.0000000000000000        0.0000000000000000        0.0000000000000000     
 PAO|LS| adapt: energies:   -7.8120905997754342        0.0000000000000000        0.0000000000000000     
 PAO| ======================= Iteration:        26 =============================

     Lanczos converged:  T threshold:   0.100E-02
     Est. extremal eigenvalues:    0.276E+01   0.182E+00
     Est. condition number :    0.151E+02
     NS sqrt iter    1 1.00000000   0.705E+00       0.002       41.151
     NS sqrt iter    2 1.00000000   0.330E+00       0.002       65.077
     NS sqrt iter    3 1.00000000   0.751E-01       0.002       65.152
     NS sqrt iter    4 1.00000000   0.179E-02       0.002       65.743
     NS sqrt iter    5 1.00000000   0.490E-07       0.002       46.942
     Final NS sqrt iter    5 1.00000000   0.418E-09

     Est. extremal eigenvalues     -0.93801     1.68726  converged:  T
     TRS4 it   1 1.00000000   0.866E+00       0.001       16.128   0.100E-07
     TRS4 it   2 1.00000000   0.613E+00       0.001       32.256   0.100E-07
     TRS4 it   3 1.00000000   0.418E+00       0.001       32.256   0.100E-07
     TRS4 it   4 1.00000000   0.211E+00       0.001       32.121   0.100E-07
     TRS4 it   5 1.00000000   0.669E-01       0.001       32.204   0.100E-07
     TRS4 it   6 1.00000000   0.844E-02       0.001       32.256   0.100E-07
     TRS4 it   7 1.00000000   0.180E-03       0.001       32.256   0.100E-07
     TRS4 it   8 1.00000000   0.115E-06       0.001       32.256   0.100E-07
     TRS4 it   9 1.00000000   0.571E-13       0.001       32.256   0.100E-07
     Final TRS4 iteration    9 1.00000000   0.571E-13
     Chemical potential (mu):       0.01140
 
 PAO| energy:  -7.8120948536521935      penalty:   1.3096209491357758E-005
 PAO|LS| adapt:  T T F
 PAO|LS| adapt: scan_steps:    0.0000000000000000       0.44349092287297692        0.0000000000000000     
 PAO|LS| adapt: energies:   -7.8120905997754342       -7.8120948536521935        0.0000000000000000     
 PAO| ======================= Iteration:        27 =============================

     Lanczos converged:  T threshold:   0.100E-02
     Est. extremal eigenvalues:    0.276E+01   0.182E+00
     Est. condition number :    0.151E+02
     NS sqrt iter    1 1.00000000   0.705E+00       0.002       39.833
     NS sqrt iter    2 1.00000000   0.330E+00       0.002       64.660
     NS sqrt iter    3 1.00000000   0.750E-01       0.002       64.872
     NS sqrt iter    4 1.00000000   0.178E-02       0.002       65.323
     NS sqrt iter    5 1.00000000   0.486E-07       0.002       45.919
     Final NS sqrt iter    5 1.00000000   0.431E-09

     Est. extremal eigenvalues     -0.93801     1.68673  converged:  T
     TRS4 it   1 1.00000000   0.866E+00       0.001       16.128   0.100E-07
     TRS4 it   2 1.00000000   0.613E+00       0.001       32.256   0.100E-07
     TRS4 it   3 1.00000000   0.418E+00       0.001       32.256   0.100E-07
     TRS4 it   4 1.00000000   0.211E+00       0.001       32.256   0.100E-07
     TRS4 it   5 1.00000000   0.668E-01       0.001       32.256   0.100E-07
     TRS4 it   6 1.00000000   0.841E-02       0.001       32.256   0.100E-07
     TRS4 it   7 1.00000000   0.179E-03       0.001       32.256   0.100E-07
     TRS4 it   8 1.00000000   0.113E-06       0.001       32.256   0.100E-07
     TRS4 it   9 1.00000000   0.551E-13       0.001       32.256   0.100E-07
     Final TRS4 iteration    9 1.00000000   0.551E-13
     Chemical potential (mu):       0.01154
 
 PAO| energy:  -7.8120354422675105      penalty:   1.2393472352584162E-005
 PAO|LS| adapt:  T T T
 PAO|LS| adapt: scan_steps:    0.0000000000000000       0.44349092287297692       0.88698184574595385     
 PAO|LS| adapt: energies:   -7.8120905997754342       -7.8120948536521935       -7.8120354422675105     
 PAO|LS| adapt: suggested step_size:   0.25137788085996510     
 PAO|LS| adapt: predicted energy  -7.8121008269856320     
 PAO| ======================= Iteration:        28 =============================

     Lanczos converged:  T threshold:   0.100E-02
     Est. extremal eigenvalues:    0.276E+01   0.182E+00
     Est. condition number :    0.152E+02
     NS sqrt iter    1 1.00000000   0.705E+00       0.002       40.850
     NS sqrt iter    2 1.00000000   0.330E+00       0.002       64.122
     NS sqrt iter    3 1.00000000   0.752E-01       0.002       65.749
     NS sqrt iter    4 1.00000000   0.179E-02       0.002       65.306
     NS sqrt iter    5 1.00000000   0.492E-07       0.002       46.486
     Final NS sqrt iter    5 1.00000000   0.421E-09

     Est. extremal eigenvalues     -0.93801     1.68748  converged:  T
     TRS4 it   1 1.00000000   0.866E+00       0.001       16.128   0.100E-07
     TRS4 it   2 1.00000000   0.613E+00       0.001       32.256   0.100E-07
     TRS4 it   3 1.00000000   0.418E+00       0.001       32.256   0.100E-07
     TRS4 it   4 1.00000000   0.211E+00       0.001       32.256   0.100E-07
     TRS4 it   5 1.00000000   0.670E-01       0.001       32.256   0.100E-07
     TRS4 it   6 1.00000000   0.845E-02       0.001       32.256   0.100E-07
     TRS4 it   7 1.00000000   0.181E-03       0.001       32.256   0.100E-07
     TRS4 it   8 1.00000000   0.116E-06       0.001       32.256   0.100E-07
     TRS4 it   9 1.00000000   0.586E-13       0.001       32.256   0.100E-07
     Final TRS4 iteration    9 1.00000000   0.586E-13
     Chemical potential (mu):       0.01134
 
 PAO| energy:  -7.8121008174397195      penalty:   1.3408082199405342E-005
 PAO|CG| trace_G_new    3.2906653115435642E-005
 PAO|CG| trace_G_prev    8.1116077367046757E-005
 PAO|CG| trace_G_mix    5.4742344414111819E-008
 PAO|CG| trace_D    1.2208638531086569E-004
 PAO|CG| trace_D_Gnew  -2.6568764133932501E-008
 PAO|CG| beta:   0.40499876026263015     
 PAO| norm of gradient:   5.7364320893248310E-003
 PAO| energy improvement:  -1.0217664285327999E-005
 PAO| step     28                   -7.812100817  0.359E-03  0.251E+00     0.082
 PAO|LS| adapt:  T F F
 PAO|LS| adapt: scan_steps:    0.0000000000000000        0.0000000000000000        0.0000000000000000     
 PAO|LS| adapt: energies:   -7.8121008174397195        0.0000000000000000        0.0000000000000000     
 PAO| ======================= Iteration:        29 =============================

     Lanczos converged:  T threshold:   0.100E-02
     Est. extremal eigenvalues:    0.276E+01   0.182E+00
     Est. condition number :    0.151E+02
     NS sqrt iter    1 1.00000000   0.705E+00       0.002       40.495
     NS sqrt iter    2 1.00000000   0.330E+00       0.002       62.841
     NS sqrt iter    3 1.00000000   0.751E-01       0.002       63.650
     NS sqrt iter    4 1.00000000   0.179E-02       0.002       63.609
     NS sqrt iter    5 1.00000000   0.490E-07       0.002       45.497
     Final NS sqrt iter    5 1.00000000   0.418E-09

     Est. extremal eigenvalues     -0.93801     1.68732  converged:  T
     TRS4 it   1 1.00000000   0.866E+00       0.001       16.128   0.100E-07
     TRS4 it   2 1.00000000   0.613E+00       0.001       32.256   0.100E-07
     TRS4 it   3 1.00000000   0.418E+00       0.001       32.256   0.100E-07
     TRS4 it   4 1.00000000   0.211E+00       0.001       29.729   0.100E-07
     TRS4 it   5 1.00000000   0.669E-01       0.001       32.256   0.100E-07
     TRS4 it   6 1.00000000   0.843E-02       0.001       32.256   0.100E-07
     TRS4 it   7 1.00000000   0.179E-03       0.001       32.256   0.100E-07
     TRS4 it   8 1.00000000   0.114E-06       0.001       32.256   0.100E-07
     TRS4 it   9 1.00000000   0.566E-13       0.001       32.256   0.100E-07
     Final TRS4 iteration    9 1.00000000   0.566E-13
     Chemical potential (mu):       0.01148
 
 PAO| energy:  -7.8121080899350801      penalty:   1.2970919651917731E-005
 PAO|LS| adapt:  T T F
 PAO|LS| adapt: scan_steps:    0.0000000000000000       0.25137788085996510        0.0000000000000000     
 PAO|LS| adapt: energies:   -7.8121008174397195       -7.8121080899350801        0.0000000000000000     
 PAO| ======================= Iteration:        30 =============================

     Lanczos converged:  T threshold:   0.100E-02
     Est. extremal eigenvalues:    0.276E+01   0.182E+00
     Est. condition number :    0.151E+02
     NS sqrt iter    1 1.00000000   0.705E+00       0.002       41.024
     NS sqrt iter    2 1.00000000   0.330E+00       0.002       65.680
     NS sqrt iter    3 1.00000000   0.750E-01       0.002       65.141
     NS sqrt iter    4 1.00000000   0.179E-02       0.002       64.913
     NS sqrt iter    5 1.00000000   0.489E-07       0.002       47.334
     Final NS sqrt iter    5 1.00000000   0.434E-09

     Est. extremal eigenvalues     -0.93801     1.68714  converged:  T
     TRS4 it   1 1.00000000   0.866E+00       0.001       16.128   0.100E-07
     TRS4 it   2 1.00000000   0.613E+00       0.001       32.256   0.100E-07
     TRS4 it   3 1.00000000   0.418E+00       0.001       32.256   0.100E-07
     TRS4 it   4 1.00000000   0.211E+00       0.001       32.256   0.100E-07
     TRS4 it   5 1.00000000   0.668E-01       0.001       32.256   0.100E-07
     TRS4 it   6 1.00000000   0.840E-02       0.001       32.256   0.100E-07
     TRS4 it   7 1.00000000   0.178E-03       0.001       32.256   0.100E-07
     TRS4 it   8 1.00000000   0.112E-06       0.001       32.256   0.100E-07
     TRS4 it   9 1.00000000   0.550E-13       0.001       32.256   0.100E-07
     Final TRS4 iteration    9 1.00000000   0.550E-13
     Chemical potential (mu):       0.01163
 
 PAO| energy:  -7.8121133584072222      penalty:   1.2541867639959037E-005
 PAO|LS| adapt:  T T F
 PAO|LS| adapt: scan_steps:    0.0000000000000000       0.50275576171993019        0.0000000000000000     
 PAO|LS| adapt: energies:   -7.8121008174397195       -7.8121133584072222        0.0000000000000000     
 PAO| ======================= Iteration:        31 =============================

     Lanczos converged:  T threshold:   0.100E-02
     Est. extremal eigenvalues:    0.276E+01   0.182E+00
     Est. condition number :    0.151E+02
     NS sqrt iter    1 1.00000000   0.705E+00       0.002       41.707
     NS sqrt iter    2 1.00000000   0.329E+00       0.002       65.868
     NS sqrt iter    3 1.00000000   0.749E-01       0.002       66.287
     NS sqrt iter    4 1.00000000   0.178E-02       0.002       66.396
     NS sqrt iter    5 1.00000000   0.486E-07       0.002       45.680
     Final NS sqrt iter    5 1.00000000   0.427E-09

     Est. extremal eigenvalues     -0.93801     1.68680  converged:  T
     TRS4 it   1 1.00000000   0.866E+00       0.001       16.128   0.100E-07
     TRS4 it   2 1.00000000   0.613E+00       0.001       32.256   0.100E-07
     TRS4 it   3 1.00000000   0.418E+00       0.001       32.256   0.100E-07
     TRS4 it   4 1.00000000   0.211E+00       0.001       32.256   0.100E-07
     TRS4 it   5 1.00000000   0.666E-01       0.001       32.256   0.100E-07
     TRS4 it   6 1.00000000   0.835E-02       0.001       32.256   0.100E-07
     TRS4 it   7 1.00000000   0.176E-03       0.001       32.256   0.100E-07
     TRS4 it   8 1.00000000   0.109E-06       0.001       32.256   0.100E-07
     TRS4 it   9 1.00000000   0.517E-13       0.001       32.256   0.100E-07
     Final TRS4 iteration    9 1.00000000   0.517E-13
     Chemical potential (mu):       0.01192
 
 PAO| energy:  -7.8121178857109124      penalty:   1.1707922582271165E-005
 PAO|LS| Need extra step
 PAO|LS| adapt:  T T F
 PAO|LS| adapt: scan_steps:    0.0000000000000000        1.0055115234398604        0.0000000000000000     
 PAO|LS| adapt: energies:   -7.8121008174397195       -7.8121178857109124        0.0000000000000000     
 PAO| ======================= Iteration:        32 =============================

     Lanczos converged:  T threshold:   0.100E-02
     Est. extremal eigenvalues:    0.275E+01   0.182E+00
     Est. condition number :    0.151E+02
     NS sqrt iter    1 1.00000000   0.704E+00       0.001       59.396
     NS sqrt iter    2 1.00000000   0.329E+00       0.001       78.780
     NS sqrt iter    3 1.00000000   0.746E-01       0.002       67.773
     NS sqrt iter    4 1.00000000   0.177E-02       0.002       63.663
     NS sqrt iter    5 1.00000000   0.481E-07       0.026        2.800
     Final NS sqrt iter    5 1.00000000   0.421E-09

     Est. extremal eigenvalues     -0.93802     1.68609  converged:  T
     TRS4 it   1 1.00000000   0.866E+00       0.001       16.128   0.100E-07
     TRS4 it   2 1.00000000   0.613E+00       0.001       32.256   0.100E-07
     TRS4 it   3 1.00000000   0.417E+00       0.014        2.363   0.100E-07
     TRS4 it   4 1.00000000   0.210E+00       0.001       32.256   0.100E-07
     TRS4 it   5 1.00000000   0.662E-01       0.001       32.256   0.100E-07
     TRS4 it   6 1.00000000   0.825E-02       0.001       30.462   0.100E-07
     TRS4 it   7 1.00000000   0.171E-03       0.001       27.946   0.100E-07
     TRS4 it   8 1.00000000   0.103E-06       0.001       27.510   0.100E-07
     TRS4 it   9 1.00000000   0.453E-13       0.001       32.256   0.100E-07
     Final TRS4 iteration    9 1.00000000   0.453E-13
     Chemical potential (mu):       0.01251
 
 PAO| energy:  -7.8121029116050122      penalty:   1.0135471911919410E-005
 PAO|LS| Need extra step
 PAO|LS| adapt:  T T T
 PAO|LS| adapt: scan_steps:    0.0000000000000000        1.0055115234398604        2.0110230468797208     
 PAO|LS| adapt: energies:   -7.8121008174397195       -7.8121178857109124       -7.8121029116050122     
 PAO|LS| adapt: suggested step_size:    1.0383696869855872     
 PAO|LS| adapt: predicted energy  -7.8121179028192262     
 PAO| ======================= Iteration:        33 =============================

     Lanczos converged:  T threshold:   0.100E-02
     Est. extremal eigenvalues:    0.276E+01   0.182E+00
     Est. condition number :    0.151E+02
     NS sqrt iter    1 1.00000000   0.704E+00       0.001       43.256
     NS sqrt iter    2 1.00000000   0.329E+00       0.007       16.118
     NS sqrt iter    3 1.00000000   0.749E-01       0.003       32.531
     NS sqrt iter    4 1.00000000   0.178E-02       0.002       67.090
     NS sqrt iter    5 1.00000000   0.486E-07       0.001       50.334
     Final NS sqrt iter    5 1.00000000   0.427E-09

     Est. extremal eigenvalues     -0.93801     1.68678  converged:  T
     TRS4 it   1 1.00000000   0.866E+00       0.001       16.128   0.100E-07
     TRS4 it   2 1.00000000   0.613E+00       0.001       32.256   0.100E-07
     TRS4 it   3 1.00000000   0.418E+00       0.001       32.256   0.100E-07
     TRS4 it   4 1.00000000   0.211E+00       0.001       32.256   0.100E-07
     TRS4 it   5 1.00000000   0.665E-01       0.001       32.256   0.100E-07
     TRS4 it   6 1.00000000   0.835E-02       0.001       32.256   0.100E-07
[...]
     NS sqrt iter    2 1.00000000   0.278E+00       0.002       66.060
     NS sqrt iter    3 1.00000000   0.492E-01       0.002       66.747
     NS sqrt iter    4 1.00000000   0.803E-03       0.002       66.457
     NS sqrt iter    5 1.00000000   0.685E-08       0.001       28.720
     Final NS sqrt iter    5 1.00000000   0.397E-09

     Est. extremal eigenvalues     -0.93770     1.62730  converged:  T
     TRS4 it   1 1.00000000   0.876E+00       0.001       16.128   0.100E-07
     TRS4 it   2 1.00000000   0.631E+00       0.001       32.256   0.100E-07
     TRS4 it   3 1.00000000   0.455E+00       0.001       32.256   0.100E-07
     TRS4 it   4 1.00000000   0.279E+00       0.001       32.256   0.100E-07
     TRS4 it   5 1.00000000   0.138E+00       0.001       32.256   0.100E-07
     TRS4 it   6 1.00000000   0.439E-01       0.001       32.256   0.100E-07
     TRS4 it   7 1.00000000   0.625E-02       0.001       32.256   0.100E-07
     TRS4 it   8 1.00000000   0.168E-03       0.001       32.256   0.100E-07
     TRS4 it   9 1.00000000   0.126E-06       0.001       32.256   0.100E-07
     TRS4 it  10 1.00000000   0.713E-13       0.001       32.256   0.100E-07
     Final TRS4 iteration   10 1.00000000   0.713E-13
     Chemical potential (mu):      -0.07777
 
 PAO| energy:  -7.8114021082808165      penalty:   3.0929662127216253E-008
 PAO|LS| Need extra step
 PAO|LS| adapt:  T T T
 PAO|LS| adapt: scan_steps:    0.0000000000000000       0.20000000000000001       0.40000000000000002     
 PAO|LS| adapt: energies:   -7.8114021046625526       -7.8114021096565134       -7.8114021082808165     
 PAO|LS| adapt: suggested step_size:   0.25680468381031452     
 PAO|LS| adapt: predicted energy  -7.8114021099134314     
 PAO| ======================= Iteration:       423 =============================

     Lanczos converged:  T threshold:   0.100E-02
     Est. extremal eigenvalues:    0.252E+01   0.190E+00
     Est. condition number :    0.132E+02
     NS sqrt iter    1 1.00000000   0.638E+00       0.002       42.471
     NS sqrt iter    2 1.00000000   0.278E+00       0.002       66.259
     NS sqrt iter    3 1.00000000   0.492E-01       0.002       66.660
     NS sqrt iter    4 1.00000000   0.803E-03       0.002       66.723
     NS sqrt iter    5 1.00000000   0.685E-08       0.001       28.415
     Final NS sqrt iter    5 1.00000000   0.397E-09

     Est. extremal eigenvalues     -0.93770     1.62730  converged:  T
     TRS4 it   1 1.00000000   0.876E+00       0.001       16.128   0.100E-07
     TRS4 it   2 1.00000000   0.631E+00       0.001       32.256   0.100E-07
     TRS4 it   3 1.00000000   0.455E+00       0.001       32.256   0.100E-07
     TRS4 it   4 1.00000000   0.279E+00       0.001       32.256   0.100E-07
     TRS4 it   5 1.00000000   0.138E+00       0.001       32.256   0.100E-07
     TRS4 it   6 1.00000000   0.439E-01       0.001       32.256   0.100E-07
     TRS4 it   7 1.00000000   0.625E-02       0.001       32.256   0.100E-07
     TRS4 it   8 1.00000000   0.168E-03       0.001       32.256   0.100E-07
     TRS4 it   9 1.00000000   0.126E-06       0.001       32.256   0.100E-07
     TRS4 it  10 1.00000000   0.719E-13       0.001       32.256   0.100E-07
     Final TRS4 iteration   10 1.00000000   0.719E-13
     Chemical potential (mu):      -0.07776
 
 PAO| energy:  -7.8114021099134368      penalty:   3.1290525984801019E-008
 PAO|CG| warming up with steepest descent
 PAO|CG| beta:    0.0000000000000000     
 PAO| norm of gradient:   1.2738051706120496E-004
 PAO| energy improvement:  -5.2508841719145494E-009
 PAO| step    423                   -7.811402110  0.796E-05  0.257E+00     0.108
 PAO| converged after          423  steps :-)
 PAO| Recalculating energy after mixing.

     Lanczos converged:  T threshold:   0.100E-02
     Est. extremal eigenvalues:    0.252E+01   0.190E+00
     Est. condition number :    0.132E+02
     NS sqrt iter    1 1.00000000   0.638E+00       0.002       41.413
     NS sqrt iter    2 1.00000000   0.278E+00       0.002       65.109
     NS sqrt iter    3 1.00000000   0.492E-01       0.002       65.891
     NS sqrt iter    4 1.00000000   0.803E-03       0.002       66.349
     NS sqrt iter    5 1.00000000   0.685E-08       0.001       28.232
     Final NS sqrt iter    5 1.00000000   0.397E-09

     Est. extremal eigenvalues     -0.93770     1.62730  converged:  T
     TRS4 it   1 1.00000000   0.876E+00       0.001       16.128   0.100E-07
     TRS4 it   2 1.00000000   0.631E+00       0.001       32.256   0.100E-07
     TRS4 it   3 1.00000000   0.455E+00       0.001       32.256   0.100E-07
     TRS4 it   4 1.00000000   0.279E+00       0.001       32.256   0.100E-07
     TRS4 it   5 1.00000000   0.138E+00       0.001       32.256   0.100E-07
     TRS4 it   6 1.00000000   0.439E-01       0.001       32.256   0.100E-07
     TRS4 it   7 1.00000000   0.625E-02       0.001       32.256   0.100E-07
     TRS4 it   8 1.00000000   0.168E-03       0.001       32.256   0.100E-07
     TRS4 it   9 1.00000000   0.126E-06       0.001       32.256   0.100E-07
     TRS4 it  10 1.00000000   0.718E-13       0.001       32.256   0.100E-07
     Final TRS4 iteration   10 1.00000000   0.718E-13
     Chemical potential (mu):      -0.07776
 
 PAO| energy:  -7.8114021086006993      penalty:   3.1615884765621076E-008
 PAO| Writing restart file.
     Est. extremal eigenvalues     -0.93770     1.62730  converged:  T
     TRS4 it   1 1.00000000   0.876E+00       0.001       16.128   0.100E-07
     TRS4 it   2 1.00000000   0.631E+00       0.001       32.256   0.100E-07
     TRS4 it   3 1.00000000   0.455E+00       0.001       32.256   0.100E-07
     TRS4 it   4 1.00000000   0.279E+00       0.001       32.256   0.100E-07
     TRS4 it   5 1.00000000   0.138E+00       0.001       32.256   0.100E-07
     TRS4 it   6 1.00000000   0.439E-01       0.001       32.256   0.100E-07
     TRS4 it   7 1.00000000   0.625E-02       0.001       32.256   0.100E-07
     TRS4 it   8 1.00000000   0.168E-03       0.001       32.256   0.100E-07
     TRS4 it   9 1.00000000   0.126E-06       0.001       32.256   0.100E-07
     TRS4 it  10 1.00000000   0.718E-13       0.001       32.256   0.100E-07
     Final TRS4 iteration   10 1.00000000   0.718E-13
     Chemical potential (mu):      -0.07776

 SCF     1       -34.449694515       -34.449694515    2.281834

*********************************************************
 Using MIXING_FRACTION=0.450 to mix KS matrix:  iscf=  2
 KS_nw=0.450*KS + 0.550*KS_old
*********************************************************
     Est. extremal eigenvalues     -0.93770     1.62730  converged:  T
     TRS4 it   1 1.00000000   0.876E+00       0.001       16.128   0.100E-07
     TRS4 it   2 1.00000000   0.631E+00       0.001       32.256   0.100E-07
     TRS4 it   3 1.00000000   0.455E+00       0.001       32.256   0.100E-07
     TRS4 it   4 1.00000000   0.279E+00       0.001       32.256   0.100E-07
     TRS4 it   5 1.00000000   0.138E+00       0.001       32.256   0.100E-07
     TRS4 it   6 1.00000000   0.439E-01       0.001       32.256   0.100E-07
     TRS4 it   7 1.00000000   0.625E-02       0.001       32.256   0.100E-07
     TRS4 it   8 1.00000000   0.168E-03       0.001       32.256   0.100E-07
     TRS4 it   9 1.00000000   0.126E-06       0.001       32.217   0.100E-07
     TRS4 it  10 1.00000000   0.722E-13       0.001       32.256   0.100E-07
     Final TRS4 iteration   10 1.00000000   0.722E-13
     Chemical potential (mu):      -0.07776

 SCF     2       -34.449694515        -0.000000000    2.320984

 PAO| Storing density matrix for ASPC guess in slot:           1

 ENERGY| Total FORCE_EVAL ( QS ) energy (a.u.):              -34.449694515460685


 -------------------------------------------------------------------------------
 -                                                                             -
 -                                DBCSR STATISTICS                             -
 -                                                                             -
 -------------------------------------------------------------------------------
 COUNTER                                    TOTAL       BLAS       SMM       ACC
 flops     5 x     5 x     4                20000     100.0%      0.0%      0.0%
 flops    13 x     5 x     4                20800     100.0%      0.0%      0.0%
 flops     5 x    13 x     4                20800     100.0%      0.0%      0.0%
 flops    13 x    13 x     4                40560     100.0%      0.0%      0.0%
 flops     4 x     4 x     5              3321600     100.0%      0.0%      0.0%
 flops     5 x     4 x     5              4064000     100.0%      0.0%      0.0%
 flops     4 x     4 x    13              4318080     100.0%      0.0%      0.0%
 flops    13 x     4 x     5              5283200     100.0%      0.0%      0.0%
 flops     5 x     4 x    13              5283200     100.0%      0.0%      0.0%
 flops     5 x     4 x     4              6444960     100.0%      0.0%      0.0%
 flops    13 x     4 x    13              6868160     100.0%      0.0%      0.0%
 flops    13 x     4 x     4              8540064     100.0%      0.0%      0.0%
 flops     4 x     4 x     4            430369536     100.0%      0.0%      0.0%
 flops inhomo. stacks                           0       0.0%      0.0%      0.0%
 flops total                       474.594960E+06     100.0%      0.0%      0.0%
 flops max/rank                    474.594960E+06     100.0%      0.0%      0.0%
 matmuls inhomo. stacks                         0       0.0%      0.0%      0.0%
 matmuls total                            3500142     100.0%      0.0%      0.0%
 number of processed stacks                 27892     100.0%      0.0%      0.0%
 average stack size                                   125.5       0.0       0.0
 marketing flops                   772.251648E+06
 -------------------------------------------------------------------------------
 # multiplications                          23336
 max memory usage/rank             329.998336E+06
 # max total images/rank                        1
 # max 3D layers                                1
 # MPI messages exchanged                       0
 MPI messages size (bytes):
  total size                         0.000000E+00
  min size                           0.000000E+00
  max size                           0.000000E+00
  average size                       0.000000E+00
 MPI breakdown and total messages size (bytes):
             size <=      128                   0                        0
       128 < size <=     8192                   0                        0
      8192 < size <=    32768                   0                        0
     32768 < size <=   131072                   0                        0
    131072 < size <=  4194304                   0                        0
   4194304 < size <= 16777216                   0                        0
  16777216 < size                               0                        0
 -------------------------------------------------------------------------------

 MEMORY| Estimated peak process memory [MiB]                                 315

 -------------------------------------------------------------------------------
 -                                                                             -
 -                           R E F E R E N C E S                               -
 -                                                                             -
 -------------------------------------------------------------------------------
 
 CP2K version 7.0 (Development Version), the CP2K developers group (2018).
 CP2K is freely available from https://www.cp2k.org/ .

 Schuett, O; VandeVondele, J. 
 Journal of Chemical Theory and Computation, 14, (2018). 
 Machine Learning Adaptive Basis Sets for Efficient Large Scale Density Functional Theory Simulation.
 https://dx.doi.org/10.1021/acs.jctc.8b00378


 Schuett, Ole; Messmer, Peter; Hutter, Juerg; VandeVondele, Joost. 
 Electronic Structure Calculations on Graphics Processing Units, John Wiley & Sons, Ltd, 173-190 (2016). 
 GPU-Accelerated Sparse Matrix-Matrix Multiplication for Linear Scaling Density Functional Theory.
 https://dx.doi.org/10.1002/9781118670712.ch8


 Borstnik, U; VandeVondele, J; Weber, V; Hutter, J. 
 PARALLEL COMPUTING, 40 (5-6), 47-58 (2014). 
 Sparse matrix multiplication: The distributed block-compressed sparse
 row library.
 https://dx.doi.org/10.1016/j.parco.2014.03.012


 Hutter, J; Iannuzzi, M; Schiffmann, F; VandeVondele, J. 
 WILEY INTERDISCIPLINARY REVIEWS-COMPUTATIONAL MOLECULAR SCIENCE, 4 (1), 15-25 (2014). 
 CP2K: atomistic simulations of condensed matter systems.
 https://dx.doi.org/10.1002/wcms.1159


 VandeVondele, J; Borstnik, U; Hutter, J. 
 JOURNAL OF CHEMICAL THEORY AND COMPUTATION, 8 (10), 3565-3573 (2012). 
 Linear Scaling Self-Consistent Field Calculations with Millions of Atoms
 in the Condensed Phase.
 https://dx.doi.org/10.1021/ct200897x


 VandeVondele, J; Hutter, J. 
 JOURNAL OF CHEMICAL PHYSICS, 127 (11), 114105 (2007). 
 Gaussian basis sets for accurate calculations on molecular systems in
 gas and condensed phases.
 https://dx.doi.org/10.1063/1.2770708


 Krack, M. 
 THEORETICAL CHEMISTRY ACCOUNTS, 114 (1-3), 145-152 (2005). 
 Pseudopotentials for H to Kr optimized for gradient-corrected
 exchange-correlation functionals.
 https://dx.doi.org/10.1007/s00214-005-0655-y


 VandeVondele, J; Krack, M; Mohamed, F; Parrinello, M; Chassaing, T;
 Hutter, J. COMPUTER PHYSICS COMMUNICATIONS, 167 (2), 103-128 (2005). 
 QUICKSTEP: Fast and accurate density functional calculations using a
 mixed Gaussian and plane waves approach.
 https://dx.doi.org/10.1016/j.cpc.2004.12.014


 Frigo, M; Johnson, SG. 
 PROCEEDINGS OF THE IEEE, 93 (2), 216-231 (2005). 
 The design and implementation of FFTW3.
 https://dx.doi.org/10.1109/JPROC.2004.840301


 Niklasson, AMN; Tymczak, CJ; Challacombe, M. 
 JOURNAL OF CHEMICAL PHYSICS, 118 (19), 8611-8620 (2003). 
 Trace resetting density matrix purification in O(N)
 self-consistent-field theory.
 https://dx.doi.org/10.1063/1.1559913


 Hartwigsen, C; Goedecker, S; Hutter, J. 
 PHYSICAL REVIEW B, 58 (7), 3641-3662 (1998). 
 Relativistic separable dual-space Gaussian pseudopotentials from H to Rn.
 https://dx.doi.org/10.1103/PhysRevB.58.3641


 Lippert, G; Hutter, J; Parrinello, M. 
 MOLECULAR PHYSICS, 92 (3), 477-487 (1997). 
 A hybrid Gaussian and plane wave density functional scheme.
 https://dx.doi.org/10.1080/002689797170220


 Perdew, JP; Burke, K; Ernzerhof, M. 
 PHYSICAL REVIEW LETTERS, 77 (18), 3865-3868 (1996). 
 Generalized gradient approximation made simple.
 https://dx.doi.org/10.1103/PhysRevLett.77.3865


 Goedecker, S; Teter, M; Hutter, J. 
 PHYSICAL REVIEW B, 54 (3), 1703-1710 (1996). 
 Separable dual-space Gaussian pseudopotentials.
 https://dx.doi.org/10.1103/PhysRevB.54.1703


 -------------------------------------------------------------------------------
 -                                                                             -
 -                                T I M I N G                                  -
 -                                                                             -
 -------------------------------------------------------------------------------
 SUBROUTINE                       CALLS  ASD         SELF TIME        TOTAL TIME
                                MAXIMUM       AVERAGE  MAXIMUM  AVERAGE  MAXIMUM
 CP2K                                 1  1.0    0.036    0.036   35.862   35.862
 qs_energies                          1  2.0    0.000    0.000   35.317   35.317
 ls_scf                               1  3.0    0.000    0.000   35.164   35.164
 ls_scf_main                          4  4.0    0.001    0.001   20.641   20.641
 ls_scf_dm_to_ks                      9  5.0    0.000    0.000   20.518   20.518
 qs_ks_update_qs_env                 10  6.0    0.000    0.000   16.164   16.164
 rebuild_ks_matrix                   10  7.0    0.000    0.000   16.164   16.164
 qs_ks_build_kohn_sham_matrix        10  8.0    0.001    0.001   16.164   16.164
 pao_update                           4  4.0    0.012    0.012   11.898   11.898
 pao_calc_energy                    426  5.0    0.005    0.005   10.715   10.715
 qs_vxc_create                       10  9.0    0.000    0.000    9.795    9.795
 xc_vxc_pw_create                    10 10.0    0.123    0.123    9.795    9.795
 dbcsr_multiply_generic           23336  8.4    0.545    0.545    9.213    9.213
 xc_rho_set_and_dset_create          10 11.0    0.034    0.034    7.199    7.199
 qs_rho_update_rho                   10  6.0    0.000    0.000    6.898    6.898
 calculate_rho_elec                  10  7.0    5.496    5.496    6.898    6.898
 pw_transfer                        191 10.6    0.014    0.014    6.547    6.547
 fft_wrap_pw1pw2                    171 11.7    0.002    0.002    6.457    6.457
 fft_wrap_pw1pw2_200                111 12.8    0.322    0.322    6.189    6.189
 pao_dm_trs4                        426  6.0    0.004    0.004    5.549    5.549
 sum_up_and_integrate                10  9.0    0.017    0.017    5.451    5.451
 integrate_v_rspace                  10 10.0    4.719    4.719    5.434    5.434
 density_matrix_trs4                435  7.0    0.193    0.193    5.360    5.360
 ls_scf_init_matrix_S               430  7.0    0.004    0.004    5.159    5.159
 pao_rebuild_S                      426  6.0    0.003    0.003    5.116    5.116
 xc_functional_eval                  10 12.0    0.000    0.000    5.101    5.101
 pbe_lda_eval                        10 13.0    5.101    5.101    5.101    5.101
 matrix_sqrt_Newton_Schulz          430  8.0    0.119    0.119    4.662    4.662
 multiply_cannon                  23336  9.4    1.424    1.424    4.373    4.373
 fft3d_s                            172 13.6    3.498    3.498    3.511    3.511
 make_m2s                         46672  9.4    0.207    0.207    2.922    2.922
 make_images                      46672 10.4    0.698    0.698    2.584    2.584
 pao_guess_initial_P                  1  4.0    0.000    0.000    2.552    2.552
 pao_read_preopt_dm                   1  5.0    0.000    0.000    2.552    2.552
 multiply_cannon_multrec          23336 10.4    1.608    1.608    1.750    1.750
 pw_gather_s                         81 13.1    1.515    1.515    1.515    1.515
 density_rs2pw                       10  8.0    0.001    0.001    1.389    1.389
 arnoldi_extremal                   865  8.5    0.005    0.005    1.287    1.287
 arnoldi_normal_ev                  865  9.5    0.014    0.014    1.283    1.283
 pao_calc_AB                        562  5.8    0.001    0.001    1.162    1.162
 pao_calc_AB_direct                 562  6.8    0.033    0.033    1.161    1.161
 pao_calc_grad_lnv_wrt_AB           135  7.0    0.009    0.009    1.095    1.095
 pw_scatter_s                        90 14.2    1.094    1.094    1.094    1.094
 build_subspace                     865 10.5    0.065    0.065    0.962    0.962
 dbcsr_matrix_vector_mult         20707 11.5    0.127    0.127    0.869    0.869
 dbcsr_finalize                   55635  9.6    0.143    0.143    0.847    0.847
 dbcsr_create_new                178453 10.7    0.406    0.406    0.775    0.775
 -------------------------------------------------------------------------------

 The number of warnings for this run is : 0
 
 -------------------------------------------------------------------------------
  **** **** ******  **  PROGRAM ENDED AT                 2019-03-28 17:32:53.442
 ***** ** ***  *** **   PROGRAM RAN ON            oleschuett.zrh.corp.google.com
 **    ****   ******    PROGRAM RAN BY                                oleschuett
 ***** **    ** ** **   PROGRAM PROCESS ID                                 30664
  **** **  *******  **  PROGRAM STOPPED IN /usr/local/google/home/oleschuett/git
                                           /pao_ml_equivar/2H2O_rotations/phi_10
