 DBCSR| CPU Multiplication driver                                           XSMM (U)
 DBCSR| Multrec recursion limit                                              512 (U)
 DBCSR| Multiplication stack size                                           1000 (D)
 DBCSR| Maximum elements for images                                    UNLIMITED (U)
 DBCSR| Multiplicative factor virtual images                                   1 (U)
 DBCSR| Use multiplication densification                                       T (D)
 DBCSR| Multiplication size stacks                                             3 (U)
 DBCSR| Use memory pool for CPU allocation                                     F (U)
 DBCSR| OMP: Current number of threads                                         1
 DBCSR| OMP: Max number of threads                                             1
 DBCSR| Split modifier for TAS multiplication algorithm                  1.0E+00 (U)


  **** **** ******  **  PROGRAM STARTED AT               2023-02-01 10:43:54.932
 ***** ** ***  *** **   PROGRAM STARTED ON                                moritz
 **    ****   ******    PROGRAM STARTED BY                                   ole
 ***** **    ** ** **   PROGRAM PROCESS ID                                148520
  **** **  *******  **  PROGRAM STARTED IN /home/ole/git/pao_ml_equivar/2H2O_rot
                                           ations/rand_16

 CP2K| version string:                 CP2K version 2023.1 (Development Version)
 CP2K| source code revision number:                                  git:03b4147
 CP2K| cp2kflags: omp libint fftw3 libxc quip xsmm spglib libvori libbqb libtorc
 CP2K|            h
 CP2K| is freely available from                            https://www.cp2k.org/
 CP2K| Program compiled at                           Mi 01 Feb 2023 10:36:52 CET
 CP2K| Program compiled on                                                moritz
 CP2K| Program compiled for                                                local
 CP2K| Data directory path                               /home/ole/git/cp2k/data
 CP2K| Input file name                                            2H2O_pao44.inp

 GLOBAL| Force Environment number                                              1
 GLOBAL| Basis set file name                                        BASIS_MOLOPT
 GLOBAL| Potential file name                                      GTH_POTENTIALS
 GLOBAL| MM Potential file name                                     MM_POTENTIAL
 GLOBAL| Coordinate file name                                         coords.xyz
 GLOBAL| Method name                                                        CP2K
 GLOBAL| Project name                                                 2H2O_pao44
 GLOBAL| Run type                                                         ENERGY
 GLOBAL| FFT library                                                       FFTW3
 GLOBAL| Diagonalization library                                       ScaLAPACK
 GLOBAL| DGEMM library                                                      BLAS
 GLOBAL| Orthonormality check for eigenvectors                          DISABLED
 GLOBAL| Matrix multiplication library                                 ScaLAPACK
 GLOBAL| All-to-all communication in single precision                          F
 GLOBAL| FFTs using library dependent lengths                                  F
 GLOBAL| Grid backend                                                       AUTO
 GLOBAL| Global print level                                                  LOW
 GLOBAL| MPI I/O enabled                                                       T
 GLOBAL| Total number of message passing processes                             1
 GLOBAL| Number of threads for this process                                    1
 GLOBAL| This output is from process                                           0
 GLOBAL| Stack size for threads created by OpenMP (OMP_STACKSIZE)        default
 GLOBAL| CPU model name           AMD Ryzen Threadripper 3970X 32-Core Processor
 GLOBAL| CPUID                                                              1002
 GLOBAL| Compiled for CPUID                                                    0

 *** HINT in environment.F:884 :: The compiler target flags (generic) used ***
 *** to build this binary cannot exploit all extensions of this CPU model  ***
 *** (x86_avx2). Consider compiler target flags as part of FCFLAGS and     ***
 *** CFLAGS (ARCH file).                                                   ***


 MEMORY| system memory details [Kb]
 MEMORY|                        rank 0           min           max       average
 MEMORY| MemTotal            131773860     131773860     131773860     131773860
 MEMORY| MemFree             115344032     115344032     115344032     115344032
 MEMORY| Buffers                301492        301492        301492        301492
 MEMORY| Cached                7000768       7000768       7000768       7000768
 MEMORY| Slab                   776600        776600        776600        776600
 MEMORY| SReclaimable           330700        330700        330700        330700
 MEMORY| MemLikelyFree       122976992     122976992     122976992     122976992


 GENERATE|  Preliminary Number of Bonds generated:                             0
 GENERATE|  Achieved consistency in connectivity generation.

 *******************************************************************************
 *******************************************************************************
 **                                                                           **
 **     #####                         ##              ##                      **
 **    ##   ##            ##          ##              ##                      **
 **   ##     ##                       ##            ######                    **
 **   ##     ##  ##   ##  ##   #####  ##  ##   ####   ##    #####    #####    **
 **   ##     ##  ##   ##  ##  ##      ## ##   ##      ##   ##   ##  ##   ##   **
 **   ##  ## ##  ##   ##  ##  ##      ####     ###    ##   ######   ######    **
 **    ##  ###   ##   ##  ##  ##      ## ##      ##   ##   ##       ##        **
 **     #######   #####   ##   #####  ##  ##  ####    ##    #####   ##        **
 **           ##                                                    ##        **
 **                                                                           **
 **                                                ... make the atoms dance   **
 **                                                                           **
 **            Copyright (C) by CP2K developers group (2000-2023)             **
 **                      J. Chem. Phys. 152, 194103 (2020)                    **
 **                                                                           **
 *******************************************************************************


 TOTAL NUMBERS AND MAXIMUM NUMBERS

  Total number of            - Atomic kinds:                                   2
                             - Atoms:                                          6
                             - Shell sets:                                     6
                             - Shells:                                        22
                             - Primitive Cartesian functions:                 42
                             - Cartesian basis functions:                     48
                             - Spherical basis functions:                     46

  Maximum angular momentum of- Orbital basis functions:                        2
                             - Local part of the GTH pseudopotential:          2
                             - Non-local part of the GTH pseudopotential:      0

 ------------------------------ Linear scaling SCF -----------------------------
 eps_scf:                                                              0.100E-07
 eps_filter:                                                           0.100E-07
 mixing_fraction:                                                      0.450E+00
 max_scf:                                                                     25
 fixed chemical potential (mu)                                                 F
 has unit metric:                                                              F
 Computing inv(S):                                                             T
 Computing sqrt(S):                                                            T
 Computing S preconditioner                                                    F
 S sqrt method:                                                     NEWTONSCHULZ
 S sqrt order:                                                                 3
 Extrapolation order:                                                          1
 Use single precision matrices                                                 F
 S preconditioner type                                                      NONE
 Polarized Atomic Orbitals (PAO)                                               T
 Purification method                                   Trace resetting 4th order
 Cluster type                                                             ATOMIC
 Computing Chebyshev                                                       FALSE
 Using PAO                                                                     T
 -------------------------------------------------------------------------------

 
 PAO|                                  EPS_PAO                           0.1E-04
 PAO|                                  MIXING                            0.5E+00
 PAO|                                  MAX_PAO                              1000
 PAO|                                  MAX_CYCLES                           1000
 PAO|                                  PARAMETERIZATION              EQUIVARIANT
 PAO|                                  PRECONDITION                            F
 PAO|                                  REGULARIZATION                    0.0E+00
 PAO|                                  EPS_PGF                           0.1E-09
 PAO|                                  PENALTY_DISTANCE                  0.1E+00
 PAO|                                  PENALTY_STRENGTH                  0.5E-02
 PAO|                                  LINPOT_PRECONDITION_DELTA         0.0E+00
 PAO|                                  LINPOT_INITGUESS_DELT             0.0E+00
 PAO|                                  LINPOT_REGULARIZATION_DELTA       0.0E+00
 PAO|                                  LINPOT_REGULARIZATION_STRENGTH    0.0E+00
 PAO|                                  OPTIMIZER                              CG
 PAO|                                  CG_INIT_STEPS                           2
 PAO|                                  CG_RESET_LIMIT                    0.1E+00
 PAO|                                  CHECK_UNITARY_TOL                -0.1E+01
 PAO|                                  CHECK_GRADIENT_TOL               -0.1E+01
 PAO|                                  NUM_GRADIENT_ORDER                      2
 PAO|                                  NUM_GRADIENT_EPS                  0.1E-07
 PAO|                                  PRINT%RESTART%WRITE_CYCLES            100
 PAO|                                  RESTART_FILE 
 PAO|                                  PREOPT_DM_FILE 2H2O_ref_LS_DM_SPIN_1_RESTART.dm
 PAO|                                  MACHINE_LEARNING%METHOD       GAUSSIAN_PR
 PAO|                                  MACHINE_LEARNING%PRIOR               ZERO
 PAO|                                  MACHINE_LEARNING%DESCRIPTOR     POTENTIAL
 PAO|                                  MACHINE_LEARNING%TOLERANCE        0.1E-01
 PAO|                                  MACHINE_LEARNING%GP_NOISE_VAR     0.1E+00
 PAO|                                  MACHINE_LEARNING%GP_SCALE         0.5E-01
 

 Calculating atomic Fock matrix for atomic kind: O

 Electronic structure
    Total number of core electrons                                          2.00
    Total number of valence electrons                                       6.00
    Total number of electrons                                               8.00
    Multiplicity                                                   not specified
    S   [  2.00] 2.00
    P      4.00


 *******************************************************************************
                  Iteration          Convergence                     Energy [au]
 *******************************************************************************
                          1        0.708315                     -15.576645311500
                          2        0.608879                     -15.587933561584
                          3        0.102828E-01                 -15.656849565404
                          4        0.113889E-02                 -15.656866888140
                          5        0.434197E-03                 -15.656867072159
                          6        0.263771E-03                 -15.656867091904
                          7        0.478536E-06                 -15.656867103452

 Energy components [Hartree]           Total Energy ::          -15.656867103452
                                        Band Energy ::           -3.000198112285
                                     Kinetic Energy ::           11.759971203220
                                   Potential Energy ::          -27.416838306672
                                      Virial (-V/T) ::            2.331369510426
                                        Core Energy ::          -26.140716385623
                                          XC Energy ::           -3.154051012914
                                     Coulomb Energy ::           13.637900295084
                       Total Pseudopotential Energy ::          -37.935781716540
                       Local Pseudopotential Energy ::          -39.218907440693
                    Nonlocal Pseudopotential Energy ::            1.283125724153
                                        Confinement ::            0.350941276976

 Orbital energies  State     L     Occupation   Energy[a.u.]          Energy[eV]

                       1     0          2.000      -0.864471          -23.523463

                       1     1          4.000      -0.317814           -8.648154


 Total Electron Density at R=0:                                         0.000068

 Calculating atomic Fock matrix for atomic kind: H

 Electronic structure
    Total number of core electrons                                          0.00
    Total number of valence electrons                                       1.00
    Total number of electrons                                               1.00
    Multiplicity                                                   not specified
    S      1.00


 *******************************************************************************
                  Iteration          Convergence                     Energy [au]
 *******************************************************************************
                          1        0.437545E-02                  -0.424159432110
                          2        0.531356E-03                  -0.424178438213
                          3        0.259176E-06                  -0.424178722480

 Energy components [Hartree]           Total Energy ::           -0.424178722480
                                        Band Energy ::           -0.199015229016
                                     Kinetic Energy ::            0.464007633961
                                   Potential Energy ::           -0.888186356441
                                      Virial (-V/T) ::            1.914163240935
                                        Core Energy ::           -0.479160803564
                                          XC Energy ::           -0.244352904054
                                     Coulomb Energy ::            0.299334985138
                       Total Pseudopotential Energy ::           -0.962295316385
                       Local Pseudopotential Energy ::           -0.962295316385
                    Nonlocal Pseudopotential Energy ::            0.000000000000
                                        Confinement ::            0.191268788606

 Orbital energies  State     L     Occupation   Energy[a.u.]          Energy[eV]

                       1     0          1.000      -0.199015           -5.415480


 Total Electron Density at R=0:                                         0.242907
 PAO| Made initial guess for matrix_X with norm:   4.8989794855663558     

     Lanczos converged:  T threshold:   0.100E-02
     Est. extremal eigenvalues:    0.337E+01   0.115E+00
     Est. condition number :    0.293E+02

 Order=           3
     NS sqrt iter    1 1.00000000   0.823E+00       0.001       45.807
     NS sqrt iter    2 1.00000000   0.440E+00       0.001       89.813
     NS sqrt iter    3 1.00000000   0.170E+00       0.001       89.638
     NS sqrt iter    4 1.00000000   0.205E-01       0.001      102.528
     NS sqrt iter    5 1.00000000   0.524E-04       0.001       91.136
     Symmetrizing Results
     Final NS sqrt iter    5 1.00000000   0.488E-08

 PAO| Read restart DM 2H2O_ref_LS_DM_SPIN_1_RESTART.dm with checksum:    68.439329777933040     
 PAO| Quickstep energy from restart density:  -34.450762131935399     
 PAO| ======================= Iteration:         1 =============================

     Lanczos converged:  T threshold:   0.100E-02
     Est. extremal eigenvalues:    0.337E+01   0.115E+00
     Est. condition number :    0.293E+02

 Order=           3
     NS sqrt iter    1 1.00000000   0.823E+00       0.001       64.512
     NS sqrt iter    2 1.00000000   0.440E+00       0.001      110.592
     NS sqrt iter    3 1.00000000   0.170E+00       0.001      110.592
     NS sqrt iter    4 1.00000000   0.205E-01       0.001      110.592
     NS sqrt iter    5 1.00000000   0.524E-04       0.001       91.136
     Symmetrizing Results
     Final NS sqrt iter    5 1.00000000   0.488E-08

     Est. extremal eigenvalues     -0.91805     1.86774  converged:  T
     TRS4 it   1 1.00000000   0.885E+00       0.000       16.128   0.100E-07
     TRS4 it   2 1.00000000   0.687E+00       0.001       32.256   0.100E-07
     TRS4 it   3 1.00000000   0.496E+00       0.001       32.256   0.100E-07
     TRS4 it   4 1.00000000   0.309E+00       0.001       32.256   0.100E-07
     TRS4 it   5 1.00000000   0.153E+00       0.001       32.256   0.100E-07
     TRS4 it   6 1.00000000   0.473E-01       0.001       32.256   0.100E-07
     TRS4 it   7 1.00000000   0.625E-02       0.001       32.256   0.100E-07
     TRS4 it   8 1.00000000   0.154E-03       0.001       32.256   0.100E-07
     TRS4 it   9 1.00000000   0.105E-06       0.001       32.256   0.100E-07
     TRS4 it  10 1.00000000   0.501E-13       0.001       32.256   0.100E-07
     Final TRS4 iteration   10 1.00000000   0.501E-13
     Chemical potential (mu):      -0.06190
 
 PAO| energy:  -7.5938564356589087      penalty:   2.8349688781380110E-033
 PAO|CG| warming up with steepest descent
 PAO|CG| beta:    0.0000000000000000     
 PAO| norm of gradient:  0.78392682066293962     
 PAO|LS| adapt:  T F F
 PAO|LS| adapt: scan_steps:    0.0000000000000000        0.0000000000000000        0.0000000000000000     
 PAO|LS| adapt: energies:   -7.5938564356589087        0.0000000000000000        0.0000000000000000     
 PAO| ======================= Iteration:         2 =============================

     Lanczos converged:  T threshold:   0.100E-02
     Est. extremal eigenvalues:    0.328E+01   0.128E+00
     Est. condition number :    0.257E+02

 Order=           3
     NS sqrt iter    1 1.00000000   0.806E+00       0.001       59.236
     NS sqrt iter    2 1.00000000   0.424E+00       0.001      100.509
     NS sqrt iter    3 1.00000000   0.152E+00       0.001      100.537
     NS sqrt iter    4 1.00000000   0.141E-01       0.001      103.436
     NS sqrt iter    5 1.00000000   0.166E-04       0.001       79.339
     Symmetrizing Results
     Final NS sqrt iter    5 1.00000000   0.413E-09

     Est. extremal eigenvalues     -0.92172     1.81327  converged:  T
     TRS4 it   1 1.00000000   0.881E+00       0.000       16.128   0.100E-07
     TRS4 it   2 1.00000000   0.668E+00       0.001       32.256   0.100E-07
     TRS4 it   3 1.00000000   0.479E+00       0.001       32.256   0.100E-07
     TRS4 it   4 1.00000000   0.289E+00       0.001       32.256   0.100E-07
     TRS4 it   5 1.00000000   0.133E+00       0.001       32.256   0.100E-07
     TRS4 it   6 1.00000000   0.361E-01       0.001       32.256   0.100E-07
     TRS4 it   7 1.00000000   0.370E-02       0.001       32.256   0.100E-07
     TRS4 it   8 1.00000000   0.543E-04       0.001       32.256   0.100E-07
     TRS4 it   9 1.00000000   0.131E-07       0.001       32.256   0.100E-07
     Final TRS4 iteration    9 1.00000000   0.131E-07
     Chemical potential (mu):      -0.04998
 
 PAO| energy:  -7.6494129074205324      penalty:   2.2553160289308141E-008
 PAO|LS| adapt:  T T F
 PAO|LS| adapt: scan_steps:    0.0000000000000000       0.10000000000000001        0.0000000000000000     
 PAO|LS| adapt: energies:   -7.5938564356589087       -7.6494129074205324        0.0000000000000000     
 PAO| ======================= Iteration:         3 =============================

     Lanczos converged:  T threshold:   0.100E-02
     Est. extremal eigenvalues:    0.319E+01   0.139E+00
     Est. condition number :    0.229E+02

 Order=           3
     NS sqrt iter    1 1.00000000   0.788E+00       0.001       59.407
     NS sqrt iter    2 1.00000000   0.408E+00       0.001      103.000
     NS sqrt iter    3 1.00000000   0.135E+00       0.001       99.407
     NS sqrt iter    4 1.00000000   0.970E-02       0.001      100.989
     NS sqrt iter    5 1.00000000   0.548E-05       0.001       77.211
     Symmetrizing Results
     Final NS sqrt iter    5 1.00000000   0.454E-10

     Est. extremal eigenvalues     -0.92515     1.76977  converged:  T
     TRS4 it   1 1.00000000   0.878E+00       0.000       16.128   0.100E-07
     TRS4 it   2 1.00000000   0.652E+00       0.001       32.256   0.100E-07
     TRS4 it   3 1.00000000   0.463E+00       0.001       32.256   0.100E-07
     TRS4 it   4 1.00000000   0.268E+00       0.001       32.256   0.100E-07
     TRS4 it   5 1.00000000   0.115E+00       0.001       32.256   0.100E-07
     TRS4 it   6 1.00000000   0.267E-01       0.001       32.256   0.100E-07
     TRS4 it   7 1.00000000   0.202E-02       0.001       32.256   0.100E-07
     TRS4 it   8 1.00000000   0.163E-04       0.001       32.256   0.100E-07
     TRS4 it   9 1.00000000   0.118E-08       0.001       32.256   0.100E-07
     Final TRS4 iteration    9 1.00000000   0.118E-08
     Chemical potential (mu):      -0.03710
 
 PAO| energy:  -7.6925130033400402      penalty:   3.6085025883159465E-007
 PAO|LS| adapt:  T T F
 PAO|LS| adapt: scan_steps:    0.0000000000000000       0.20000000000000001        0.0000000000000000     
 PAO|LS| adapt: energies:   -7.5938564356589087       -7.6925130033400402        0.0000000000000000     
 PAO| ======================= Iteration:         4 =============================

     Lanczos converged:  T threshold:   0.100E-02
     Est. extremal eigenvalues:    0.299E+01   0.158E+00
     Est. condition number :    0.189E+02

 Order=           3
     NS sqrt iter    1 1.00000000   0.750E+00       0.001       59.274
     NS sqrt iter    2 1.00000000   0.373E+00       0.001      101.573
     NS sqrt iter    3 1.00000000   0.106E+00       0.001       99.990
     NS sqrt iter    4 1.00000000   0.471E-02       0.001      100.018
     NS sqrt iter    5 1.00000000   0.756E-06       0.001       77.193
     Symmetrizing Results
     Final NS sqrt iter    5 1.00000000   0.959E-12

     Est. extremal eigenvalues     -0.93046     1.70754  converged:  T
     TRS4 it   1 1.00000000   0.873E+00       0.000       16.128   0.100E-07
     TRS4 it   2 1.00000000   0.625E+00       0.001       32.256   0.100E-07
     TRS4 it   3 1.00000000   0.433E+00       0.001       32.256   0.100E-07
     TRS4 it   4 1.00000000   0.231E+00       0.001       32.256   0.100E-07
     TRS4 it   5 1.00000000   0.830E-01       0.001       32.256   0.100E-07
     TRS4 it   6 1.00000000   0.136E-01       0.001       32.256   0.100E-07
     TRS4 it   7 1.00000000   0.500E-03       0.001       32.256   0.100E-07
     TRS4 it   8 1.00000000   0.973E-06       0.001       32.256   0.100E-07
     TRS4 it   9 1.00000000   0.422E-11       0.001       32.256   0.100E-07
     Final TRS4 iteration    9 1.00000000   0.422E-11
     Chemical potential (mu):      -0.00891
 
 PAO| energy:  -7.7397450202146558      penalty:   5.7736016949326388E-006
 PAO|LS| Need extra step
 PAO|LS| adapt:  T T F
 PAO|LS| adapt: scan_steps:    0.0000000000000000       0.40000000000000002        0.0000000000000000     
 PAO|LS| adapt: energies:   -7.5938564356589087       -7.7397450202146558        0.0000000000000000     
 PAO| ======================= Iteration:         5 =============================

     Lanczos converged:  T threshold:   0.100E-02
     Est. extremal eigenvalues:    0.263E+01   0.186E+00
     Est. condition number :    0.142E+02

 Order=           3
     NS sqrt iter    1 1.00000000   0.684E+00       0.001       59.501
     NS sqrt iter    2 1.00000000   0.310E+00       0.001      103.794
     NS sqrt iter    3 1.00000000   0.647E-01       0.001      100.963
     NS sqrt iter    4 1.00000000   0.127E-02       0.001       99.373
     NS sqrt iter    5 1.00000000   0.193E-07       0.001       51.726
     Symmetrizing Results
     Final NS sqrt iter    5 1.00000000   0.221E-08

     Est. extremal eigenvalues     -0.93167     1.64125  converged:  T
     TRS4 it   1 1.00000000   0.870E+00       0.000       16.128   0.100E-07
     TRS4 it   2 1.00000000   0.590E+00       0.001       32.256   0.100E-07
     TRS4 it   3 1.00000000   0.384E+00       0.001       32.256   0.100E-07
     TRS4 it   4 1.00000000   0.174E+00       0.001       32.256   0.100E-07
     TRS4 it   5 1.00000000   0.440E-01       0.001       32.256   0.100E-07
     TRS4 it   6 1.00000000   0.348E-02       0.001       32.256   0.100E-07
     TRS4 it   7 1.00000000   0.282E-04       0.001       32.256   0.100E-07
     TRS4 it   8 1.00000000   0.231E-08       0.001       32.256   0.100E-07
     Final TRS4 iteration    8 1.00000000   0.231E-08
     Chemical potential (mu):       0.03927
 
 PAO| energy:  -7.6849061112240546      penalty:   9.2377607547962324E-005
 PAO|LS| Need extra step
 PAO|LS| adapt:  T T T
 PAO|LS| adapt: scan_steps:    0.0000000000000000       0.40000000000000002       0.80000000000000004     
 PAO|LS| adapt: energies:   -7.5938564356589087       -7.7397450202146558       -7.6849061112240546     
 PAO|LS| adapt: suggested step_size:   0.49071968563601132     
 PAO|LS| adapt: predicted energy  -7.7449075189299874     
 PAO| ======================= Iteration:         6 =============================

     Lanczos converged:  T threshold:   0.100E-02
     Est. extremal eigenvalues:    0.290E+01   0.165E+00
     Est. condition number :    0.176E+02

 Order=           3
     NS sqrt iter    1 1.00000000   0.734E+00       0.001       59.592
     NS sqrt iter    2 1.00000000   0.358E+00       0.001      100.413
     NS sqrt iter    3 1.00000000   0.941E-01       0.001      103.485
     NS sqrt iter    4 1.00000000   0.345E-02       0.001       99.673
     NS sqrt iter    5 1.00000000   0.325E-06       0.001       78.020
     Symmetrizing Results
     Final NS sqrt iter    5 1.00000000   0.163E-09

     Est. extremal eigenvalues     -0.93194     1.68725  converged:  T
     TRS4 it   1 1.00000000   0.872E+00       0.000       16.128   0.100E-07
     TRS4 it   2 1.00000000   0.615E+00       0.001       32.256   0.100E-07
     TRS4 it   3 1.00000000   0.420E+00       0.001       32.256   0.100E-07
     TRS4 it   4 1.00000000   0.216E+00       0.001       32.256   0.100E-07
     TRS4 it   5 1.00000000   0.713E-01       0.001       32.256   0.100E-07
     TRS4 it   6 1.00000000   0.980E-02       0.001       32.256   0.100E-07
     TRS4 it   7 1.00000000   0.251E-03       0.001       32.256   0.100E-07
     TRS4 it   8 1.00000000   0.235E-06       0.001       32.256   0.100E-07
     TRS4 it   9 1.00000000   0.244E-12       0.001       32.256   0.100E-07
     Final TRS4 iteration    9 1.00000000   0.244E-12
     Chemical potential (mu):       0.00459
 
 PAO| energy:  -7.7441639188821565      penalty:   1.3077982206473220E-005
 PAO|CG| warming up with steepest descent
 PAO|CG| beta:    0.0000000000000000     
 PAO| norm of gradient:  0.41778428691922709     
 PAO| energy improvement: -0.15030748322324783     
 PAO| step      6                   -7.744163919  0.261E-01  0.491E+00     0.091
 PAO|LS| adapt:  T F F
 PAO|LS| adapt: scan_steps:    0.0000000000000000        0.0000000000000000        0.0000000000000000     
 PAO|LS| adapt: energies:   -7.7441639188821565        0.0000000000000000        0.0000000000000000     
 PAO| ======================= Iteration:         7 =============================

     Lanczos converged:  T threshold:   0.100E-02
     Est. extremal eigenvalues:    0.281E+01   0.179E+00
     Est. condition number :    0.157E+02

 Order=           3
     NS sqrt iter    1 1.00000000   0.716E+00       0.001       58.184
     NS sqrt iter    2 1.00000000   0.337E+00       0.001       98.735
     NS sqrt iter    3 1.00000000   0.784E-01       0.001       99.182
     NS sqrt iter    4 1.00000000   0.206E-02       0.001       99.982
     NS sqrt iter    5 1.00000000   0.775E-07       0.001       70.377
     Symmetrizing Results
     Final NS sqrt iter    5 1.00000000   0.877E-09

     Est. extremal eigenvalues     -0.93364     1.67530  converged:  T
     TRS4 it   1 1.00000000   0.872E+00       0.000       16.128   0.100E-07
     TRS4 it   2 1.00000000   0.614E+00       0.001       32.256   0.100E-07
     TRS4 it   3 1.00000000   0.420E+00       0.001       32.256   0.100E-07
     TRS4 it   4 1.00000000   0.217E+00       0.001       32.256   0.100E-07
     TRS4 it   5 1.00000000   0.720E-01       0.001       32.256   0.100E-07
     TRS4 it   6 1.00000000   0.975E-02       0.001       32.256   0.100E-07
     TRS4 it   7 1.00000000   0.235E-03       0.001       32.256   0.100E-07
     TRS4 it   8 1.00000000   0.196E-06       0.001       32.256   0.100E-07
     TRS4 it   9 1.00000000   0.167E-12       0.001       32.256   0.100E-07
     Final TRS4 iteration    9 1.00000000   0.167E-12
     Chemical potential (mu):       0.00645
 
 PAO| energy:  -7.7381082189315240      penalty:   1.9789722822297259E-005
 PAO|LS| adapt:  T F T
 PAO|LS| adapt: scan_steps:    0.0000000000000000        0.0000000000000000       0.49071968563601132     
 PAO|LS| adapt: energies:   -7.7441639188821565        0.0000000000000000       -7.7381082189315240     
 PAO| ======================= Iteration:         8 =============================

     Lanczos converged:  T threshold:   0.100E-02
     Est. extremal eigenvalues:    0.286E+01   0.172E+00
     Est. condition number :    0.166E+02

 Order=           3
     NS sqrt iter    1 1.00000000   0.725E+00       0.001       59.081
     NS sqrt iter    2 1.00000000   0.347E+00       0.001      101.476
     NS sqrt iter    3 1.00000000   0.861E-01       0.001      100.236
     NS sqrt iter    4 1.00000000   0.268E-02       0.001      100.521
     NS sqrt iter    5 1.00000000   0.162E-06       0.001       75.146
     Symmetrizing Results
     Final NS sqrt iter    5 1.00000000   0.109E-08

     Est. extremal eigenvalues     -0.93377     1.68062  converged:  T
     TRS4 it   1 1.00000000   0.871E+00       0.000       16.128   0.100E-07
     TRS4 it   2 1.00000000   0.614E+00       0.001       32.256   0.100E-07
     TRS4 it   3 1.00000000   0.419E+00       0.001       32.256   0.100E-07
     TRS4 it   4 1.00000000   0.215E+00       0.001       32.256   0.100E-07
     TRS4 it   5 1.00000000   0.715E-01       0.001       32.256   0.100E-07
     TRS4 it   6 1.00000000   0.983E-02       0.001       32.256   0.100E-07
     TRS4 it   7 1.00000000   0.249E-03       0.001       32.256   0.100E-07
     TRS4 it   8 1.00000000   0.228E-06       0.001       32.256   0.100E-07
     TRS4 it   9 1.00000000   0.228E-12       0.001       32.256   0.100E-07
     Final TRS4 iteration    9 1.00000000   0.228E-12
     Chemical potential (mu):       0.00508
 
 PAO| energy:  -7.7638217403745173      penalty:   1.4179742832080377E-005
 PAO|LS| adapt:  T T T
 PAO|LS| adapt: scan_steps:    0.0000000000000000       0.24535984281800566       0.49071968563601132     
 PAO|LS| adapt: energies:   -7.7441639188821565       -7.7638217403745173       -7.7381082189315240     
 PAO|LS| adapt: suggested step_size:   0.22898578937465461     
 PAO|LS| adapt: predicted energy  -7.7639227719384944     
 PAO| ======================= Iteration:         9 =============================

     Lanczos converged:  T threshold:   0.100E-02
     Est. extremal eigenvalues:    0.286E+01   0.172E+00
     Est. condition number :    0.167E+02

 Order=           3
     NS sqrt iter    1 1.00000000   0.725E+00       0.001       58.222
     NS sqrt iter    2 1.00000000   0.348E+00       0.001      100.500
     NS sqrt iter    3 1.00000000   0.866E-01       0.001      102.215
     NS sqrt iter    4 1.00000000   0.273E-02       0.001       99.878
     NS sqrt iter    5 1.00000000   0.170E-06       0.001       74.481
     Symmetrizing Results
     Final NS sqrt iter    5 1.00000000   0.114E-08

     Est. extremal eigenvalues     -0.93371     1.68102  converged:  T
     TRS4 it   1 1.00000000   0.871E+00       0.000       16.128   0.100E-07
     TRS4 it   2 1.00000000   0.614E+00       0.001       32.256   0.100E-07
     TRS4 it   3 1.00000000   0.419E+00       0.001       32.256   0.100E-07
     TRS4 it   4 1.00000000   0.215E+00       0.001       32.256   0.100E-07
     TRS4 it   5 1.00000000   0.714E-01       0.001       32.256   0.100E-07
     TRS4 it   6 1.00000000   0.983E-02       0.001       32.256   0.100E-07
     TRS4 it   7 1.00000000   0.250E-03       0.001       32.256   0.100E-07
     TRS4 it   8 1.00000000   0.229E-06       0.001       32.256   0.100E-07
     TRS4 it   9 1.00000000   0.231E-12       0.001       32.256   0.100E-07
     Final TRS4 iteration    9 1.00000000   0.231E-12
     Chemical potential (mu):       0.00502
 
 PAO| energy:  -7.7639473183357000      penalty:   1.4004858558362054E-005
 PAO|CG| trace_G_new    3.6783299633648479E-002
 PAO|CG| trace_G_prev   0.17454371039660704     
 PAO|CG| trace_G_mix   -1.4502807356419406E-003
 PAO|CG| trace_D   0.17454371039660704     
 PAO|CG| trace_D_Gnew   1.4502807356419406E-003
 PAO|CG| beta:   0.21904874304788266     
 PAO| norm of gradient:  0.19178972765413813     
 PAO| energy improvement:  -1.9783399453543460E-002
 PAO| step      9                   -7.763947318  0.120E-01  0.229E+00     0.057
 PAO|LS| adapt:  T F F
 PAO|LS| adapt: scan_steps:    0.0000000000000000        0.0000000000000000        0.0000000000000000     
 PAO|LS| adapt: energies:   -7.7639473183357000        0.0000000000000000        0.0000000000000000     
 PAO| ======================= Iteration:        10 =============================

     Lanczos converged:  T threshold:   0.100E-02
     Est. extremal eigenvalues:    0.282E+01   0.177E+00
     Est. condition number :    0.159E+02

 Order=           3
     NS sqrt iter    1 1.00000000   0.717E+00       0.001       59.285
     NS sqrt iter    2 1.00000000   0.339E+00       0.001       99.468
     NS sqrt iter    3 1.00000000   0.810E-01       0.001       99.699
     NS sqrt iter    4 1.00000000   0.224E-02       0.001       99.369
     NS sqrt iter    5 1.00000000   0.939E-07       0.001       71.213
     Symmetrizing Results
     Final NS sqrt iter    5 1.00000000   0.107E-08

     Est. extremal eigenvalues     -0.93460     1.67871  converged:  T
     TRS4 it   1 1.00000000   0.870E+00       0.000       16.128   0.100E-07
     TRS4 it   2 1.00000000   0.613E+00       0.001       32.256   0.100E-07
     TRS4 it   3 1.00000000   0.418E+00       0.001       32.256   0.100E-07
     TRS4 it   4 1.00000000   0.213E+00       0.001       32.256   0.100E-07
     TRS4 it   5 1.00000000   0.697E-01       0.001       32.256   0.100E-07
     TRS4 it   6 1.00000000   0.930E-02       0.001       32.256   0.100E-07
     TRS4 it   7 1.00000000   0.220E-03       0.001       32.256   0.100E-07
     TRS4 it   8 1.00000000   0.174E-06       0.001       32.256   0.100E-07
     TRS4 it   9 1.00000000   0.132E-12       0.001       32.256   0.100E-07
     Final TRS4 iteration    9 1.00000000   0.132E-12
     Chemical potential (mu):       0.00801
 
 PAO| energy:  -7.7689778310007531      penalty:   1.4538513461127264E-005
 PAO|LS| adapt:  T T F
 PAO|LS| adapt: scan_steps:    0.0000000000000000       0.22898578937465461        0.0000000000000000     
 PAO|LS| adapt: energies:   -7.7639473183357000       -7.7689778310007531        0.0000000000000000     
 PAO| ======================= Iteration:        11 =============================

     Lanczos converged:  T threshold:   0.100E-02
     Est. extremal eigenvalues:    0.278E+01   0.183E+00
     Est. condition number :    0.152E+02

 Order=           3
     NS sqrt iter    1 1.00000000   0.709E+00       0.001       59.243
     NS sqrt iter    2 1.00000000   0.331E+00       0.001       99.110
     NS sqrt iter    3 1.00000000   0.756E-01       0.001      102.263
     NS sqrt iter    4 1.00000000   0.183E-02       0.001      100.407
     NS sqrt iter    5 1.00000000   0.512E-07       0.001       66.009
     Symmetrizing Results
     Final NS sqrt iter    5 1.00000000   0.362E-09

     Est. extremal eigenvalues     -0.93453     1.67780  converged:  T
     TRS4 it   1 1.00000000   0.870E+00       0.000       16.128   0.100E-07
     TRS4 it   2 1.00000000   0.612E+00       0.001       32.256   0.100E-07
     TRS4 it   3 1.00000000   0.417E+00       0.001       32.256   0.100E-07
     TRS4 it   4 1.00000000   0.211E+00       0.001       32.256   0.100E-07
     TRS4 it   5 1.00000000   0.681E-01       0.001       32.256   0.100E-07
     TRS4 it   6 1.00000000   0.880E-02       0.001       32.256   0.100E-07
     TRS4 it   7 1.00000000   0.194E-03       0.001       32.256   0.100E-07
     TRS4 it   8 1.00000000   0.131E-06       0.001       32.256   0.100E-07
     TRS4 it   9 1.00000000   0.732E-13       0.001       32.256   0.100E-07
     Final TRS4 iteration    9 1.00000000   0.732E-13
     Chemical potential (mu):       0.01111
 
 PAO| energy:  -7.7676098164934269      penalty:   1.5737962678408098E-005
 PAO|LS| adapt:  T T T
 PAO|LS| adapt: scan_steps:    0.0000000000000000       0.22898578937465461       0.45797157874930922     
 PAO|LS| adapt: energies:   -7.7639473183357000       -7.7689778310007531       -7.7676098164934269     
 PAO|LS| adapt: suggested step_size:   0.29452118596955873     
 PAO|LS| adapt: predicted energy  -7.7692398813991099     
 PAO| ======================= Iteration:        12 =============================

     Lanczos converged:  T threshold:   0.100E-02
     Est. extremal eigenvalues:    0.281E+01   0.179E+00
     Est. condition number :    0.157E+02

 Order=           3
     NS sqrt iter    1 1.00000000   0.715E+00       0.001       58.257
     NS sqrt iter    2 1.00000000   0.337E+00       0.001      100.440
     NS sqrt iter    3 1.00000000   0.794E-01       0.001      102.144
     NS sqrt iter    4 1.00000000   0.212E-02       0.001       99.155
     NS sqrt iter    5 1.00000000   0.790E-07       0.001       68.384
     Symmetrizing Results
     Final NS sqrt iter    5 1.00000000   0.702E-09

     Est. extremal eigenvalues     -0.93468     1.67831  converged:  T
     TRS4 it   1 1.00000000   0.870E+00       0.000       16.128   0.100E-07
     TRS4 it   2 1.00000000   0.613E+00       0.001       32.256   0.100E-07
     TRS4 it   3 1.00000000   0.418E+00       0.001       32.256   0.100E-07
     TRS4 it   4 1.00000000   0.213E+00       0.001       32.256   0.100E-07
     TRS4 it   5 1.00000000   0.692E-01       0.001       32.256   0.100E-07
     TRS4 it   6 1.00000000   0.915E-02       0.001       32.256   0.100E-07
     TRS4 it   7 1.00000000   0.212E-03       0.001       32.256   0.100E-07
     TRS4 it   8 1.00000000   0.160E-06       0.001       32.256   0.100E-07
     TRS4 it   9 1.00000000   0.111E-12       0.001       32.256   0.100E-07
     Final TRS4 iteration    9 1.00000000   0.111E-12
     Chemical potential (mu):       0.00889
 
 PAO| energy:  -7.7692236453391024      penalty:   1.4806106777203470E-005
 PAO|CG| trace_G_new    1.1811006290850728E-002
 PAO|CG| trace_G_prev    3.6783299633648479E-002
 PAO|CG| trace_G_mix   -4.5399578980653420E-004
 PAO|CG| trace_D    4.4522953011343895E-002
 PAO|CG| trace_D_Gnew   2.0463875533153347E-004
 PAO|CG| beta:   0.33343941959566709     
 PAO| norm of gradient:  0.10867845366424168     
 PAO| energy improvement:  -5.2763270034024146E-003
 PAO| step     12                   -7.769223645  0.679E-02  0.295E+00     0.058
 PAO|LS| adapt:  T F F
 PAO|LS| adapt: scan_steps:    0.0000000000000000        0.0000000000000000        0.0000000000000000     
 PAO|LS| adapt: energies:   -7.7692236453391024        0.0000000000000000        0.0000000000000000     
 PAO| ======================= Iteration:        13 =============================

     Lanczos converged:  T threshold:   0.100E-02
     Est. extremal eigenvalues:    0.278E+01   0.183E+00
     Est. condition number :    0.151E+02

 Order=           3
     NS sqrt iter    1 1.00000000   0.707E+00       0.001       58.872
     NS sqrt iter    2 1.00000000   0.330E+00       0.001       97.995
     NS sqrt iter    3 1.00000000   0.750E-01       0.001       99.544
     NS sqrt iter    4 1.00000000   0.179E-02       0.001       99.729
     NS sqrt iter    5 1.00000000   0.486E-07       0.001       65.813
     Symmetrizing Results
     Final NS sqrt iter    5 1.00000000   0.372E-09

     Est. extremal eigenvalues     -0.93516     1.67229  converged:  T
     TRS4 it   1 1.00000000   0.870E+00       0.000       16.128   0.100E-07
     TRS4 it   2 1.00000000   0.610E+00       0.001       32.256   0.100E-07
     TRS4 it   3 1.00000000   0.413E+00       0.001       32.256   0.100E-07
     TRS4 it   4 1.00000000   0.208E+00       0.001       32.256   0.100E-07
     TRS4 it   5 1.00000000   0.657E-01       0.001       32.256   0.100E-07
     TRS4 it   6 1.00000000   0.821E-02       0.001       32.256   0.100E-07
     TRS4 it   7 1.00000000   0.169E-03       0.001       32.256   0.100E-07
     TRS4 it   8 1.00000000   0.989E-07       0.001       32.256   0.100E-07
     TRS4 it   9 1.00000000   0.424E-13       0.001       32.256   0.100E-07
     Final TRS4 iteration    9 1.00000000   0.424E-13
     Chemical potential (mu):       0.01330
 
 PAO| energy:  -7.7712968822749904      penalty:   1.5114217115790486E-005
 PAO|LS| adapt:  T T F
 PAO|LS| adapt: scan_steps:    0.0000000000000000       0.29452118596955873        0.0000000000000000     
 PAO|LS| adapt: energies:   -7.7692236453391024       -7.7712968822749904        0.0000000000000000     
 PAO| ======================= Iteration:        14 =============================

     Lanczos converged:  T threshold:   0.100E-02
     Est. extremal eigenvalues:    0.274E+01   0.188E+00
     Est. condition number :    0.146E+02

 Order=           3
     NS sqrt iter    1 1.00000000   0.700E+00       0.001       57.602
     NS sqrt iter    2 1.00000000   0.323E+00       0.001       99.638
     NS sqrt iter    3 1.00000000   0.709E-01       0.001      102.219
     NS sqrt iter    4 1.00000000   0.152E-02       0.001       96.199
     NS sqrt iter    5 1.00000000   0.296E-07       0.001       58.504
     Symmetrizing Results
     Final NS sqrt iter    5 1.00000000   0.457E-08

     Est. extremal eigenvalues     -0.93514     1.66656  converged:  T
     TRS4 it   1 1.00000000   0.869E+00       0.000       16.128   0.100E-07
     TRS4 it   2 1.00000000   0.607E+00       0.001       32.256   0.100E-07
     TRS4 it   3 1.00000000   0.409E+00       0.001       32.256   0.100E-07
     TRS4 it   4 1.00000000   0.203E+00       0.001       32.256   0.100E-07
     TRS4 it   5 1.00000000   0.624E-01       0.001       32.256   0.100E-07
     TRS4 it   6 1.00000000   0.736E-02       0.001       32.256   0.100E-07
     TRS4 it   7 1.00000000   0.134E-03       0.001       32.256   0.100E-07
     TRS4 it   8 1.00000000   0.611E-07       0.001       32.256   0.100E-07
     Final TRS4 iteration    8 1.00000000   0.611E-07
     Chemical potential (mu):       0.01507
 
 PAO| energy:  -7.7706499944849323      penalty:   1.5905870507880140E-005
 PAO|LS| adapt:  T T T
 PAO|LS| adapt: scan_steps:    0.0000000000000000       0.29452118596955873       0.58904237193911746     
 PAO|LS| adapt: energies:   -7.7692236453391024       -7.7712968822749904       -7.7706499944849323     
 PAO|LS| adapt: suggested step_size:   0.37174007928526798     
 PAO|LS| adapt: predicted energy  -7.7713903739385533     
 PAO| ======================= Iteration:        15 =============================

     Lanczos converged:  T threshold:   0.100E-02
     Est. extremal eigenvalues:    0.277E+01   0.184E+00
     Est. condition number :    0.150E+02

 Order=           3
     NS sqrt iter    1 1.00000000   0.706E+00       0.001       58.987
     NS sqrt iter    2 1.00000000   0.328E+00       0.001       98.605
     NS sqrt iter    3 1.00000000   0.739E-01       0.001      100.868
     NS sqrt iter    4 1.00000000   0.172E-02       0.001      100.093
     NS sqrt iter    5 1.00000000   0.428E-07       0.001       62.829
     Symmetrizing Results
     Final NS sqrt iter    5 1.00000000   0.328E-09

     Est. extremal eigenvalues     -0.93520     1.67077  converged:  T
     TRS4 it   1 1.00000000   0.870E+00       0.000       16.128   0.100E-07
     TRS4 it   2 1.00000000   0.609E+00       0.001       32.256   0.100E-07
     TRS4 it   3 1.00000000   0.412E+00       0.001       32.256   0.100E-07
     TRS4 it   4 1.00000000   0.206E+00       0.001       32.256   0.100E-07
     TRS4 it   5 1.00000000   0.648E-01       0.001       32.256   0.100E-07
     TRS4 it   6 1.00000000   0.798E-02       0.001       32.256   0.100E-07
     TRS4 it   7 1.00000000   0.159E-03       0.001       32.256   0.100E-07
     TRS4 it   8 1.00000000   0.872E-07       0.001       32.256   0.100E-07
     TRS4 it   9 1.00000000   0.323E-13       0.001       32.256   0.100E-07
     Final TRS4 iteration    9 1.00000000   0.323E-13
     Chemical potential (mu):       0.01443
 
 PAO| energy:  -7.7713872767336021      penalty:   1.5271927952034244E-005
 PAO|CG| trace_G_new    2.6164174606962127E-003
 PAO|CG| trace_G_prev    1.1811006290850728E-002
 PAO|CG| trace_G_mix    6.1601277120688561E-005
 PAO|CG| trace_D    1.6624681164469687E-002
 PAO|CG| trace_D_Gnew   3.4206318513075633E-005
 PAO|CG| beta:   0.21630808761439624     
 PAO| norm of gradient:   5.1150928248627249E-002
 PAO| energy improvement:  -2.1636313944997099E-003
 PAO| step     15                   -7.771387277  0.320E-02  0.372E+00     0.057
 PAO|LS| adapt:  T F F
 PAO|LS| adapt: scan_steps:    0.0000000000000000        0.0000000000000000        0.0000000000000000     
 PAO|LS| adapt: energies:   -7.7713872767336021        0.0000000000000000        0.0000000000000000     
 PAO| ======================= Iteration:        16 =============================

     Lanczos converged:  T threshold:   0.100E-02
     Est. extremal eigenvalues:    0.276E+01   0.185E+00
     Est. condition number :    0.149E+02

 Order=           3
     NS sqrt iter    1 1.00000000   0.704E+00       0.001       58.103
     NS sqrt iter    2 1.00000000   0.327E+00       0.001       99.372
     NS sqrt iter    3 1.00000000   0.732E-01       0.001       99.141
     NS sqrt iter    4 1.00000000   0.166E-02       0.001      100.467
     NS sqrt iter    5 1.00000000   0.386E-07       0.001       63.275
     Symmetrizing Results
     Final NS sqrt iter    5 1.00000000   0.319E-09

     Est. extremal eigenvalues     -0.93523     1.67024  converged:  T
     TRS4 it   1 1.00000000   0.870E+00       0.000       16.128   0.100E-07
     TRS4 it   2 1.00000000   0.608E+00       0.001       32.256   0.100E-07
     TRS4 it   3 1.00000000   0.411E+00       0.001       32.256   0.100E-07
     TRS4 it   4 1.00000000   0.205E+00       0.001       32.256   0.100E-07
     TRS4 it   5 1.00000000   0.637E-01       0.001       32.256   0.100E-07
     TRS4 it   6 1.00000000   0.771E-02       0.001       32.256   0.100E-07
     TRS4 it   7 1.00000000   0.149E-03       0.001       32.256   0.100E-07
     TRS4 it   8 1.00000000   0.779E-07       0.001       32.256   0.100E-07
     Final TRS4 iteration    8 1.00000000   0.779E-07
     Chemical potential (mu):       0.01318
 
 PAO| energy:  -7.7715100983160941      penalty:   1.5052295186672375E-005
 PAO|LS| adapt:  T T F
 PAO|LS| adapt: scan_steps:    0.0000000000000000       0.37174007928526798        0.0000000000000000     
 PAO|LS| adapt: energies:   -7.7713872767336021       -7.7715100983160941        0.0000000000000000     
 PAO| ======================= Iteration:        17 =============================

     Lanczos converged:  T threshold:   0.100E-02
     Est. extremal eigenvalues:    0.275E+01   0.186E+00
     Est. condition number :    0.148E+02

 Order=           3
     NS sqrt iter    1 1.00000000   0.702E+00       0.001       59.208
     NS sqrt iter    2 1.00000000   0.325E+00       0.001      100.146
     NS sqrt iter    3 1.00000000   0.725E-01       0.001      102.027
     NS sqrt iter    4 1.00000000   0.161E-02       0.001       99.797
     NS sqrt iter    5 1.00000000   0.349E-07       0.001       62.285
     Symmetrizing Results
     Final NS sqrt iter    5 1.00000000   0.411E-09

     Est. extremal eigenvalues     -0.93514     1.66980  converged:  T
     TRS4 it   1 1.00000000   0.870E+00       0.000       16.128   0.100E-07
     TRS4 it   2 1.00000000   0.608E+00       0.001       32.256   0.100E-07
     TRS4 it   3 1.00000000   0.410E+00       0.001       32.256   0.100E-07
     TRS4 it   4 1.00000000   0.203E+00       0.001       32.256   0.100E-07
     TRS4 it   5 1.00000000   0.626E-01       0.001       32.256   0.100E-07
     TRS4 it   6 1.00000000   0.746E-02       0.001       32.256   0.100E-07
     TRS4 it   7 1.00000000   0.141E-03       0.001       32.256   0.100E-07
     TRS4 it   8 1.00000000   0.697E-07       0.001       32.256   0.100E-07
     Final TRS4 iteration    8 1.00000000   0.697E-07
     Chemical potential (mu):       0.01413
 
 PAO| energy:  -7.7699335292607801      penalty:   1.4959320546653155E-005
 PAO|LS| adapt:  T T T
 PAO|LS| adapt: scan_steps:    0.0000000000000000       0.37174007928526798       0.74348015857053595     
 PAO|LS| adapt: energies:   -7.7713872767336021       -7.7715100983160941       -7.7699335292607801     
 PAO|LS| adapt: suggested step_size:   0.21273714353139175     
 PAO|LS| adapt: predicted energy  -7.7716655497517237     
 PAO| ======================= Iteration:        18 =============================

     Lanczos converged:  T threshold:   0.100E-02
     Est. extremal eigenvalues:    0.276E+01   0.185E+00
     Est. condition number :    0.149E+02

 Order=           3
     NS sqrt iter    1 1.00000000   0.704E+00       0.001       58.516
     NS sqrt iter    2 1.00000000   0.327E+00       0.001       99.918
     NS sqrt iter    3 1.00000000   0.735E-01       0.001       98.546
     NS sqrt iter    4 1.00000000   0.169E-02       0.001      102.834
     NS sqrt iter    5 1.00000000   0.403E-07       0.001       64.374
     Symmetrizing Results
     Final NS sqrt iter    5 1.00000000   0.321E-09

     Est. extremal eigenvalues     -0.93523     1.67045  converged:  T
     TRS4 it   1 1.00000000   0.870E+00       0.000       16.128   0.100E-07
     TRS4 it   2 1.00000000   0.609E+00       0.001       32.256   0.100E-07
     TRS4 it   3 1.00000000   0.412E+00       0.001       32.256   0.100E-07
     TRS4 it   4 1.00000000   0.206E+00       0.001       32.256   0.100E-07
     TRS4 it   5 1.00000000   0.642E-01       0.001       32.256   0.100E-07
     TRS4 it   6 1.00000000   0.782E-02       0.001       32.256   0.100E-07
     TRS4 it   7 1.00000000   0.153E-03       0.001       32.256   0.100E-07
     TRS4 it   8 1.00000000   0.817E-07       0.001       32.256   0.100E-07
     TRS4 it   9 1.00000000   0.283E-13       0.001       32.256   0.100E-07
     Final TRS4 iteration    9 1.00000000   0.283E-13
     Chemical potential (mu):       0.01490
 
 PAO| energy:  -7.7716651663199210      penalty:   1.5131014341806717E-005
 PAO|CG| trace_G_new    7.2935353192197031E-004
 PAO|CG| trace_G_prev    2.6164174606962127E-003
 PAO|CG| trace_G_mix    1.9622382150540660E-006
 PAO|CG| trace_D    3.3794745992145954E-003
 PAO|CG| trace_D_Gnew  -2.0080540706626414E-006
 PAO|CG| beta:   0.27801041104249541     
 PAO| norm of gradient:   2.7006546093900463E-002
 PAO| energy improvement:  -2.7788958631891347E-004
 PAO| step     18                   -7.771665166  0.169E-02  0.213E+00     0.056
 PAO|LS| adapt:  T F F
 PAO|LS| adapt: scan_steps:    0.0000000000000000        0.0000000000000000        0.0000000000000000     
 PAO|LS| adapt: energies:   -7.7716651663199210        0.0000000000000000        0.0000000000000000     
 PAO| ======================= Iteration:        19 =============================

     Lanczos converged:  T threshold:   0.100E-02
     Est. extremal eigenvalues:    0.276E+01   0.185E+00
     Est. condition number :    0.149E+02

 Order=           3
     NS sqrt iter    1 1.00000000   0.704E+00       0.001       58.371
     NS sqrt iter    2 1.00000000   0.327E+00       0.001       98.887
     NS sqrt iter    3 1.00000000   0.737E-01       0.001       98.487
     NS sqrt iter    4 1.00000000   0.169E-02       0.001       99.199
     NS sqrt iter    5 1.00000000   0.407E-07       0.001       63.455
     Symmetrizing Results
     Final NS sqrt iter    5 1.00000000   0.316E-09

     Est. extremal eigenvalues     -0.93523     1.67078  converged:  T
     TRS4 it   1 1.00000000   0.870E+00       0.000       16.128   0.100E-07
     TRS4 it   2 1.00000000   0.609E+00       0.001       32.256   0.100E-07
     TRS4 it   3 1.00000000   0.411E+00       0.001       32.256   0.100E-07
     TRS4 it   4 1.00000000   0.205E+00       0.001       32.256   0.100E-07
     TRS4 it   5 1.00000000   0.641E-01       0.001       32.256   0.100E-07
     TRS4 it   6 1.00000000   0.782E-02       0.001       32.256   0.100E-07
     TRS4 it   7 1.00000000   0.154E-03       0.001       32.256   0.100E-07
     TRS4 it   8 1.00000000   0.830E-07       0.001       32.256   0.100E-07
     TRS4 it   9 1.00000000   0.298E-13       0.001       32.256   0.100E-07
     Final TRS4 iteration    9 1.00000000   0.298E-13
     Chemical potential (mu):       0.01463
 
 PAO| energy:  -7.7717834322046686      penalty:   1.4841059976453632E-005
 PAO|LS| adapt:  T T F
 PAO|LS| adapt: scan_steps:    0.0000000000000000       0.21273714353139175        0.0000000000000000     
 PAO|LS| adapt: energies:   -7.7716651663199210       -7.7717834322046686        0.0000000000000000     
 PAO| ======================= Iteration:        20 =============================

     Lanczos converged:  T threshold:   0.100E-02
     Est. extremal eigenvalues:    0.276E+01   0.185E+00
     Est. condition number :    0.150E+02

 Order=           3
     NS sqrt iter    1 1.00000000   0.704E+00       0.001       59.730
     NS sqrt iter    2 1.00000000   0.328E+00       0.001       99.557
     NS sqrt iter    3 1.00000000   0.739E-01       0.001       98.804
     NS sqrt iter    4 1.00000000   0.170E-02       0.001      102.973
     NS sqrt iter    5 1.00000000   0.411E-07       0.001       63.890
     Symmetrizing Results
     Final NS sqrt iter    5 1.00000000   0.321E-09

     Est. extremal eigenvalues     -0.93523     1.67111  converged:  T
     TRS4 it   1 1.00000000   0.870E+00       0.000       16.128   0.100E-07
     TRS4 it   2 1.00000000   0.609E+00       0.001       32.256   0.100E-07
     TRS4 it   3 1.00000000   0.411E+00       0.001       32.256   0.100E-07
     TRS4 it   4 1.00000000   0.205E+00       0.001       32.256   0.100E-07
     TRS4 it   5 1.00000000   0.640E-01       0.001       32.256   0.100E-07
     TRS4 it   6 1.00000000   0.781E-02       0.001       32.256   0.100E-07
     TRS4 it   7 1.00000000   0.154E-03       0.001       32.256   0.100E-07
     TRS4 it   8 1.00000000   0.844E-07       0.001       32.256   0.100E-07
     TRS4 it   9 1.00000000   0.311E-13       0.001       32.256   0.100E-07
     Final TRS4 iteration    9 1.00000000   0.311E-13
     Chemical potential (mu):       0.01435
 
 PAO| energy:  -7.7718272764214857      penalty:   1.4563584524547797E-005
 PAO|LS| adapt:  T T F
 PAO|LS| adapt: scan_steps:    0.0000000000000000       0.42547428706278351        0.0000000000000000     
 PAO|LS| adapt: energies:   -7.7716651663199210       -7.7718272764214857        0.0000000000000000     
 PAO| ======================= Iteration:        21 =============================

     Lanczos converged:  T threshold:   0.100E-02
     Est. extremal eigenvalues:    0.276E+01   0.184E+00
     Est. condition number :    0.150E+02

 Order=           3
     NS sqrt iter    1 1.00000000   0.704E+00       0.001       59.084
     NS sqrt iter    2 1.00000000   0.328E+00       0.001       99.160
     NS sqrt iter    3 1.00000000   0.743E-01       0.001      100.482
     NS sqrt iter    4 1.00000000   0.172E-02       0.001      103.701
     NS sqrt iter    5 1.00000000   0.420E-07       0.001       62.159
     Symmetrizing Results
     Final NS sqrt iter    5 1.00000000   0.324E-09

     Est. extremal eigenvalues     -0.93522     1.67179  converged:  T
     TRS4 it   1 1.00000000   0.870E+00       0.000       16.128   0.100E-07
     TRS4 it   2 1.00000000   0.609E+00       0.001       32.256   0.100E-07
     TRS4 it   3 1.00000000   0.411E+00       0.001       32.256   0.100E-07
     TRS4 it   4 1.00000000   0.205E+00       0.001       32.256   0.100E-07
     TRS4 it   5 1.00000000   0.639E-01       0.001       32.256   0.100E-07
     TRS4 it   6 1.00000000   0.780E-02       0.001       32.256   0.100E-07
     TRS4 it   7 1.00000000   0.156E-03       0.001       32.256   0.100E-07
     TRS4 it   8 1.00000000   0.872E-07       0.001       32.256   0.100E-07
     TRS4 it   9 1.00000000   0.324E-13       0.001       32.256   0.100E-07
     Final TRS4 iteration    9 1.00000000   0.324E-13
     Chemical potential (mu):       0.01380
 
 PAO| energy:  -7.7716892776245681      penalty:   1.4045496553234804E-005
 PAO|LS| Need extra step
 PAO|LS| adapt:  T T T
 PAO|LS| adapt: scan_steps:    0.0000000000000000       0.42547428706278351       0.85094857412556701     
 PAO|LS| adapt: energies:   -7.7716651663199210       -7.7718272764214857       -7.7716892776245681     
 PAO|LS| adapt: suggested step_size:   0.44256598312168993     
 PAO|LS| adapt: predicted energy  -7.7718275185648436     
 PAO| ======================= Iteration:        22 =============================

     Lanczos converged:  T threshold:   0.100E-02
     Est. extremal eigenvalues:    0.276E+01   0.185E+00
     Est. condition number :    0.150E+02

 Order=           3
     NS sqrt iter    1 1.00000000   0.704E+00       0.001       59.085
     NS sqrt iter    2 1.00000000   0.328E+00       0.001       99.902
     NS sqrt iter    3 1.00000000   0.739E-01       0.001       99.968
     NS sqrt iter    4 1.00000000   0.170E-02       0.001      102.671
     NS sqrt iter    5 1.00000000   0.411E-07       0.001       63.643
     Symmetrizing Results
     Final NS sqrt iter    5 1.00000000   0.321E-09

     Est. extremal eigenvalues     -0.93523     1.67114  converged:  T
     TRS4 it   1 1.00000000   0.870E+00       0.000       16.128   0.100E-07
     TRS4 it   2 1.00000000   0.609E+00       0.001       32.256   0.100E-07
     TRS4 it   3 1.00000000   0.411E+00       0.001       32.256   0.100E-07
     TRS4 it   4 1.00000000   0.205E+00       0.001       32.256   0.100E-07
     TRS4 it   5 1.00000000   0.640E-01       0.001       32.256   0.100E-07
     TRS4 it   6 1.00000000   0.781E-02       0.001       32.256   0.100E-07
     TRS4 it   7 1.00000000   0.154E-03       0.001       32.256   0.100E-07
     TRS4 it   8 1.00000000   0.845E-07       0.001       32.256   0.100E-07
     TRS4 it   9 1.00000000   0.313E-13       0.001       32.256   0.100E-07
     Final TRS4 iteration    9 1.00000000   0.313E-13
     Chemical potential (mu):       0.01433
 
 PAO| energy:  -7.7718275509154902      penalty:   1.4541827885654574E-005
 PAO|CG| trace_G_new    2.2112589484936867E-004
 PAO|CG| trace_G_prev    7.2935353192197031E-004
 PAO|CG| trace_G_mix    2.9405299337261208E-006
 PAO|CG| trace_D    9.9166892931177035E-004
 PAO|CG| trace_D_Gnew  -1.8869990613339146E-006
 PAO|CG| beta:   0.29914897970081405     
 PAO| norm of gradient:   1.4870302446465864E-002
 PAO| energy improvement:  -1.6238459556916496E-004
 PAO| step     22                   -7.771827551  0.929E-03  0.443E+00     0.075
 PAO|LS| adapt:  T F F
 PAO|LS| adapt: scan_steps:    0.0000000000000000        0.0000000000000000        0.0000000000000000     
 PAO|LS| adapt: energies:   -7.7718275509154902        0.0000000000000000        0.0000000000000000     
 PAO| ======================= Iteration:        23 =============================

     Lanczos converged:  T threshold:   0.100E-02
     Est. extremal eigenvalues:    0.276E+01   0.185E+00
     Est. condition number :    0.150E+02

 Order=           3
     NS sqrt iter    1 1.00000000   0.704E+00       0.001       59.449
     NS sqrt iter    2 1.00000000   0.328E+00       0.001       96.599
     NS sqrt iter    3 1.00000000   0.740E-01       0.001       99.936
     NS sqrt iter    4 1.00000000   0.171E-02       0.001      100.330
     NS sqrt iter    5 1.00000000   0.412E-07       0.001       63.489
     Symmetrizing Results
     Final NS sqrt iter    5 1.00000000   0.316E-09

     Est. extremal eigenvalues     -0.93523     1.67128  converged:  T
     TRS4 it   1 1.00000000   0.870E+00       0.000       16.128   0.100E-07
     TRS4 it   2 1.00000000   0.609E+00       0.001       32.256   0.100E-07
     TRS4 it   3 1.00000000   0.412E+00       0.001       32.256   0.100E-07
     TRS4 it   4 1.00000000   0.205E+00       0.001       32.256   0.100E-07
     TRS4 it   5 1.00000000   0.641E-01       0.001       32.256   0.100E-07
     TRS4 it   6 1.00000000   0.785E-02       0.001       32.256   0.100E-07
     TRS4 it   7 1.00000000   0.156E-03       0.001       32.256   0.100E-07
     TRS4 it   8 1.00000000   0.869E-07       0.001       32.256   0.100E-07
     TRS4 it   9 1.00000000   0.330E-13       0.001       32.256   0.100E-07
     Final TRS4 iteration    9 1.00000000   0.330E-13
     Chemical potential (mu):       0.01402
 
 PAO| energy:  -7.7718763000715958      penalty:   1.3862724525379395E-005
 PAO|LS| adapt:  T T F
 PAO|LS| adapt: scan_steps:    0.0000000000000000       0.44256598312168993        0.0000000000000000     
 PAO|LS| adapt: energies:   -7.7718275509154902       -7.7718763000715958        0.0000000000000000     
 PAO| ======================= Iteration:        24 =============================

     Lanczos converged:  T threshold:   0.100E-02
     Est. extremal eigenvalues:    0.276E+01   0.185E+00
     Est. condition number :    0.150E+02

 Order=           3
     NS sqrt iter    1 1.00000000   0.704E+00       0.001       58.485
     NS sqrt iter    2 1.00000000   0.328E+00       0.001       99.848
     NS sqrt iter    3 1.00000000   0.740E-01       0.001       99.430
     NS sqrt iter    4 1.00000000   0.171E-02       0.001      101.373
     NS sqrt iter    5 1.00000000   0.414E-07       0.001       64.458
     Symmetrizing Results
     Final NS sqrt iter    5 1.00000000   0.318E-09

     Est. extremal eigenvalues     -0.93523     1.67141  converged:  T
     TRS4 it   1 1.00000000   0.870E+00       0.000       16.128   0.100E-07
     TRS4 it   2 1.00000000   0.609E+00       0.001       32.256   0.100E-07
     TRS4 it   3 1.00000000   0.412E+00       0.001       32.256   0.100E-07
     TRS4 it   4 1.00000000   0.205E+00       0.001       32.256   0.100E-07
     TRS4 it   5 1.00000000   0.643E-01       0.001       32.256   0.100E-07
     TRS4 it   6 1.00000000   0.790E-02       0.001       32.256   0.100E-07
     TRS4 it   7 1.00000000   0.159E-03       0.001       32.256   0.100E-07
     TRS4 it   8 1.00000000   0.895E-07       0.001       32.256   0.100E-07
     TRS4 it   9 1.00000000   0.344E-13       0.001       32.256   0.100E-07
     Final TRS4 iteration    9 1.00000000   0.344E-13
     Chemical potential (mu):       0.01371
 
 PAO| energy:  -7.7718256946933044      penalty:   1.3211542669862866E-005
 PAO|LS| adapt:  T T T
 PAO|LS| adapt: scan_steps:    0.0000000000000000       0.44256598312168993       0.88513196624337986     
 PAO|LS| adapt: energies:   -7.7718275509154902       -7.7718763000715958       -7.7718256946933044     
 PAO|LS| adapt: suggested step_size:   0.43843179437273927     
 PAO|LS| adapt: predicted energy  -7.7718763044065273     
 PAO| ======================= Iteration:        25 =============================

     Lanczos converged:  T threshold:   0.100E-02
     Est. extremal eigenvalues:    0.276E+01   0.185E+00
     Est. condition number :    0.150E+02

 Order=           3
     NS sqrt iter    1 1.00000000   0.704E+00       0.001       59.201
     NS sqrt iter    2 1.00000000   0.328E+00       0.001       99.108
     NS sqrt iter    3 1.00000000   0.740E-01       0.001       99.111
     NS sqrt iter    4 1.00000000   0.171E-02       0.001      100.994
     NS sqrt iter    5 1.00000000   0.412E-07       0.001       64.347
     Symmetrizing Results
     Final NS sqrt iter    5 1.00000000   0.316E-09

     Est. extremal eigenvalues     -0.93523     1.67128  converged:  T
     TRS4 it   1 1.00000000   0.870E+00       0.000       16.128   0.100E-07
     TRS4 it   2 1.00000000   0.609E+00       0.001       32.256   0.100E-07
     TRS4 it   3 1.00000000   0.411E+00       0.001       32.256   0.100E-07
     TRS4 it   4 1.00000000   0.205E+00       0.001       32.256   0.100E-07
     TRS4 it   5 1.00000000   0.641E-01       0.001       32.256   0.100E-07
     TRS4 it   6 1.00000000   0.785E-02       0.001       32.256   0.100E-07
     TRS4 it   7 1.00000000   0.156E-03       0.001       32.256   0.100E-07
     TRS4 it   8 1.00000000   0.869E-07       0.001       32.256   0.100E-07
     TRS4 it   9 1.00000000   0.335E-13       0.001       32.256   0.100E-07
     Final TRS4 iteration    9 1.00000000   0.335E-13
     Chemical potential (mu):       0.01402
 
 PAO| energy:  -7.7718763029400719      penalty:   1.3868938190077496E-005
 PAO|CG| trace_G_new    7.8219626958468571E-005
 PAO|CG| trace_G_prev    2.2112589484936867E-004
 PAO|CG| trace_G_mix    6.9194091033176381E-007
 PAO|CG| trace_D    3.1099944614375899E-004
 PAO|CG| trace_D_Gnew  -3.5479376834441612E-007
 PAO|CG| beta:   0.35060428404800259     
 PAO| norm of gradient:   8.8441860540396013E-003
 PAO| energy improvement:  -4.8752024581766307E-005
 PAO| step     25                   -7.771876303  0.553E-03  0.438E+00     0.058
 PAO|LS| adapt:  T F F
 PAO|LS| adapt: scan_steps:    0.0000000000000000        0.0000000000000000        0.0000000000000000     
 PAO|LS| adapt: energies:   -7.7718763029400719        0.0000000000000000        0.0000000000000000     
 PAO| ======================= Iteration:        26 =============================

     Lanczos converged:  T threshold:   0.100E-02
     Est. extremal eigenvalues:    0.276E+01   0.185E+00
     Est. condition number :    0.150E+02

 Order=           3
     NS sqrt iter    1 1.00000000   0.704E+00       0.001       58.958
     NS sqrt iter    2 1.00000000   0.328E+00       0.001       99.181
     NS sqrt iter    3 1.00000000   0.739E-01       0.001       99.340
     NS sqrt iter    4 1.00000000   0.170E-02       0.001       97.678
     NS sqrt iter    5 1.00000000   0.410E-07       0.001       64.527
     Symmetrizing Results
     Final NS sqrt iter    5 1.00000000   0.314E-09

     Est. extremal eigenvalues     -0.93523     1.67124  converged:  T
     TRS4 it   1 1.00000000   0.870E+00       0.000       16.128   0.100E-07
     TRS4 it   2 1.00000000   0.609E+00       0.001       32.256   0.100E-07
     TRS4 it   3 1.00000000   0.411E+00       0.001       32.256   0.100E-07
     TRS4 it   4 1.00000000   0.205E+00       0.001       32.256   0.100E-07
     TRS4 it   5 1.00000000   0.641E-01       0.001       32.256   0.100E-07
     TRS4 it   6 1.00000000   0.784E-02       0.001       32.256   0.100E-07
     TRS4 it   7 1.00000000   0.156E-03       0.001       32.256   0.100E-07
     TRS4 it   8 1.00000000   0.861E-07       0.001       32.256   0.100E-07
     TRS4 it   9 1.00000000   0.321E-13       0.001       32.256   0.100E-07
     Final TRS4 iteration    9 1.00000000   0.321E-13
     Chemical potential (mu):       0.01413
 
 PAO| energy:  -7.7718799828124387      penalty:   1.3153623517199644E-005
 PAO|LS| adapt:  T T F
 PAO|LS| adapt: scan_steps:    0.0000000000000000       0.43843179437273927        0.0000000000000000     
 PAO|LS| adapt: energies:   -7.7718763029400719       -7.7718799828124387        0.0000000000000000     
 PAO| ======================= Iteration:        27 =============================

     Lanczos converged:  T threshold:   0.100E-02
     Est. extremal eigenvalues:    0.276E+01   0.185E+00
     Est. condition number :    0.149E+02

 Order=           3
     NS sqrt iter    1 1.00000000   0.704E+00       0.001       59.329
     NS sqrt iter    2 1.00000000   0.327E+00       0.001       99.745
     NS sqrt iter    3 1.00000000   0.738E-01       0.001       99.086
     NS sqrt iter    4 1.00000000   0.170E-02       0.001      101.112
     NS sqrt iter    5 1.00000000   0.408E-07       0.001       65.931
     Symmetrizing Results
     Final NS sqrt iter    5 1.00000000   0.313E-09

     Est. extremal eigenvalues     -0.93524     1.67120  converged:  T
     TRS4 it   1 1.00000000   0.870E+00       0.000       16.128   0.100E-07
     TRS4 it   2 1.00000000   0.609E+00       0.001       32.256   0.100E-07
     TRS4 it   3 1.00000000   0.411E+00       0.001       32.256   0.100E-07
     TRS4 it   4 1.00000000   0.205E+00       0.001       32.256   0.100E-07
     TRS4 it   5 1.00000000   0.640E-01       0.001       32.256   0.100E-07
     TRS4 it   6 1.00000000   0.783E-02       0.001       32.256   0.100E-07
     TRS4 it   7 1.00000000   0.155E-03       0.001       32.256   0.100E-07
     TRS4 it   8 1.00000000   0.853E-07       0.001       32.256   0.100E-07
     TRS4 it   9 1.00000000   0.312E-13       0.001       32.256   0.100E-07
     Final TRS4 iteration    9 1.00000000   0.312E-13
     Chemical potential (mu):       0.01424
 
 PAO| energy:  -7.7718222230532259      penalty:   1.2461316421190082E-005
 PAO|LS| adapt:  T T T
 PAO|LS| adapt: scan_steps:    0.0000000000000000       0.43843179437273927       0.87686358874547854     
 PAO|LS| adapt: energies:   -7.7718763029400719       -7.7718799828124387       -7.7718222230532259     
 PAO|LS| adapt: suggested step_size:   0.24547538155123194     
 PAO|LS| adapt: predicted energy  -7.7718859330315526     
 PAO| ======================= Iteration:        28 =============================

     Lanczos converged:  T threshold:   0.100E-02
     Est. extremal eigenvalues:    0.276E+01   0.185E+00
     Est. condition number :    0.150E+02

 Order=           3
     NS sqrt iter    1 1.00000000   0.704E+00       0.001       59.233
     NS sqrt iter    2 1.00000000   0.328E+00       0.001       99.306
     NS sqrt iter    3 1.00000000   0.739E-01       0.001       98.442
     NS sqrt iter    4 1.00000000   0.170E-02       0.001      100.344
     NS sqrt iter    5 1.00000000   0.411E-07       0.001       64.980
     Symmetrizing Results
     Final NS sqrt iter    5 1.00000000   0.315E-09

     Est. extremal eigenvalues     -0.93523     1.67125  converged:  T
     TRS4 it   1 1.00000000   0.870E+00       0.000       16.128   0.100E-07
     TRS4 it   2 1.00000000   0.609E+00       0.001       32.256   0.100E-07
     TRS4 it   3 1.00000000   0.411E+00       0.001       32.256   0.100E-07
     TRS4 it   4 1.00000000   0.205E+00       0.001       32.256   0.100E-07
     TRS4 it   5 1.00000000   0.641E-01       0.001       32.256   0.100E-07
     TRS4 it   6 1.00000000   0.785E-02       0.001       32.256   0.100E-07
     TRS4 it   7 1.00000000   0.156E-03       0.001       32.256   0.100E-07
     TRS4 it   8 1.00000000   0.865E-07       0.001       32.256   0.100E-07
     TRS4 it   9 1.00000000   0.328E-13       0.001       32.256   0.100E-07
     Final TRS4 iteration    9 1.00000000   0.328E-13
     Chemical potential (mu):       0.01408
 
 PAO| energy:  -7.7718859239677682      penalty:   1.3465585142121172E-005
 PAO|CG| trace_G_new    2.9444637501600928E-005
 PAO|CG| trace_G_prev    7.8219626958468571E-005
 PAO|CG| trace_G_mix    4.6662297094754019E-008
 PAO|CG| trace_D    1.1669750950863117E-004
 PAO|CG| trace_D_Gnew  -2.4551414042680176E-008
 PAO|CG| beta:   0.37583885717219412     
 PAO| norm of gradient:   5.4262913211143510E-003
 PAO| energy improvement:  -9.6210276963049068E-006
 PAO| step     28                   -7.771885924  0.339E-03  0.245E+00     0.057
 PAO|LS| adapt:  T F F
 PAO|LS| adapt: scan_steps:    0.0000000000000000        0.0000000000000000        0.0000000000000000     
 PAO|LS| adapt: energies:   -7.7718859239677682        0.0000000000000000        0.0000000000000000     
 PAO| ======================= Iteration:        29 =============================

     Lanczos converged:  T threshold:   0.100E-02
     Est. extremal eigenvalues:    0.276E+01   0.185E+00
     Est. condition number :    0.150E+02

 Order=           3
     NS sqrt iter    1 1.00000000   0.704E+00       0.001       58.789
     NS sqrt iter    2 1.00000000   0.327E+00       0.001       98.988
     NS sqrt iter    3 1.00000000   0.739E-01       0.001       97.847
     NS sqrt iter    4 1.00000000   0.170E-02       0.001       99.113
     NS sqrt iter    5 1.00000000   0.411E-07       0.001       62.780
     Symmetrizing Results
     Final NS sqrt iter    5 1.00000000   0.314E-09

     Est. extremal eigenvalues     -0.93524     1.67129  converged:  T
     TRS4 it   1 1.00000000   0.870E+00       0.000       16.128   0.100E-07
     TRS4 it   2 1.00000000   0.609E+00       0.001       32.256   0.100E-07
     TRS4 it   3 1.00000000   0.411E+00       0.001       32.256   0.100E-07
     TRS4 it   4 1.00000000   0.205E+00       0.001       32.256   0.100E-07
     TRS4 it   5 1.00000000   0.640E-01       0.001       32.256   0.100E-07
     TRS4 it   6 1.00000000   0.783E-02       0.001       32.256   0.100E-07
     TRS4 it   7 1.00000000   0.155E-03       0.001       32.256   0.100E-07
     TRS4 it   8 1.00000000   0.855E-07       0.001       32.256   0.100E-07
     TRS4 it   9 1.00000000   0.320E-13       0.001       32.256   0.100E-07
     Final TRS4 iteration    9 1.00000000   0.320E-13
     Chemical potential (mu):       0.01420
 
 PAO| energy:  -7.7718923095526238      penalty:   1.3049521093002325E-005
 PAO|LS| adapt:  T T F
 PAO|LS| adapt: scan_steps:    0.0000000000000000       0.24547538155123194        0.0000000000000000     
 PAO|LS| adapt: energies:   -7.7718859239677682       -7.7718923095526238        0.0000000000000000     
 PAO| ======================= Iteration:        30 =============================

     Lanczos converged:  T threshold:   0.100E-02
     Est. extremal eigenvalues:    0.276E+01   0.185E+00
     Est. condition number :    0.150E+02

 Order=           3
     NS sqrt iter    1 1.00000000   0.704E+00       0.001       58.970
     NS sqrt iter    2 1.00000000   0.327E+00       0.001       99.408
     NS sqrt iter    3 1.00000000   0.738E-01       0.001       99.476
     NS sqrt iter    4 1.00000000   0.170E-02       0.001       99.407
     NS sqrt iter    5 1.00000000   0.410E-07       0.001       64.954
     Symmetrizing Results
     Final NS sqrt iter    5 1.00000000   0.314E-09

     Est. extremal eigenvalues     -0.93524     1.67132  converged:  T
     TRS4 it   1 1.00000000   0.870E+00       0.000       16.128   0.100E-07
     TRS4 it   2 1.00000000   0.609E+00       0.001       32.256   0.100E-07
     TRS4 it   3 1.00000000   0.411E+00       0.001       32.256   0.100E-07
     TRS4 it   4 1.00000000   0.205E+00       0.001       32.256   0.100E-07
     TRS4 it   5 1.00000000   0.640E-01       0.001       32.256   0.100E-07
     TRS4 it   6 1.00000000   0.781E-02       0.001       32.256   0.100E-07
     TRS4 it   7 1.00000000   0.155E-03       0.001       32.256   0.100E-07
     TRS4 it   8 1.00000000   0.846E-07       0.001       32.256   0.100E-07
     TRS4 it   9 1.00000000   0.308E-13       0.001       32.256   0.100E-07
     Final TRS4 iteration    9 1.00000000   0.308E-13
     Chemical potential (mu):       0.01433
 
 PAO| energy:  -7.7718970060443464      penalty:   1.2640699050899394E-005
 PAO|LS| adapt:  T T F
 PAO|LS| adapt: scan_steps:    0.0000000000000000       0.49095076310246388        0.0000000000000000     
 PAO|LS| adapt: energies:   -7.7718859239677682       -7.7718970060443464        0.0000000000000000     
 PAO| ======================= Iteration:        31 =============================

     Lanczos converged:  T threshold:   0.100E-02
     Est. extremal eigenvalues:    0.276E+01   0.185E+00
     Est. condition number :    0.149E+02

 Order=           3
     NS sqrt iter    1 1.00000000   0.703E+00       0.001       59.208
     NS sqrt iter    2 1.00000000   0.327E+00       0.001       99.758
     NS sqrt iter    3 1.00000000   0.737E-01       0.001       99.685
     NS sqrt iter    4 1.00000000   0.170E-02       0.001       98.810
     NS sqrt iter    5 1.00000000   0.409E-07       0.001       65.828
     Symmetrizing Results
     Final NS sqrt iter    5 1.00000000   0.313E-09

     Est. extremal eigenvalues     -0.93524     1.67138  converged:  T
     TRS4 it   1 1.00000000   0.870E+00       0.000       16.128   0.100E-07
     TRS4 it   2 1.00000000   0.609E+00       0.001       32.256   0.100E-07
     TRS4 it   3 1.00000000   0.411E+00       0.001       32.256   0.100E-07
     TRS4 it   4 1.00000000   0.205E+00       0.001       32.256   0.100E-07
     TRS4 it   5 1.00000000   0.638E-01       0.001       32.256   0.100E-07
     TRS4 it   6 1.00000000   0.778E-02       0.001       32.256   0.100E-07
     TRS4 it   7 1.00000000   0.153E-03       0.001       32.256   0.100E-07
     TRS4 it   8 1.00000000   0.827E-07       0.001       32.256   0.100E-07
     TRS4 it   9 1.00000000   0.298E-13       0.001       32.256   0.100E-07
     Final TRS4 iteration    9 1.00000000   0.298E-13
     Chemical potential (mu):       0.01457
 
 PAO| energy:  -7.7719013319260677      penalty:   1.1844646056038003E-005
 PAO|LS| Need extra step
 PAO|LS| adapt:  T T F
 PAO|LS| adapt: scan_steps:    0.0000000000000000       0.98190152620492777        0.0000000000000000     
 PAO|LS| adapt: energies:   -7.7718859239677682       -7.7719013319260677        0.0000000000000000     
 PAO| ======================= Iteration:        32 =============================

     Lanczos converged:  T threshold:   0.100E-02
     Est. extremal eigenvalues:    0.276E+01   0.184E+00
     Est. condition number :    0.149E+02

 Order=           3
     NS sqrt iter    1 1.00000000   0.702E+00       0.001       59.334
     NS sqrt iter    2 1.00000000   0.326E+00       0.001      100.805
     NS sqrt iter    3 1.00000000   0.734E-01       0.001       99.308
[...]
     NS sqrt iter    5 1.00000000   0.588E-08       0.001       38.272
     Symmetrizing Results
     Final NS sqrt iter    5 1.00000000   0.346E-09

     Est. extremal eigenvalues     -0.93494     1.63286  converged:  T
     TRS4 it   1 1.00000000   0.883E+00       0.000       16.128   0.100E-07
     TRS4 it   2 1.00000000   0.633E+00       0.000       32.256   0.100E-07
     TRS4 it   3 1.00000000   0.454E+00       0.000       32.256   0.100E-07
     TRS4 it   4 1.00000000   0.276E+00       0.000       32.256   0.100E-07
     TRS4 it   5 1.00000000   0.136E+00       0.000       32.256   0.100E-07
     TRS4 it   6 1.00000000   0.415E-01       0.000       32.256   0.100E-07
     TRS4 it   7 1.00000000   0.536E-02       0.000       32.256   0.100E-07
     TRS4 it   8 1.00000000   0.121E-03       0.000       32.256   0.100E-07
     TRS4 it   9 1.00000000   0.660E-07       0.000       32.256   0.100E-07
     Final TRS4 iteration    9 1.00000000   0.660E-07
     Chemical potential (mu):      -0.07075
 
 PAO| energy:  -7.7712571858604438      penalty:   2.7369377783714541E-008
 PAO|CG| warming up with steepest descent
 PAO|CG| beta:    0.0000000000000000     
 PAO| norm of gradient:   1.3527103963719274E-004
 PAO| energy improvement:  -5.4883324551724399E-009
 PAO| step    412                   -7.771257186  0.845E-05  0.255E+00     0.049
 PAO| converged after          412  steps :-)
 PAO| Recalculating energy after mixing.

     Lanczos converged:  T threshold:   0.100E-02
     Est. extremal eigenvalues:    0.250E+01   0.191E+00
     Est. condition number :    0.131E+02

 Order=           3
     NS sqrt iter    1 1.00000000   0.633E+00       0.001       64.512
     NS sqrt iter    2 1.00000000   0.275E+00       0.001      110.592
     NS sqrt iter    3 1.00000000   0.487E-01       0.001      110.592
     NS sqrt iter    4 1.00000000   0.765E-03       0.001      110.592
     NS sqrt iter    5 1.00000000   0.588E-08       0.001       38.272
     Symmetrizing Results
     Final NS sqrt iter    5 1.00000000   0.346E-09

     Est. extremal eigenvalues     -0.93494     1.63286  converged:  T
     TRS4 it   1 1.00000000   0.883E+00       0.000       16.128   0.100E-07
     TRS4 it   2 1.00000000   0.633E+00       0.000       32.256   0.100E-07
     TRS4 it   3 1.00000000   0.454E+00       0.000       32.256   0.100E-07
     TRS4 it   4 1.00000000   0.276E+00       0.000       32.256   0.100E-07
     TRS4 it   5 1.00000000   0.136E+00       0.000       32.256   0.100E-07
     TRS4 it   6 1.00000000   0.415E-01       0.000       32.256   0.100E-07
     TRS4 it   7 1.00000000   0.536E-02       0.000       32.256   0.100E-07
     TRS4 it   8 1.00000000   0.121E-03       0.000       32.256   0.100E-07
     TRS4 it   9 1.00000000   0.660E-07       0.000       32.256   0.100E-07
     Final TRS4 iteration    9 1.00000000   0.660E-07
     Chemical potential (mu):      -0.07075
 
 PAO| energy:  -7.7712571844883449      penalty:   2.7651528639196040E-008
 PAO| Writing restart file.
     Est. extremal eigenvalues     -0.93494     1.63286  converged:  T
     TRS4 it   1 1.00000000   0.883E+00       0.000       16.128   0.100E-07
     TRS4 it   2 1.00000000   0.633E+00       0.000       32.256   0.100E-07
     TRS4 it   3 1.00000000   0.454E+00       0.000       32.256   0.100E-07
     TRS4 it   4 1.00000000   0.276E+00       0.000       32.256   0.100E-07
     TRS4 it   5 1.00000000   0.136E+00       0.000       32.256   0.100E-07
     TRS4 it   6 1.00000000   0.415E-01       0.000       32.256   0.100E-07
     TRS4 it   7 1.00000000   0.536E-02       0.000       32.256   0.100E-07
     TRS4 it   8 1.00000000   0.121E-03       0.000       32.256   0.100E-07
     TRS4 it   9 1.00000000   0.660E-07       0.000       32.256   0.100E-07
     Final TRS4 iteration    9 1.00000000   0.660E-07
     Chemical potential (mu):      -0.07075

 SCF     1       -34.450223034       -34.450223034    1.995876

*********************************************************
 Using MIXING_FRACTION=0.450 to mix KS matrix:  iscf=  2
 KS_nw=0.450*KS + 0.550*KS_old
*********************************************************
     Est. extremal eigenvalues     -0.93494     1.63286  converged:  T
     TRS4 it   1 1.00000000   0.883E+00       0.000       16.128   0.100E-07
     TRS4 it   2 1.00000000   0.633E+00       0.000       32.256   0.100E-07
     TRS4 it   3 1.00000000   0.454E+00       0.000       32.256   0.100E-07
     TRS4 it   4 1.00000000   0.276E+00       0.000       32.256   0.100E-07
     TRS4 it   5 1.00000000   0.136E+00       0.000       32.256   0.100E-07
     TRS4 it   6 1.00000000   0.415E-01       0.000       32.256   0.100E-07
     TRS4 it   7 1.00000000   0.537E-02       0.000       32.256   0.100E-07
     TRS4 it   8 1.00000000   0.121E-03       0.000       32.256   0.100E-07
     TRS4 it   9 1.00000000   0.660E-07       0.000       32.256   0.100E-07
     Final TRS4 iteration    9 1.00000000   0.660E-07
     Chemical potential (mu):      -0.07075

 SCF     2       -34.450223035        -0.000000000    1.978907


 SCF run converged in     2 steps.

 PAO| Storing density matrix for ASPC guess in slot:           1

 ENERGY| Total FORCE_EVAL ( QS ) energy [a.u.]:              -34.450223034517570

 -------------------------------------------------------------------------------
 -                                                                             -
 -                                DBCSR STATISTICS                             -
 -                                                                             -
 -------------------------------------------------------------------------------
 COUNTER                                    TOTAL       BLAS       SMM       ACC
 flops     5 x     5 x     4                20000       0.0%    100.0%      0.0%
 flops    13 x     5 x     4                20800       0.0%    100.0%      0.0%
 flops     5 x    13 x     4                20800       0.0%    100.0%      0.0%
 flops    13 x    13 x     4                40560       0.0%    100.0%      0.0%
 flops     4 x     4 x     5              3237120       0.0%    100.0%      0.0%
 flops     5 x     4 x     5              3945600       0.0%    100.0%      0.0%
 flops     4 x     4 x    13              4208256       0.0%    100.0%      0.0%
 flops    13 x     4 x     5              5129280       0.0%    100.0%      0.0%
 flops     5 x     4 x    13              5129280       0.0%    100.0%      0.0%
 flops     5 x     4 x     4              6560640       0.0%    100.0%      0.0%
 flops    13 x     4 x    13              6668064       0.0%    100.0%      0.0%
 flops    13 x     4 x     4              8869536       0.0%    100.0%      0.0%
 flops     4 x     4 x     4            411576320       0.0%    100.0%      0.0%
 flops inhomo. stacks                           0       0.0%      0.0%      0.0%
 flops total                       455.426256E+06       0.0%    100.0%      0.0%
 flops max/rank                    455.426256E+06       0.0%    100.0%      0.0%
 matmuls inhomo. stacks                         0       0.0%      0.0%      0.0%
 matmuls total                            3352711       0.0%    100.0%      0.0%
 number of processed stacks                 26791       0.0%    100.0%      0.0%
 average stack size                                     0.0     125.1       0.0
 marketing flops                   739.050816E+06
 -------------------------------------------------------------------------------
 # multiplications                          22268
 max memory usage/rank             507.084800E+06
 # max total images/rank                        1
 # max 3D layers                                1
 # MPI messages exchanged                       0
 -------------------------------------------------------------------------------

 -------------------------------------------------------------------------------
 -                                                                             -
 -                                DBM STATISTICS                               -
 -                                                                             -
 -------------------------------------------------------------------------------
    M  x    N  x    K                                          COUNT     PERCENT
 -------------------------------------------------------------------------------

 -------------------------------------------------------------------------------
 -                                                                             -
 -                                GRID STATISTICS                              -
 -                                                                             -
 -------------------------------------------------------------------------------
 LP    KERNEL             BACKEND                              COUNT     PERCENT
 2     collocate ortho    REF                                  38080      30.69%
 2     integrate ortho    REF                                  38080      30.69%
 3     collocate ortho    REF                                  19670      15.85%
 3     integrate ortho    REF                                  19670      15.85%
 4     collocate ortho    REF                                   4280       3.45%
 4     integrate ortho    REF                                   4280       3.45%
 0     collocate general  REF                                      6       0.00%
 -------------------------------------------------------------------------------

 MEMORY| Estimated peak process memory [MiB]                                 484

 -------------------------------------------------------------------------------
 -                                                                             -
 -                           R E F E R E N C E S                               -
 -                                                                             -
 -------------------------------------------------------------------------------
 
 CP2K version 2023.1 (Development Version), the CP2K developers group (2023).
 CP2K is freely available from https://www.cp2k.org/ .

 Kuehne,Thomas D.; Iannuzzi,Marcella; Del Ben,Mauro;
 Rybkin,Vladimir V.; Seewald,Patrick; Stein,Frederick; Laino,Teodoro;
 Khaliullin,Rustam Z.; Schuett,Ole; Schiffmann,Florian; Golze,Dorothea;
 Wilhelm,Jan; Chulkov,Sergey; Bani-Hashemian,Mohammad Hossein;
 Weber,Valery; Borstnik,Urban; Taillefumier,Mathieu;
 Jakobovits,Alice Shoshana; Lazzaro,Alfio; Pabst,Hans; Mueller,Tiziano;
 Schade,Robert; Guidon,Manuel; Andermatt,Samuel; Holmberg,Nico;
 Schenter,Gregory K.; Hehn,Anna; Bussy,Augustin; Belleflamme,Fabian;
 Tabacchi,Gloria; Gloess,Andreas; Lass,Michael; Bethune,Iain;
 Mundy,Christopher J.; Plessl,Christian; Watkins,Matt;
 VandeVondele,Joost; Krack,Matthias; Hutter,Juerg. 
 The Journal of Chemical Physics, 152 (19), (2020). 
 CP2K: An electronic structure and molecular dynamics software package -
 Quickstep: Efficient and accurate electronic structure calculations.
 https://doi.org/10.1063/5.0007045

 Schuett, O; VandeVondele, J. 
 Journal of Chemical Theory and Computation, 14, (2018). 
 Machine Learning Adaptive Basis Sets for Efficient Large Scale
 Density Functional Theory Simulation.
 https://doi.org/10.1021/acs.jctc.8b00378

 Schuett, Ole; Messmer, Peter; Hutter, Juerg; VandeVondele, Joost. 
 Electronic Structure Calculations on Graphics Processing Units, John
 Wiley & Sons, Ltd, 173-190 (2016). 
 GPU-Accelerated Sparse Matrix-Matrix Multiplication for
 Linear Scaling Density Functional Theory.
 https://doi.org/10.1002/9781118670712.ch8

 Heinecke, A; Henry, G; Hutchinson, M; Pabst, H. 
 Proceedings of Intl. Supercomputing Conference, 981-991 (2016). 
 LIBXSMM: Accelerating Small Matrix Multiplications
 by Runtime Code Generation.
 https://doi.org/10.1109/SC.2016.83

 Borstnik, U; VandeVondele, J; Weber, V; Hutter, J. 
 PARALLEL COMPUTING, 40 (5-6), 47-58 (2014). 
 Sparse matrix multiplication: The distributed block-compressed sparse
 row library.
 https://doi.org/10.1016/j.parco.2014.03.012

 Hutter, J; Iannuzzi, M; Schiffmann, F; VandeVondele, J. 
 WIREs Comput Mol Sci., 4 (1), 15-25 (2014). 
 CP2K: atomistic simulations of condensed matter systems.
 https://doi.org/10.1002/wcms.1159

 VandeVondele, J; Borstnik, U; Hutter, J. 
 JOURNAL OF CHEMICAL THEORY AND COMPUTATION, 8 (10), 3565-3573 (2012). 
 Linear Scaling Self-Consistent Field Calculations with Millions of Atoms
 in the Condensed Phase.
 https://doi.org/10.1021/ct200897x

 VandeVondele, J; Hutter, J. 
 JOURNAL OF CHEMICAL PHYSICS, 127 (11), 114105 (2007). 
 Gaussian basis sets for accurate calculations on molecular systems in
 gas and condensed phases.
 https://doi.org/10.1063/1.2770708

 Krack, M. 
 THEORETICAL CHEMISTRY ACCOUNTS, 114 (1-3), 145-152 (2005). 
 Pseudopotentials for H to Kr optimized for gradient-corrected
 exchange-correlation functionals.
 https://doi.org/10.1007/s00214-005-0655-y

 VandeVondele, J; Krack, M; Mohamed, F; Parrinello, M; Chassaing, T;
 Hutter, J. COMPUTER PHYSICS COMMUNICATIONS, 167 (2), 103-128 (2005). 
 QUICKSTEP: Fast and accurate density functional calculations using a
 mixed Gaussian and plane waves approach.
 https://doi.org/10.1016/j.cpc.2004.12.014

 Frigo, M; Johnson, SG. 
 PROCEEDINGS OF THE IEEE, 93 (2), 216-231 (2005). 
 The design and implementation of FFTW3.
 https://doi.org/10.1109/JPROC.2004.840301

 Niklasson, AMN; Tymczak, CJ; Challacombe, M. 
 JOURNAL OF CHEMICAL PHYSICS, 118 (19), 8611-8620 (2003). 
 Trace resetting density matrix purification in O(N)
 self-consistent-field theory.
 https://doi.org/10.1063/1.1559913

 Hartwigsen, C; Goedecker, S; Hutter, J. 
 PHYSICAL REVIEW B, 58 (7), 3641-3662 (1998). 
 Relativistic separable dual-space Gaussian pseudopotentials from H to Rn.
 https://doi.org/10.1103/PhysRevB.58.3641

 Lippert, G; Hutter, J; Parrinello, M. 
 MOLECULAR PHYSICS, 92 (3), 477-487 (1997). 
 A hybrid Gaussian and plane wave density functional scheme.
 https://doi.org/10.1080/002689797170220

 Perdew, JP; Burke, K; Ernzerhof, M. 
 PHYSICAL REVIEW LETTERS, 77 (18), 3865-3868 (1996). 
 Generalized gradient approximation made simple.
 https://doi.org/10.1103/PhysRevLett.77.3865

 Goedecker, S; Teter, M; Hutter, J. 
 PHYSICAL REVIEW B, 54 (3), 1703-1710 (1996). 
 Separable dual-space Gaussian pseudopotentials.
 https://doi.org/10.1103/PhysRevB.54.1703


 -------------------------------------------------------------------------------
 -                                                                             -
 -                                T I M I N G                                  -
 -                                                                             -
 -------------------------------------------------------------------------------
 SUBROUTINE                       CALLS  ASD         SELF TIME        TOTAL TIME
                                MAXIMUM       AVERAGE  MAXIMUM  AVERAGE  MAXIMUM
 CP2K                                 1  1.0    0.011    0.011   31.307   31.307
 qs_energies                          1  2.0    0.000    0.000   30.683   30.683
 ls_scf                               1  3.0    0.000    0.000   30.452   30.452
 ls_scf_main                          4  4.0    0.001    0.001   19.043   19.043
 ls_scf_dm_to_ks                      9  5.0    0.000    0.000   18.982   18.982
 qs_ks_update_qs_env                 10  6.0    0.000    0.000   17.934   17.934
 rebuild_ks_matrix                   10  7.0    0.000    0.000   17.934   17.934
 qs_ks_build_kohn_sham_matrix        10  8.0    0.003    0.003   17.933   17.933
 qs_vxc_create                       10  9.0    0.000    0.000   11.715   11.715
 xc_vxc_pw_create                    10 10.0    0.291    0.291   11.714   11.714
 pw_transfer                        191 11.1    0.029    0.029    9.920    9.920
 fft_wrap_pw1pw2                    171 12.3    0.004    0.004    9.541    9.541
 fft_wrap_pw1pw2_200                111 13.7    1.279    1.279    9.235    9.235
 pao_update                           4  4.0    0.008    0.008    7.537    7.537
 xc_pw_derive                        60 12.0    0.001    0.001    7.208    7.208
 pao_calc_energy                    415  5.0    0.003    0.003    6.819    6.819
 xc_rho_set_and_dset_create          10 11.0    0.341    0.341    6.437    6.437
 dbcsr_multiply_generic           22268  8.4    0.338    0.338    5.388    5.388
 qs_rho_update_rho_low               10  6.0    0.000    0.000    4.868    4.868
 calculate_rho_elec                  10  7.0    0.046    0.046    4.868    4.868
 xc_pw_divergence                    10 11.0    0.001    0.001    4.777    4.777
 sum_up_and_integrate                10  9.0    0.169    0.169    4.183    4.183
 integrate_v_rspace                  10 10.0    0.001    0.001    4.014    4.014
 pao_guess_initial_P                  1  4.0    0.000    0.000    3.825    3.825
 pao_read_preopt_dm                   1  5.0    0.000    0.000    3.825    3.825
 fft3d_s                            172 14.2    3.655    3.655    3.708    3.708
 pao_dm_trs4                        415  6.0    0.002    0.002    3.497    3.497
 density_matrix_trs4                424  7.0    0.108    0.108    3.346    3.346
 ls_scf_init_matrix_S               419  7.0    0.003    0.003    3.300    3.300
 pao_rebuild_S                      415  6.0    0.001    0.001    3.272    3.272
 matrix_sqrt_Newton_Schulz          419  8.0    0.073    0.073    2.982    2.982
 grid_integrate_task_list            10 11.0    2.919    2.919    2.919    2.919
 grid_collocate_task_list            10  8.0    2.611    2.611    2.611    2.611
 pw_scatter_s                        90 14.7    2.376    2.376    2.376    2.376
 density_rs2pw                       10  8.0    0.001    0.001    2.211    2.211
 pw_gather_s                         81 13.8    2.132    2.132    2.132    2.132
 xc_functional_eval                  10 12.0    0.000    0.000    2.110    2.110
 pbe_lda_eval                        10 13.0    2.110    2.110    2.110    2.110
 multiply_cannon                  22268  9.4    0.836    0.836    2.021    2.021
 make_m2s                         44536  9.4    0.131    0.131    2.019    2.019
 make_images                      44536 10.4    0.499    0.499    1.788    1.788
 pw_derive                           60 13.0    1.651    1.651    1.651    1.651
 pw_copy                            120 11.8    1.223    1.223    1.223    1.223
 potential_pw2rs                     10 11.0    0.002    0.002    1.094    1.094
 arnoldi_extremal                   843  8.5    0.003    0.003    1.092    1.092
 arnoldi_normal_ev                  843  9.5    0.009    0.009    1.089    1.089
 pw_axpy                             90 10.3    0.876    0.876    0.876    0.876
 pw_poisson_solve                    10  9.0    0.163    0.163    0.875    0.875
 build_subspace                     843 10.5    0.044    0.044    0.856    0.856
 dbcsr_matrix_vector_mult         20223 11.5    0.092    0.092    0.792    0.792
 pao_calc_AB                        546  5.8    0.001    0.001    0.713    0.713
 pao_calc_AB_equi                   546  6.8    0.021    0.021    0.713    0.713
 pao_calc_grad_lnv_wrt_AB           130  7.0    0.005    0.005    0.643    0.643
 -------------------------------------------------------------------------------

 The number of warnings for this run is : 0
 
 -------------------------------------------------------------------------------
  **** **** ******  **  PROGRAM ENDED AT                 2023-02-01 10:44:26.512
 ***** ** ***  *** **   PROGRAM RAN ON                                    moritz
 **    ****   ******    PROGRAM RAN BY                                       ole
 ***** **    ** ** **   PROGRAM PROCESS ID                                148520
  **** **  *******  **  PROGRAM STOPPED IN /home/ole/git/pao_ml_equivar/2H2O_rot
                                           ations/rand_16
