6
Properties=species:S:1:pos:R:3 i=0 time=0.0 E=-34.4504806384 pbc="F F F"
O        6.08845646       0.88205851      -2.23331188
H        6.13192561       0.93936464      -1.27304346
H        5.25981285       0.43251096      -2.42666588
O        5.99640254       3.65086937      -3.38409879
H        6.72525230       3.79088577      -3.99508032
H        6.10121366       2.74225141      -3.06183022
