 DBCSR| CPU Multiplication driver                                           BLAS
 DBCSR| Multrec recursion limit                                              512
 DBCSR| Multiplication stack size                                           1000
 DBCSR| Maximum elements for images                                    UNLIMITED
 DBCSR| Multiplicative factor virtual images                                   1
 DBCSR| Use multiplication densification                                       T
 DBCSR| Multiplication size stacks                                             3


  **** **** ******  **  PROGRAM STARTED AT               2019-03-28 17:34:30.448
 ***** ** ***  *** **   PROGRAM STARTED ON        oleschuett.zrh.corp.google.com
 **    ****   ******    PROGRAM STARTED BY                            oleschuett
 ***** **    ** ** **   PROGRAM PROCESS ID                                 37093
  **** **  *******  **  PROGRAM STARTED IN /usr/local/google/home/oleschuett/git
                                           /pao_ml_equivar/2H2O_rotations/rand_1
                                           4

 CP2K| version string:                    CP2K version 7.0 (Development Version)
 CP2K| source code revision number:                                git:d9814d431
 CP2K| cp2kflags: libint fftw3 libxc libderiv_max_am1=5 libint_max_am=6         
 CP2K| is freely available from                            https://www.cp2k.org/
 CP2K| Program compiled at                          Mon Mar 25 16:50:07 CET 2019
 CP2K| Program compiled on                        oleschuett.zrh.corp.google.com
 CP2K| Program compiled for                                                local
 CP2K| Data directory path       /usr/local/google/home/oleschuett/git/cp2k/data
 CP2K| Input file name                                            2H2O_pao44.inp

 GLOBAL| Force Environment number                                              1
 GLOBAL| Basis set file name                                        BASIS_MOLOPT
 GLOBAL| Potential file name                                      GTH_POTENTIALS
 GLOBAL| MM Potential file name                                     MM_POTENTIAL
 GLOBAL| Coordinate file name                                         coords.xyz
 GLOBAL| Method name                                                        CP2K
 GLOBAL| Project name                                                 2H2O_pao44
 GLOBAL| Preferred FFT library                                             FFTW3
 GLOBAL| Preferred diagonalization lib.                                       SL
 GLOBAL| Run type                                                         ENERGY
 GLOBAL| All-to-all communication in single precision                          F
 GLOBAL| FFTs using library dependent lengths                                  F
 GLOBAL| Global print level                                                  LOW
 GLOBAL| MPI I/O enabled                                                       T
 GLOBAL| Total number of message passing processes                             1
 GLOBAL| Number of threads for this process                                    1
 GLOBAL| This output is from process                                           0
 GLOBAL| CPU model name :  Intel(R) Xeon(R) CPU E5-1650 v4 @ 3.60GHz

 MEMORY| system memory details [Kb]
 MEMORY|                        rank 0           min           max       average
 MEMORY| MemTotal             65953612      65953612      65953612      65953612
 MEMORY| MemFree               4269272       4269272       4269272       4269272
 MEMORY| Buffers               2542464       2542464       2542464       2542464
 MEMORY| Cached               25348824      25348824      25348824      25348824
 MEMORY| Slab                  3622844       3622844       3622844       3622844
 MEMORY| SReclaimable          2421536       2421536       2421536       2421536
 MEMORY| MemLikelyFree        34582096      34582096      34582096      34582096


 GENERATE|  Preliminary Number of Bonds generated:                             0
 GENERATE|  Achieved consistency in connectivity generation.

 *******************************************************************************
 *******************************************************************************
 **                                                                           **
 **     #####                         ##              ##                      **
 **    ##   ##            ##          ##              ##                      **
 **   ##     ##                       ##            ######                    **
 **   ##     ##  ##   ##  ##   #####  ##  ##   ####   ##    #####    #####    **
 **   ##     ##  ##   ##  ##  ##      ## ##   ##      ##   ##   ##  ##   ##   **
 **   ##  ## ##  ##   ##  ##  ##      ####     ###    ##   ######   ######    **
 **    ##  ###   ##   ##  ##  ##      ## ##      ##   ##   ##       ##        **
 **     #######   #####   ##   #####  ##  ##  ####    ##    #####   ##        **
 **           ##                                                    ##        **
 **                                                                           **
 **                                                ... make the atoms dance   **
 **                                                                           **
 **            Copyright (C) by CP2K developers group (2000 - 2018)           **
 **                                                                           **
 *******************************************************************************


 TOTAL NUMBERS AND MAXIMUM NUMBERS

  Total number of            - Atomic kinds:                                   2
                             - Atoms:                                          6
                             - Shell sets:                                     6
                             - Shells:                                        22
                             - Primitive Cartesian functions:                 42
                             - Cartesian basis functions:                     48
                             - Spherical basis functions:                     46

  Maximum angular momentum of- Orbital basis functions:                        2
                             - Local part of the GTH pseudopotential:          2
                             - Non-local part of the GTH pseudopotential:      0

 ------------------------------ Linear scaling SCF -----------------------------
 eps_scf:                                                              0.100E-07
 eps_filter:                                                           0.100E-07
 mixing_fraction:                                                      0.450E+00
 max_scf:                                                                     25
 fixed chemical potential (mu)                                                 F
 has unit metric:                                                              F
 Computing inv(S):                                                             T
 Computing sqrt(S):                                                            T
 Computing s preconditioner                                                    F
 sign sqrt order:                                                              3
 Extrapolation order:                                                          1
 Use single precision matrices                                                 F
 S preconditioner type                                                      NONE
 Polarized Atomic Orbitals (PAO)                                               T
 Purification method                                   Trace resetting 4th order
 Cluster type                                                             ATOMIC
 Computing Chebyshev                                                       FALSE
 Using PAO                                                                     T
 -------------------------------------------------------------------------------

 
 PAO|                                  EPS_PAO                           0.1E-04
 PAO|                                  MIXING                            0.5E+00
 PAO|                                  MAX_PAO                              1000
 PAO|                                  MAX_CYCLES                           1000
 PAO|                                  PARAMETERIZATION                   DIRECT
 PAO|                                  PRECONDITION                            F
 PAO|                                  REGULARIZATION                    0.0E+00
 PAO|                                  EPS_PGF                           0.1E-09
 PAO|                                  PENALTY_DISTANCE                  0.1E+00
 PAO|                                  PENALTY_STRENGTH                  0.5E-02
 PAO|                                  LINPOT_PRECONDITION_DELTA         0.0E+00
 PAO|                                  LINPOT_INITGUESS_DELT             0.0E+00
 PAO|                                  LINPOT_REGULARIZATION_DELTA       0.0E+00
 PAO|                                  LINPOT_REGULARIZATION_STRENGTH    0.0E+00
 PAO|                                  OPTIMIZER                              CG
 PAO|                                  CG_INIT_STEPS                           2
 PAO|                                  CG_RESET_LIMIT                    0.1E+00
 PAO|                                  CHECK_UNITARY_TOL                -0.1E+01
 PAO|                                  CHECK_GRADIENT_TOL               -0.1E+01
 PAO|                                  NUM_GRADIENT_ORDER                      2
 PAO|                                  NUM_GRADIENT_EPS                  0.1E-07
 PAO|                                  PRINT%RESTART%WRITE_CYCLES            100
 PAO|                                  RESTART_FILE 
 PAO|                                  PREOPT_DM_FILE 2H2O_ref_LS_DM_SPIN_1_RESTART.dm
 PAO|                                  MACHINE_LEARNING%METHOD        GAUSSIAN_P
 PAO|                                  MACHINE_LEARNING%PRIOR               ZERO
 PAO|                                  MACHINE_LEARNING%DESCRIPTOR     POTENTIAL
 PAO|                                  MACHINE_LEARNING%TOLERANCE        0.1E-01
 PAO|                                  MACHINE_LEARNING%GP_NOISE_VAR     0.1E+00
 PAO|                                  MACHINE_LEARNING%GP_SCALE         0.5E-01
 

 Calculating atomic Fock matrix for atomic kind: O

 Electronic structure
    Total number of core electrons                                          2.00
    Total number of valence electrons                                       6.00
    Total number of electrons                                               8.00
    Multiplicity                                                   not specified
    S   [  2.00] 2.00
    P      4.00


 *******************************************************************************
                  Iteration          Convergence                     Energy [au]
 *******************************************************************************
                          1        0.708315                     -15.576645311500
                          2        0.608879                     -15.587933561584
                          3        0.102828E-01                 -15.656849565404
                          4        0.113889E-02                 -15.656866888140
                          5        0.434197E-03                 -15.656867072159
                          6        0.263771E-03                 -15.656867091904
                          7        0.478536E-06                 -15.656867103452

 Energy components [Hartree]           Total Energy ::          -15.656867103452
                                        Band Energy ::           -3.000198112285
                                     Kinetic Energy ::           11.759971203220
                                   Potential Energy ::          -27.416838306672
                                      Virial (-V/T) ::            2.331369510426
                                        Core Energy ::          -26.140716385623
                                          XC Energy ::           -3.154051012914
                                     Coulomb Energy ::           13.637900295084
                       Total Pseudopotential Energy ::          -37.935781716540
                       Local Pseudopotential Energy ::          -39.218907440693
                    Nonlocal Pseudopotential Energy ::            1.283125724153
                                        Confinement ::            0.350941276976

 Orbital energies  State     L     Occupation   Energy[a.u.]          Energy[eV]

                       1     0          2.000      -0.864471          -23.523463

                       1     1          4.000      -0.317814           -8.648154


 Total Electron Density at R=0:                                         0.000068

 Calculating atomic Fock matrix for atomic kind: H

 Electronic structure
    Total number of core electrons                                          0.00
    Total number of valence electrons                                       1.00
    Total number of electrons                                               1.00
    Multiplicity                                                   not specified
    S      1.00


 *******************************************************************************
                  Iteration          Convergence                     Energy [au]
 *******************************************************************************
                          1        0.437545E-02                  -0.424159432110
                          2        0.531356E-03                  -0.424178438213
                          3        0.259176E-06                  -0.424178722480

 Energy components [Hartree]           Total Energy ::           -0.424178722480
                                        Band Energy ::           -0.199015229016
                                     Kinetic Energy ::            0.464007633961
                                   Potential Energy ::           -0.888186356441
                                      Virial (-V/T) ::            1.914163240935
                                        Core Energy ::           -0.479160803564
                                          XC Energy ::           -0.244352904054
                                     Coulomb Energy ::            0.299334985138
                       Total Pseudopotential Energy ::           -0.962295316385
                       Local Pseudopotential Energy ::           -0.962295316385
                    Nonlocal Pseudopotential Energy ::            0.000000000000
                                        Confinement ::            0.191268788606

 Orbital energies  State     L     Occupation   Energy[a.u.]          Energy[eV]

                       1     0          1.000      -0.199015           -5.415480


 Total Electron Density at R=0:                                         0.242907
 PAO| Made initial guess for matrix_X with norm:   4.8989794855663558     

     Lanczos converged:  T threshold:   0.100E-02
     Est. extremal eigenvalues:    0.336E+01   0.109E+00
     Est. condition number :    0.308E+02
     NS sqrt iter    1 1.00000000   0.820E+00       0.002       34.312
     NS sqrt iter    2 1.00000000   0.440E+00       0.002       66.069
     NS sqrt iter    3 1.00000000   0.171E+00       0.002       68.499
     NS sqrt iter    4 1.00000000   0.214E-01       0.002       59.112
     NS sqrt iter    5 1.00000000   0.668E-04       0.002       63.402
     Final NS sqrt iter    5 1.00000000   0.287E-08

 PAO| Read restart DM 2H2O_ref_LS_DM_SPIN_1_RESTART.dm with checksum:    60.997853736274521     
 PAO| Quickstep energy from restart density:  -34.450128674009335     
 PAO| ======================= Iteration:         1 =============================

     Lanczos converged:  T threshold:   0.100E-02
     Est. extremal eigenvalues:    0.336E+01   0.109E+00
     Est. condition number :    0.308E+02
     NS sqrt iter    1 1.00000000   0.820E+00       0.002       40.341
     NS sqrt iter    2 1.00000000   0.440E+00       0.002       64.389
     NS sqrt iter    3 1.00000000   0.171E+00       0.002       60.154
     NS sqrt iter    4 1.00000000   0.214E-01       0.002       65.202
     NS sqrt iter    5 1.00000000   0.668E-04       0.002       60.286
     Final NS sqrt iter    5 1.00000000   0.287E-08

     Est. extremal eigenvalues     -0.92083     1.98746  converged:  T
     TRS4 it   1 1.00000000   0.907E+00       0.001       16.128   0.100E-07
     TRS4 it   2 1.00000000   0.718E+00       0.001       32.256   0.100E-07
     TRS4 it   3 1.00000000   0.509E+00       0.001       32.256   0.100E-07
     TRS4 it   4 1.00000000   0.322E+00       0.001       32.256   0.100E-07
     TRS4 it   5 1.00000000   0.162E+00       0.001       32.256   0.100E-07
     TRS4 it   6 1.00000000   0.524E-01       0.001       32.256   0.100E-07
     TRS4 it   7 1.00000000   0.772E-02       0.001       32.256   0.100E-07
     TRS4 it   8 1.00000000   0.237E-03       0.001       32.256   0.100E-07
     TRS4 it   9 1.00000000   0.250E-06       0.001       32.256   0.100E-07
     TRS4 it  10 1.00000000   0.280E-12       0.001       31.424   0.100E-07
     Final TRS4 iteration   10 1.00000000   0.280E-12
     Chemical potential (mu):      -0.06651
 
 PAO| energy:  -7.6315063795016247      penalty:   3.4512664603419270E-033
 PAO|CG| warming up with steepest descent
 PAO|CG| beta:    0.0000000000000000     
 PAO| norm of gradient:  0.78338854093050303     
 PAO|LS| adapt:  T F F
 PAO|LS| adapt: scan_steps:    0.0000000000000000        0.0000000000000000        0.0000000000000000     
 PAO|LS| adapt: energies:   -7.6315063795016247        0.0000000000000000        0.0000000000000000     
 PAO| ======================= Iteration:         2 =============================

     Lanczos converged:  T threshold:   0.100E-02
     Est. extremal eigenvalues:    0.327E+01   0.121E+00
     Est. condition number :    0.271E+02
     NS sqrt iter    1 1.00000000   0.803E+00       0.002       33.609
     NS sqrt iter    2 1.00000000   0.425E+00       0.002       63.537
     NS sqrt iter    3 1.00000000   0.154E+00       0.002       64.587
     NS sqrt iter    4 1.00000000   0.150E-01       0.002       63.659
     NS sqrt iter    5 1.00000000   0.236E-04       0.002       48.198
     Final NS sqrt iter    5 1.00000000   0.889E-09

     Est. extremal eigenvalues     -0.92450     1.92942  converged:  T
     TRS4 it   1 1.00000000   0.905E+00       0.001       16.128   0.100E-07
     TRS4 it   2 1.00000000   0.699E+00       0.001       31.721   0.100E-07
     TRS4 it   3 1.00000000   0.496E+00       0.001       30.454   0.100E-07
     TRS4 it   4 1.00000000   0.303E+00       0.001       32.237   0.100E-07
     TRS4 it   5 1.00000000   0.144E+00       0.001       32.256   0.100E-07
     TRS4 it   6 1.00000000   0.414E-01       0.001       32.256   0.100E-07
     TRS4 it   7 1.00000000   0.486E-02       0.001       29.284   0.100E-07
     TRS4 it   8 1.00000000   0.946E-04       0.001       32.075   0.100E-07
     TRS4 it   9 1.00000000   0.398E-07       0.001       32.256   0.100E-07
     Final TRS4 iteration    9 1.00000000   0.398E-07
     Chemical potential (mu):      -0.05463
 
 PAO| energy:  -7.6869844676088803      penalty:   2.2501682032154194E-008
 PAO|LS| adapt:  T T F
 PAO|LS| adapt: scan_steps:    0.0000000000000000       0.10000000000000001        0.0000000000000000     
 PAO|LS| adapt: energies:   -7.6315063795016247       -7.6869844676088803        0.0000000000000000     
 PAO| ======================= Iteration:         3 =============================

     Lanczos converged:  T threshold:   0.100E-02
     Est. extremal eigenvalues:    0.318E+01   0.132E+00
     Est. condition number :    0.241E+02
     NS sqrt iter    1 1.00000000   0.786E+00       0.002       37.768
     NS sqrt iter    2 1.00000000   0.408E+00       0.002       64.480
     NS sqrt iter    3 1.00000000   0.137E+00       0.002       64.404
     NS sqrt iter    4 1.00000000   0.105E-01       0.002       60.367
     NS sqrt iter    5 1.00000000   0.862E-05       0.002       53.378
     Final NS sqrt iter    5 1.00000000   0.119E-09

     Est. extremal eigenvalues     -0.92793     1.88062  converged:  T
     TRS4 it   1 1.00000000   0.903E+00       0.001       16.128   0.100E-07
     TRS4 it   2 1.00000000   0.683E+00       0.001       32.256   0.100E-07
     TRS4 it   3 1.00000000   0.482E+00       0.001       32.256   0.100E-07
     TRS4 it   4 1.00000000   0.285E+00       0.001       32.256   0.100E-07
     TRS4 it   5 1.00000000   0.126E+00       0.001       32.256   0.100E-07
     TRS4 it   6 1.00000000   0.318E-01       0.001       32.256   0.100E-07
     TRS4 it   7 1.00000000   0.285E-02       0.001       32.256   0.100E-07
     TRS4 it   8 1.00000000   0.325E-04       0.001       32.007   0.100E-07
     TRS4 it   9 1.00000000   0.470E-08       0.001       32.256   0.100E-07
     Final TRS4 iteration    9 1.00000000   0.470E-08
     Chemical potential (mu):      -0.04178
 
 PAO| energy:  -7.7300238778232533      penalty:   3.6002686595983549E-007
 PAO|LS| adapt:  T T F
 PAO|LS| adapt: scan_steps:    0.0000000000000000       0.20000000000000001        0.0000000000000000     
 PAO|LS| adapt: energies:   -7.6315063795016247       -7.7300238778232533        0.0000000000000000     
 PAO| ======================= Iteration:         4 =============================

     Lanczos converged:  T threshold:   0.100E-02
     Est. extremal eigenvalues:    0.299E+01   0.150E+00
     Est. condition number :    0.199E+02
     NS sqrt iter    1 1.00000000   0.749E+00       0.002       38.079
     NS sqrt iter    2 1.00000000   0.374E+00       0.002       64.388
     NS sqrt iter    3 1.00000000   0.108E+00       0.002       57.885
     NS sqrt iter    4 1.00000000   0.529E-02       0.002       64.969
     NS sqrt iter    5 1.00000000   0.128E-05       0.002       52.110
     Final NS sqrt iter    5 1.00000000   0.273E-11

     Est. extremal eigenvalues     -0.93327     1.80501  converged:  T
     TRS4 it   1 1.00000000   0.899E+00       0.001       16.128   0.100E-07
     TRS4 it   2 1.00000000   0.654E+00       0.001       31.661   0.100E-07
     TRS4 it   3 1.00000000   0.454E+00       0.001       32.256   0.100E-07
     TRS4 it   4 1.00000000   0.250E+00       0.001       32.256   0.100E-07
     TRS4 it   5 1.00000000   0.946E-01       0.001       32.256   0.100E-07
     TRS4 it   6 1.00000000   0.173E-01       0.001       32.256   0.100E-07
     TRS4 it   7 1.00000000   0.808E-03       0.001       32.256   0.100E-07
     TRS4 it   8 1.00000000   0.251E-05       0.001       30.003   0.100E-07
     TRS4 it   9 1.00000000   0.280E-10       0.001       32.256   0.100E-07
     Final TRS4 iteration    9 1.00000000   0.280E-10
     Chemical potential (mu):      -0.01331
 
 PAO| energy:  -7.7771899484031568      penalty:   5.7604294829221402E-006
 PAO|LS| Need extra step
 PAO|LS| adapt:  T T F
 PAO|LS| adapt: scan_steps:    0.0000000000000000       0.40000000000000002        0.0000000000000000     
 PAO|LS| adapt: energies:   -7.6315063795016247       -7.7771899484031568        0.0000000000000000     
 PAO| ======================= Iteration:         5 =============================

     Lanczos converged:  T threshold:   0.100E-02
     Est. extremal eigenvalues:    0.263E+01   0.180E+00
     Est. condition number :    0.146E+02
     NS sqrt iter    1 1.00000000   0.685E+00       0.002       36.280
     NS sqrt iter    2 1.00000000   0.312E+00       0.002       57.233
     NS sqrt iter    3 1.00000000   0.669E-01       0.002       64.735
     NS sqrt iter    4 1.00000000   0.147E-02       0.002       66.047
     NS sqrt iter    5 1.00000000   0.315E-07       0.002       44.402
     Final NS sqrt iter    5 1.00000000   0.759E-09

     Est. extremal eigenvalues     -0.93449     1.71030  converged:  T
     TRS4 it   1 1.00000000   0.890E+00       0.001       16.128   0.100E-07
     TRS4 it   2 1.00000000   0.612E+00       0.001       32.256   0.100E-07
     TRS4 it   3 1.00000000   0.406E+00       0.001       32.256   0.100E-07
     TRS4 it   4 1.00000000   0.192E+00       0.001       32.256   0.100E-07
     TRS4 it   5 1.00000000   0.524E-01       0.001       32.256   0.100E-07
     TRS4 it   6 1.00000000   0.484E-02       0.001       30.914   0.100E-07
     TRS4 it   7 1.00000000   0.536E-04       0.001       32.256   0.100E-07
     TRS4 it   8 1.00000000   0.854E-08       0.001       32.256   0.100E-07
     Final TRS4 iteration    8 1.00000000   0.854E-08
     Chemical potential (mu):       0.03538
 
 PAO| energy:  -7.7223065063316056      penalty:   9.2166868747276426E-005
 PAO|LS| Need extra step
 PAO|LS| adapt:  T T T
 PAO|LS| adapt: scan_steps:    0.0000000000000000       0.40000000000000002       0.80000000000000004     
 PAO|LS| adapt: energies:   -7.6315063795016247       -7.7771899484031568       -7.7223065063316056     
 PAO|LS| adapt: suggested step_size:   0.49054343123472754     
 PAO|LS| adapt: predicted energy  -7.7823282953029915     
 PAO| ======================= Iteration:         6 =============================

     Lanczos converged:  T threshold:   0.100E-02
     Est. extremal eigenvalues:    0.290E+01   0.158E+00
     Est. condition number :    0.184E+02
     NS sqrt iter    1 1.00000000   0.733E+00       0.002       37.721
     NS sqrt iter    2 1.00000000   0.359E+00       0.002       61.201
     NS sqrt iter    3 1.00000000   0.963E-01       0.002       66.059
     NS sqrt iter    4 1.00000000   0.392E-02       0.002       65.354
     NS sqrt iter    5 1.00000000   0.548E-06       0.002       52.761
     Final NS sqrt iter    5 1.00000000   0.518E-12

     Est. extremal eigenvalues     -0.93475     1.77820  converged:  T
     TRS4 it   1 1.00000000   0.897E+00       0.001       16.128   0.100E-07
     TRS4 it   2 1.00000000   0.643E+00       0.001       30.954   0.100E-07
     TRS4 it   3 1.00000000   0.443E+00       0.001       32.256   0.100E-07
     TRS4 it   4 1.00000000   0.235E+00       0.001       31.545   0.100E-07
     TRS4 it   5 1.00000000   0.826E-01       0.001       27.245   0.100E-07
     TRS4 it   6 1.00000000   0.129E-01       0.001       30.236   0.100E-07
     TRS4 it   7 1.00000000   0.428E-03       0.001       30.229   0.100E-07
     TRS4 it   8 1.00000000   0.670E-06       0.001       28.541   0.100E-07
     TRS4 it   9 1.00000000   0.196E-11       0.001       30.032   0.100E-07
     Final TRS4 iteration    9 1.00000000   0.196E-11
     Chemical potential (mu):       0.00054
 
 PAO| energy:  -7.7815969356485146      penalty:   1.3029410054820865E-005
 PAO|CG| warming up with steepest descent
 PAO|CG| beta:    0.0000000000000000     
 PAO| norm of gradient:  0.41659806046189235     
 PAO| energy improvement: -0.15009055614688993     
 PAO| step      6                   -7.781596936  0.260E-01  0.491E+00     0.137
 PAO|LS| adapt:  T F F
 PAO|LS| adapt: scan_steps:    0.0000000000000000        0.0000000000000000        0.0000000000000000     
 PAO|LS| adapt: energies:   -7.7815969356485146        0.0000000000000000        0.0000000000000000     
 PAO| ======================= Iteration:         7 =============================

     Lanczos converged:  T threshold:   0.100E-02
     Est. extremal eigenvalues:    0.281E+01   0.171E+00
     Est. condition number :    0.165E+02
     NS sqrt iter    1 1.00000000   0.715E+00       0.002       34.918
     NS sqrt iter    2 1.00000000   0.338E+00       0.002       66.694
     NS sqrt iter    3 1.00000000   0.808E-01       0.002       64.907
     NS sqrt iter    4 1.00000000   0.243E-02       0.002       60.515
     NS sqrt iter    5 1.00000000   0.146E-06       0.002       49.938
     Final NS sqrt iter    5 1.00000000   0.915E-09

     Est. extremal eigenvalues     -0.93648     1.76334  converged:  T
     TRS4 it   1 1.00000000   0.895E+00       0.001       16.128   0.100E-07
     TRS4 it   2 1.00000000   0.640E+00       0.001       27.582   0.100E-07
     TRS4 it   3 1.00000000   0.443E+00       0.001       31.630   0.100E-07
     TRS4 it   4 1.00000000   0.236E+00       0.001       31.417   0.100E-07
     TRS4 it   5 1.00000000   0.834E-01       0.001       32.256   0.100E-07
     TRS4 it   6 1.00000000   0.129E-01       0.001       32.256   0.100E-07
     TRS4 it   7 1.00000000   0.406E-03       0.001       32.256   0.100E-07
     TRS4 it   8 1.00000000   0.575E-06       0.001       32.256   0.100E-07
     TRS4 it   9 1.00000000   0.142E-11       0.001       32.256   0.100E-07
     Final TRS4 iteration    9 1.00000000   0.142E-11
     Chemical potential (mu):       0.00220
 
 PAO| energy:  -7.7758737728466238      penalty:   1.9692468868410511E-005
 PAO|LS| adapt:  T F T
 PAO|LS| adapt: scan_steps:    0.0000000000000000        0.0000000000000000       0.49054343123472754     
 PAO|LS| adapt: energies:   -7.7815969356485146        0.0000000000000000       -7.7758737728466238     
 PAO| ======================= Iteration:         8 =============================

     Lanczos converged:  T threshold:   0.100E-02
     Est. extremal eigenvalues:    0.286E+01   0.164E+00
     Est. condition number :    0.174E+02
     NS sqrt iter    1 1.00000000   0.724E+00       0.002       36.345
     NS sqrt iter    2 1.00000000   0.348E+00       0.002       55.889
     NS sqrt iter    3 1.00000000   0.884E-01       0.002       56.828
     NS sqrt iter    4 1.00000000   0.311E-02       0.002       65.061
     NS sqrt iter    5 1.00000000   0.288E-06       0.002       50.489
     Final NS sqrt iter    5 1.00000000   0.545E-09

     Est. extremal eigenvalues     -0.93656     1.77020  converged:  T
     TRS4 it   1 1.00000000   0.895E+00       0.001       16.128   0.100E-07
     TRS4 it   2 1.00000000   0.641E+00       0.001       29.138   0.100E-07
     TRS4 it   3 1.00000000   0.442E+00       0.001       31.609   0.100E-07
     TRS4 it   4 1.00000000   0.235E+00       0.001       31.708   0.100E-07
     TRS4 it   5 1.00000000   0.827E-01       0.001       32.256   0.100E-07
     TRS4 it   6 1.00000000   0.129E-01       0.001       32.256   0.100E-07
     TRS4 it   7 1.00000000   0.427E-03       0.001       30.492   0.100E-07
     TRS4 it   8 1.00000000   0.659E-06       0.001       32.256   0.100E-07
     TRS4 it   9 1.00000000   0.189E-11       0.001       32.256   0.100E-07
     Final TRS4 iteration    9 1.00000000   0.189E-11
     Chemical potential (mu):       0.00087
 
 PAO| energy:  -7.8012142778556681      penalty:   1.4122619191715987E-005
 PAO|LS| adapt:  T T T
 PAO|LS| adapt: scan_steps:    0.0000000000000000       0.24527171561736377       0.49054343123472754     
 PAO|LS| adapt: energies:   -7.7815969356485146       -7.8012142778556681       -7.7758737728466238     
 PAO|LS| adapt: suggested step_size:   0.22966009221792880     
 PAO|LS| adapt: predicted energy  -7.8013053481428516     
 PAO| ======================= Iteration:         9 =============================

     Lanczos converged:  T threshold:   0.100E-02
     Est. extremal eigenvalues:    0.286E+01   0.164E+00
     Est. condition number :    0.175E+02
     NS sqrt iter    1 1.00000000   0.724E+00       0.002       30.666
     NS sqrt iter    2 1.00000000   0.349E+00       0.002       62.984
     NS sqrt iter    3 1.00000000   0.889E-01       0.002       63.294
     NS sqrt iter    4 1.00000000   0.315E-02       0.002       63.727
     NS sqrt iter    5 1.00000000   0.300E-06       0.002       50.947
     Final NS sqrt iter    5 1.00000000   0.569E-09

     Est. extremal eigenvalues     -0.93651     1.77067  converged:  T
     TRS4 it   1 1.00000000   0.896E+00       0.001       16.128   0.100E-07
     TRS4 it   2 1.00000000   0.641E+00       0.001       29.176   0.100E-07
     TRS4 it   3 1.00000000   0.442E+00       0.001       32.256   0.100E-07
     TRS4 it   4 1.00000000   0.235E+00       0.001       30.369   0.100E-07
     TRS4 it   5 1.00000000   0.827E-01       0.001       32.256   0.100E-07
     TRS4 it   6 1.00000000   0.129E-01       0.001       32.256   0.100E-07
     TRS4 it   7 1.00000000   0.428E-03       0.001       32.256   0.100E-07
     TRS4 it   8 1.00000000   0.662E-06       0.001       32.256   0.100E-07
     TRS4 it   9 1.00000000   0.191E-11       0.001       32.256   0.100E-07
     Final TRS4 iteration    9 1.00000000   0.191E-11
     Chemical potential (mu):       0.00082
 
 PAO| energy:  -7.8013284273198877      penalty:   1.3956647792086579E-005
 PAO|CG| trace_G_new    3.6793393670559726E-002
 PAO|CG| trace_G_prev   0.17355394398061050     
 PAO|CG| trace_G_mix   -1.4326117078344970E-003
 PAO|CG| trace_D   0.17355394398061050     
 PAO|CG| trace_D_Gnew   1.4326117078344970E-003
 PAO|CG| beta:   0.22025431690947253     
 PAO| norm of gradient:  0.19181604122325047     
 PAO| energy improvement:  -1.9731491671373114E-002
 PAO| step      9                   -7.801328427  0.120E-01  0.230E+00     0.089
 PAO|LS| adapt:  T F F
 PAO|LS| adapt: scan_steps:    0.0000000000000000        0.0000000000000000        0.0000000000000000     
 PAO|LS| adapt: energies:   -7.8013284273198877        0.0000000000000000        0.0000000000000000     
 PAO| ======================= Iteration:        10 =============================

     Lanczos converged:  T threshold:   0.100E-02
     Est. extremal eigenvalues:    0.282E+01   0.170E+00
     Est. condition number :    0.166E+02
     NS sqrt iter    1 1.00000000   0.717E+00       0.002       32.685
     NS sqrt iter    2 1.00000000   0.341E+00       0.002       57.784
     NS sqrt iter    3 1.00000000   0.832E-01       0.002       64.806
     NS sqrt iter    4 1.00000000   0.260E-02       0.002       48.715
     NS sqrt iter    5 1.00000000   0.166E-06       0.002       48.580
     Final NS sqrt iter    5 1.00000000   0.922E-09

     Est. extremal eigenvalues     -0.93740     1.76059  converged:  T
     TRS4 it   1 1.00000000   0.892E+00       0.001       16.128   0.100E-07
     TRS4 it   2 1.00000000   0.638E+00       0.001       32.256   0.100E-07
     TRS4 it   3 1.00000000   0.439E+00       0.001       32.256   0.100E-07
     TRS4 it   4 1.00000000   0.232E+00       0.001       32.256   0.100E-07
     TRS4 it   5 1.00000000   0.801E-01       0.001       32.256   0.100E-07
     TRS4 it   6 1.00000000   0.121E-01       0.001       32.256   0.100E-07
     TRS4 it   7 1.00000000   0.369E-03       0.001       32.256   0.100E-07
     TRS4 it   8 1.00000000   0.479E-06       0.001       32.256   0.100E-07
     TRS4 it   9 1.00000000   0.986E-12       0.001       23.437   0.100E-07
     Final TRS4 iteration    9 1.00000000   0.986E-12
     Chemical potential (mu):       0.00399
 
 PAO| energy:  -7.8063472534572966      penalty:   1.4494296587509959E-005
 PAO|LS| adapt:  T T F
 PAO|LS| adapt: scan_steps:    0.0000000000000000       0.22966009221792880        0.0000000000000000     
 PAO|LS| adapt: energies:   -7.8013284273198877       -7.8063472534572966        0.0000000000000000     
 PAO| ======================= Iteration:        11 =============================

     Lanczos converged:  T threshold:   0.100E-02
     Est. extremal eigenvalues:    0.279E+01   0.176E+00
     Est. condition number :    0.159E+02
     NS sqrt iter    1 1.00000000   0.709E+00       0.002       36.676
     NS sqrt iter    2 1.00000000   0.333E+00       0.002       49.959
     NS sqrt iter    3 1.00000000   0.778E-01       0.002       60.767
     NS sqrt iter    4 1.00000000   0.213E-02       0.002       62.170
     NS sqrt iter    5 1.00000000   0.905E-07       0.002       49.500
     Final NS sqrt iter    5 1.00000000   0.790E-09

     Est. extremal eigenvalues     -0.93731     1.75152  converged:  T
     TRS4 it   1 1.00000000   0.889E+00       0.001       16.128   0.100E-07
     TRS4 it   2 1.00000000   0.635E+00       0.001       30.540   0.100E-07
     TRS4 it   3 1.00000000   0.436E+00       0.001       30.399   0.100E-07
     TRS4 it   4 1.00000000   0.228E+00       0.001       27.323   0.100E-07
     TRS4 it   5 1.00000000   0.776E-01       0.001       23.103   0.100E-07
     TRS4 it   6 1.00000000   0.113E-01       0.001       25.096   0.100E-07
     TRS4 it   7 1.00000000   0.315E-03       0.001       25.512   0.100E-07
     TRS4 it   8 1.00000000   0.341E-06       0.001       24.529   0.100E-07
     TRS4 it   9 1.00000000   0.489E-12       0.001       25.718   0.100E-07
     Final TRS4 iteration    9 1.00000000   0.489E-12
     Chemical potential (mu):       0.00728
 
 PAO| energy:  -7.8048938191756232      penalty:   1.5700487812894234E-005
 PAO|LS| adapt:  T T T
 PAO|LS| adapt: scan_steps:    0.0000000000000000       0.22966009221792880       0.45932018443585759     
 PAO|LS| adapt: energies:   -7.8013284273198877       -7.8063472534572966       -7.8048938191756232     
 PAO|LS| adapt: suggested step_size:   0.29291683479020580     
 PAO|LS| adapt: predicted energy  -7.8065927631065888     
 PAO| ======================= Iteration:        12 =============================

     Lanczos converged:  T threshold:   0.100E-02
     Est. extremal eigenvalues:    0.281E+01   0.171E+00
     Est. condition number :    0.164E+02
     NS sqrt iter    1 1.00000000   0.715E+00       0.002       35.924
     NS sqrt iter    2 1.00000000   0.339E+00       0.002       63.298
     NS sqrt iter    3 1.00000000   0.817E-01       0.002       45.682
     NS sqrt iter    4 1.00000000   0.246E-02       0.002       64.188
     NS sqrt iter    5 1.00000000   0.141E-06       0.002       49.872
     Final NS sqrt iter    5 1.00000000   0.878E-09

     Est. extremal eigenvalues     -0.93747     1.75799  converged:  T
     TRS4 it   1 1.00000000   0.891E+00       0.001       16.128   0.100E-07
     TRS4 it   2 1.00000000   0.637E+00       0.001       32.256   0.100E-07
     TRS4 it   3 1.00000000   0.438E+00       0.001       32.256   0.100E-07
     TRS4 it   4 1.00000000   0.231E+00       0.001       32.256   0.100E-07
     TRS4 it   5 1.00000000   0.794E-01       0.001       32.256   0.100E-07
     TRS4 it   6 1.00000000   0.119E-01       0.001       32.256   0.100E-07
     TRS4 it   7 1.00000000   0.353E-03       0.001       31.254   0.100E-07
     TRS4 it   8 1.00000000   0.437E-06       0.001       32.256   0.100E-07
     TRS4 it   9 1.00000000   0.816E-12       0.001       32.256   0.100E-07
     Final TRS4 iteration    9 1.00000000   0.816E-12
     Chemical potential (mu):       0.00488
 
 PAO| energy:  -7.8065767438660023      penalty:   1.4752257705035700E-005
 PAO|CG| trace_G_new    1.1788229099378641E-002
 PAO|CG| trace_G_prev    3.6793393670559726E-002
 PAO|CG| trace_G_mix   -4.6418898540771846E-004
 PAO|CG| trace_D    4.4581758547144586E-002
 PAO|CG| trace_D_Gnew   2.1286103259679718E-004
 PAO|CG| beta:   0.33300592477258073     
 PAO| norm of gradient:  0.10857361143196187     
 PAO| energy improvement:  -5.2483165461145731E-003
 PAO| step     12                   -7.806576744  0.679E-02  0.293E+00     0.092
 PAO|LS| adapt:  T F F
 PAO|LS| adapt: scan_steps:    0.0000000000000000        0.0000000000000000        0.0000000000000000     
 PAO|LS| adapt: energies:   -7.8065767438660023        0.0000000000000000        0.0000000000000000     
 PAO| ======================= Iteration:        13 =============================

     Lanczos converged:  T threshold:   0.100E-02
     Est. extremal eigenvalues:    0.278E+01   0.175E+00
     Est. condition number :    0.158E+02
     NS sqrt iter    1 1.00000000   0.708E+00       0.002       36.543
     NS sqrt iter    2 1.00000000   0.332E+00       0.002       51.839
     NS sqrt iter    3 1.00000000   0.774E-01       0.002       58.482
     NS sqrt iter    4 1.00000000   0.210E-02       0.002       64.692
     NS sqrt iter    5 1.00000000   0.885E-07       0.002       48.156
     Final NS sqrt iter    5 1.00000000   0.784E-09

     Est. extremal eigenvalues     -0.93795     1.74902  converged:  T
     TRS4 it   1 1.00000000   0.890E+00       0.001       16.128   0.100E-07
     TRS4 it   2 1.00000000   0.633E+00       0.001       23.694   0.100E-07
     TRS4 it   3 1.00000000   0.434E+00       0.001       25.104   0.100E-07
     TRS4 it   4 1.00000000   0.226E+00       0.001       26.332   0.100E-07
     TRS4 it   5 1.00000000   0.757E-01       0.001       25.621   0.100E-07
     TRS4 it   6 1.00000000   0.107E-01       0.001       31.010   0.100E-07
     TRS4 it   7 1.00000000   0.284E-03       0.001       31.272   0.100E-07
     TRS4 it   8 1.00000000   0.275E-06       0.001       32.256   0.100E-07
     TRS4 it   9 1.00000000   0.316E-12       0.001       31.905   0.100E-07
     Final TRS4 iteration    9 1.00000000   0.316E-12
     Chemical potential (mu):       0.00943
 
 PAO| energy:  -7.8086372584033255      penalty:   1.5054565324561794E-005
 PAO|LS| adapt:  T T F
 PAO|LS| adapt: scan_steps:    0.0000000000000000       0.29291683479020580        0.0000000000000000     
 PAO|LS| adapt: energies:   -7.8065767438660023       -7.8086372584033255        0.0000000000000000     
 PAO| ======================= Iteration:        14 =============================

     Lanczos converged:  T threshold:   0.100E-02
     Est. extremal eigenvalues:    0.274E+01   0.180E+00
     Est. condition number :    0.153E+02
     NS sqrt iter    1 1.00000000   0.700E+00       0.002       37.960
     NS sqrt iter    2 1.00000000   0.325E+00       0.002       63.695
     NS sqrt iter    3 1.00000000   0.733E-01       0.002       56.807
     NS sqrt iter    4 1.00000000   0.180E-02       0.002       62.465
     NS sqrt iter    5 1.00000000   0.554E-07       0.002       46.600
     Final NS sqrt iter    5 1.00000000   0.553E-09

     Est. extremal eigenvalues     -0.93794     1.74040  converged:  T
     TRS4 it   1 1.00000000   0.889E+00       0.001       16.128   0.100E-07
     TRS4 it   2 1.00000000   0.630E+00       0.001       31.118   0.100E-07
     TRS4 it   3 1.00000000   0.430E+00       0.001       30.302   0.100E-07
     TRS4 it   4 1.00000000   0.221E+00       0.001       30.214   0.100E-07
     TRS4 it   5 1.00000000   0.720E-01       0.001       30.853   0.100E-07
     TRS4 it   6 1.00000000   0.965E-02       0.001       30.869   0.100E-07
     TRS4 it   7 1.00000000   0.228E-03       0.001       26.950   0.100E-07
     TRS4 it   8 1.00000000   0.172E-06       0.001       31.037   0.100E-07
     TRS4 it   9 1.00000000   0.121E-12       0.001       30.107   0.100E-07
     Final TRS4 iteration    9 1.00000000   0.121E-12
     Chemical potential (mu):       0.01387
 
 PAO| energy:  -7.8080039464820912      penalty:   1.5831824360890858E-005
 PAO|LS| adapt:  T T T
 PAO|LS| adapt: scan_steps:    0.0000000000000000       0.29291683479020580       0.58583366958041161     
 PAO|LS| adapt: energies:   -7.8065767438660023       -7.8086372584033255       -7.8080039464820912     
 PAO|LS| adapt: suggested step_size:   0.37051123059492341     
 PAO|LS| adapt: predicted energy  -7.8087317757812409     
 PAO| ======================= Iteration:        15 =============================

     Lanczos converged:  T threshold:   0.100E-02
     Est. extremal eigenvalues:    0.277E+01   0.177E+00
     Est. condition number :    0.157E+02
     NS sqrt iter    1 1.00000000   0.706E+00       0.002       27.761
     NS sqrt iter    2 1.00000000   0.330E+00       0.002       58.964
     NS sqrt iter    3 1.00000000   0.763E-01       0.002       63.302
     NS sqrt iter    4 1.00000000   0.202E-02       0.002       59.901
     NS sqrt iter    5 1.00000000   0.782E-07       0.002       39.577
     Final NS sqrt iter    5 1.00000000   0.632E-09

     Est. extremal eigenvalues     -0.93800     1.74670  converged:  T
     TRS4 it   1 1.00000000   0.890E+00       0.001       16.128   0.100E-07
     TRS4 it   2 1.00000000   0.633E+00       0.001       29.554   0.100E-07
     TRS4 it   3 1.00000000   0.433E+00       0.001       22.826   0.100E-07
     TRS4 it   4 1.00000000   0.224E+00       0.001       26.443   0.100E-07
     TRS4 it   5 1.00000000   0.747E-01       0.001       30.573   0.100E-07
     TRS4 it   6 1.00000000   0.104E-01       0.001       32.256   0.100E-07
     TRS4 it   7 1.00000000   0.268E-03       0.001       32.256   0.100E-07
     TRS4 it   8 1.00000000   0.243E-06       0.001       32.256   0.100E-07
     TRS4 it   9 1.00000000   0.246E-12       0.001       31.758   0.100E-07
     Final TRS4 iteration    9 1.00000000   0.246E-12
     Chemical potential (mu):       0.01061
 
 PAO| energy:  -7.8087286963595046      penalty:   1.5211164733461049E-005
 PAO|CG| trace_G_new    2.6160229322824734E-003
 PAO|CG| trace_G_prev    1.1788229099378641E-002
 PAO|CG| trace_G_mix    6.4885392376997795E-005
 PAO|CG| trace_D    1.6590263669557931E-002
 PAO|CG| trace_D_Gnew   3.3770569128888396E-005
 PAO|CG| beta:   0.21641397689157113     
 PAO| norm of gradient:   5.1147071590487696E-002
 PAO| energy improvement:  -2.1519524935023071E-003
 PAO| step     15                   -7.808728696  0.320E-02  0.371E+00     0.094
 PAO|LS| adapt:  T F F
 PAO|LS| adapt: scan_steps:    0.0000000000000000        0.0000000000000000        0.0000000000000000     
 PAO|LS| adapt: energies:   -7.8087286963595046        0.0000000000000000        0.0000000000000000     
 PAO| ======================= Iteration:        16 =============================

     Lanczos converged:  T threshold:   0.100E-02
     Est. extremal eigenvalues:    0.276E+01   0.177E+00
     Est. condition number :    0.156E+02
     NS sqrt iter    1 1.00000000   0.704E+00       0.002       30.585
     NS sqrt iter    2 1.00000000   0.328E+00       0.002       48.289
     NS sqrt iter    3 1.00000000   0.756E-01       0.002       50.243
     NS sqrt iter    4 1.00000000   0.196E-02       0.002       51.384
     NS sqrt iter    5 1.00000000   0.716E-07       0.002       40.777
     Final NS sqrt iter    5 1.00000000   0.614E-09

     Est. extremal eigenvalues     -0.93802     1.74514  converged:  T
     TRS4 it   1 1.00000000   0.890E+00       0.001       16.128   0.100E-07
     TRS4 it   2 1.00000000   0.631E+00       0.001       25.794   0.100E-07
     TRS4 it   3 1.00000000   0.432E+00       0.001       28.934   0.100E-07
     TRS4 it   4 1.00000000   0.223E+00       0.001       26.283   0.100E-07
     TRS4 it   5 1.00000000   0.734E-01       0.001       31.218   0.100E-07
     TRS4 it   6 1.00000000   0.101E-01       0.001       32.256   0.100E-07
     TRS4 it   7 1.00000000   0.252E-03       0.001       32.256   0.100E-07
     TRS4 it   8 1.00000000   0.217E-06       0.001       32.256   0.100E-07
     TRS4 it   9 1.00000000   0.197E-12       0.001       32.256   0.100E-07
     Final TRS4 iteration    9 1.00000000   0.197E-12
     Chemical potential (mu):       0.01145
 
 PAO| energy:  -7.8088547544963145      penalty:   1.4991939210503235E-005
 PAO|LS| adapt:  T T F
 PAO|LS| adapt: scan_steps:    0.0000000000000000       0.37051123059492341        0.0000000000000000     
 PAO|LS| adapt: energies:   -7.8087286963595046       -7.8088547544963145        0.0000000000000000     
 PAO| ======================= Iteration:        17 =============================

     Lanczos converged:  T threshold:   0.100E-02
     Est. extremal eigenvalues:    0.275E+01   0.178E+00
     Est. condition number :    0.155E+02
     NS sqrt iter    1 1.00000000   0.702E+00       0.002       36.216
     NS sqrt iter    2 1.00000000   0.327E+00       0.002       60.654
     NS sqrt iter    3 1.00000000   0.749E-01       0.002       62.493
     NS sqrt iter    4 1.00000000   0.190E-02       0.002       57.126
     NS sqrt iter    5 1.00000000   0.658E-07       0.002       46.149
     Final NS sqrt iter    5 1.00000000   0.581E-09

     Est. extremal eigenvalues     -0.93793     1.74363  converged:  T
     TRS4 it   1 1.00000000   0.890E+00       0.001       16.128   0.100E-07
     TRS4 it   2 1.00000000   0.630E+00       0.001       30.534   0.100E-07
     TRS4 it   3 1.00000000   0.430E+00       0.001       31.264   0.100E-07
     TRS4 it   4 1.00000000   0.221E+00       0.001       32.256   0.100E-07
     TRS4 it   5 1.00000000   0.722E-01       0.001       32.256   0.100E-07
     TRS4 it   6 1.00000000   0.976E-02       0.001       32.256   0.100E-07
     TRS4 it   7 1.00000000   0.237E-03       0.001       32.256   0.100E-07
     TRS4 it   8 1.00000000   0.194E-06       0.001       32.256   0.100E-07
     TRS4 it   9 1.00000000   0.158E-12       0.001       29.268   0.100E-07
     Final TRS4 iteration    9 1.00000000   0.158E-12
     Chemical potential (mu):       0.01227
 
 PAO| energy:  -7.8072944257793244      penalty:   1.4898403678102874E-005
 PAO|LS| adapt:  T T T
 PAO|LS| adapt: scan_steps:    0.0000000000000000       0.37051123059492341       0.74102246118984683     
 PAO|LS| adapt: energies:   -7.8087286963595046       -7.8088547544963145       -7.8072944257793244     
 PAO|LS| adapt: suggested step_size:   0.21295148786115553     
 PAO|LS| adapt: predicted energy  -7.8090072352343887     
 PAO| ======================= Iteration:        18 =============================

     Lanczos converged:  T threshold:   0.100E-02
     Est. extremal eigenvalues:    0.276E+01   0.177E+00
     Est. condition number :    0.156E+02
     NS sqrt iter    1 1.00000000   0.705E+00       0.002       36.763
     NS sqrt iter    2 1.00000000   0.329E+00       0.002       58.909
     NS sqrt iter    3 1.00000000   0.759E-01       0.002       64.208
     NS sqrt iter    4 1.00000000   0.198E-02       0.002       63.835
     NS sqrt iter    5 1.00000000   0.743E-07       0.002       47.368
     Final NS sqrt iter    5 1.00000000   0.628E-09

     Est. extremal eigenvalues     -0.93803     1.74580  converged:  T
     TRS4 it   1 1.00000000   0.890E+00       0.001       16.128   0.100E-07
     TRS4 it   2 1.00000000   0.632E+00       0.001       32.256   0.100E-07
     TRS4 it   3 1.00000000   0.432E+00       0.001       32.256   0.100E-07
     TRS4 it   4 1.00000000   0.223E+00       0.001       32.256   0.100E-07
     TRS4 it   5 1.00000000   0.740E-01       0.001       32.256   0.100E-07
     TRS4 it   6 1.00000000   0.102E-01       0.002       17.512   0.100E-07
     TRS4 it   7 1.00000000   0.259E-03       0.001       22.243   0.100E-07
     TRS4 it   8 1.00000000   0.228E-06       0.001       26.016   0.100E-07
     TRS4 it   9 1.00000000   0.217E-12       0.001       26.981   0.100E-07
     Final TRS4 iteration    9 1.00000000   0.217E-12
     Chemical potential (mu):       0.01110
 
 PAO| energy:  -7.8090067939540386      penalty:   1.5070084563207681E-005
 PAO|CG| trace_G_new    7.2425487335956416E-004
 PAO|CG| trace_G_prev    2.6160229322824734E-003
 PAO|CG| trace_G_mix    1.2629119425664937E-006
 PAO|CG| trace_D    3.3784112407614299E-003
 PAO|CG| trace_D_Gnew  -1.6869612515622116E-006
 PAO|CG| beta:   0.27637065122597720     
 PAO| norm of gradient:   2.6911983824303331E-002
 PAO| energy improvement:  -2.7809759453401028E-004
 PAO| step     18                   -7.809006794  0.168E-02  0.213E+00     0.096
 PAO|LS| adapt:  T F F
 PAO|LS| adapt: scan_steps:    0.0000000000000000        0.0000000000000000        0.0000000000000000     
 PAO|LS| adapt: energies:   -7.8090067939540386        0.0000000000000000        0.0000000000000000     
 PAO| ======================= Iteration:        19 =============================

     Lanczos converged:  T threshold:   0.100E-02
     Est. extremal eigenvalues:    0.276E+01   0.177E+00
     Est. condition number :    0.156E+02
     NS sqrt iter    1 1.00000000   0.704E+00       0.002       36.700
     NS sqrt iter    2 1.00000000   0.329E+00       0.002       63.816
     NS sqrt iter    3 1.00000000   0.761E-01       0.002       48.526
     NS sqrt iter    4 1.00000000   0.199E-02       0.002       65.645
     NS sqrt iter    5 1.00000000   0.753E-07       0.002       49.164
     Final NS sqrt iter    5 1.00000000   0.643E-09

     Est. extremal eigenvalues     -0.93803     1.74585  converged:  T
     TRS4 it   1 1.00000000   0.890E+00       0.001       16.128   0.100E-07
     TRS4 it   2 1.00000000   0.632E+00       0.001       27.796   0.100E-07
     TRS4 it   3 1.00000000   0.432E+00       0.001       32.152   0.100E-07
     TRS4 it   4 1.00000000   0.223E+00       0.001       32.256   0.100E-07
     TRS4 it   5 1.00000000   0.738E-01       0.001       32.256   0.100E-07
     TRS4 it   6 1.00000000   0.102E-01       0.001       32.256   0.100E-07
     TRS4 it   7 1.00000000   0.259E-03       0.001       27.795   0.100E-07
     TRS4 it   8 1.00000000   0.231E-06       0.001       32.256   0.100E-07
     TRS4 it   9 1.00000000   0.224E-12       0.001       32.256   0.100E-07
     Final TRS4 iteration    9 1.00000000   0.224E-12
     Chemical potential (mu):       0.01081
 
 PAO| energy:  -7.8091244297378086      penalty:   1.4781084723436830E-005
 PAO|LS| adapt:  T T F
 PAO|LS| adapt: scan_steps:    0.0000000000000000       0.21295148786115553        0.0000000000000000     
 PAO|LS| adapt: energies:   -7.8090067939540386       -7.8091244297378086        0.0000000000000000     
 PAO| ======================= Iteration:        20 =============================

     Lanczos converged:  T threshold:   0.100E-02
     Est. extremal eigenvalues:    0.276E+01   0.177E+00
     Est. condition number :    0.157E+02
     NS sqrt iter    1 1.00000000   0.704E+00       0.002       33.059
     NS sqrt iter    2 1.00000000   0.329E+00       0.002       58.086
     NS sqrt iter    3 1.00000000   0.763E-01       0.002       62.994
     NS sqrt iter    4 1.00000000   0.200E-02       0.002       62.689
     NS sqrt iter    5 1.00000000   0.763E-07       0.002       47.906
     Final NS sqrt iter    5 1.00000000   0.657E-09

     Est. extremal eigenvalues     -0.93803     1.74591  converged:  T
     TRS4 it   1 1.00000000   0.890E+00       0.001       16.128   0.100E-07
     TRS4 it   2 1.00000000   0.632E+00       0.001       32.256   0.100E-07
     TRS4 it   3 1.00000000   0.432E+00       0.001       32.256   0.100E-07
     TRS4 it   4 1.00000000   0.223E+00       0.001       32.256   0.100E-07
     TRS4 it   5 1.00000000   0.737E-01       0.001       29.993   0.100E-07
     TRS4 it   6 1.00000000   0.102E-01       0.001       32.256   0.100E-07
     TRS4 it   7 1.00000000   0.260E-03       0.001       32.256   0.100E-07
     TRS4 it   8 1.00000000   0.234E-06       0.001       32.256   0.100E-07
     TRS4 it   9 1.00000000   0.233E-12       0.001       32.256   0.100E-07
     Final TRS4 iteration    9 1.00000000   0.233E-12
     Chemical potential (mu):       0.01051
 
 PAO| energy:  -7.8091682899777339      penalty:   1.4504549410129196E-005
 PAO|LS| adapt:  T T F
 PAO|LS| adapt: scan_steps:    0.0000000000000000       0.42590297572231106        0.0000000000000000     
 PAO|LS| adapt: energies:   -7.8090067939540386       -7.8091682899777339        0.0000000000000000     
 PAO| ======================= Iteration:        21 =============================

     Lanczos converged:  T threshold:   0.100E-02
     Est. extremal eigenvalues:    0.277E+01   0.176E+00
     Est. condition number :    0.157E+02
     NS sqrt iter    1 1.00000000   0.704E+00       0.002       36.013
     NS sqrt iter    2 1.00000000   0.330E+00       0.002       62.427
     NS sqrt iter    3 1.00000000   0.767E-01       0.002       64.524
     NS sqrt iter    4 1.00000000   0.203E-02       0.002       63.727
     NS sqrt iter    5 1.00000000   0.785E-07       0.002       43.323
     Final NS sqrt iter    5 1.00000000   0.684E-09

     Est. extremal eigenvalues     -0.93802     1.74604  converged:  T
     TRS4 it   1 1.00000000   0.890E+00       0.001       16.128   0.100E-07
     TRS4 it   2 1.00000000   0.632E+00       0.001       32.256   0.100E-07
     TRS4 it   3 1.00000000   0.432E+00       0.001       29.847   0.100E-07
     TRS4 it   4 1.00000000   0.223E+00       0.001       32.256   0.100E-07
     TRS4 it   5 1.00000000   0.735E-01       0.001       32.256   0.100E-07
     TRS4 it   6 1.00000000   0.102E-01       0.001       32.256   0.100E-07
     TRS4 it   7 1.00000000   0.261E-03       0.001       32.256   0.100E-07
     TRS4 it   8 1.00000000   0.241E-06       0.001       32.256   0.100E-07
     TRS4 it   9 1.00000000   0.248E-12       0.001       31.556   0.100E-07
     Final TRS4 iteration    9 1.00000000   0.248E-12
     Chemical potential (mu):       0.00992
 
 PAO| energy:  -7.8090323614074935      penalty:   1.3988285618536471E-005
 PAO|LS| Need extra step
 PAO|LS| adapt:  T T T
 PAO|LS| adapt: scan_steps:    0.0000000000000000       0.42590297572231106       0.85180595144462212     
 PAO|LS| adapt: energies:   -7.8090067939540386       -7.8091682899777339       -7.8090323614074935     
 PAO|LS| adapt: suggested step_size:   0.44420888372399847     
 PAO|LS| adapt: predicted energy  -7.8091685647089966     
 PAO| ======================= Iteration:        22 =============================

     Lanczos converged:  T threshold:   0.100E-02
     Est. extremal eigenvalues:    0.276E+01   0.177E+00
     Est. condition number :    0.157E+02
     NS sqrt iter    1 1.00000000   0.704E+00       0.002       37.071
     NS sqrt iter    2 1.00000000   0.329E+00       0.002       60.663
     NS sqrt iter    3 1.00000000   0.763E-01       0.002       59.046
     NS sqrt iter    4 1.00000000   0.201E-02       0.002       63.054
     NS sqrt iter    5 1.00000000   0.764E-07       0.002       47.466
     Final NS sqrt iter    5 1.00000000   0.658E-09

     Est. extremal eigenvalues     -0.93803     1.74592  converged:  T
     TRS4 it   1 1.00000000   0.890E+00       0.001       16.128   0.100E-07
     TRS4 it   2 1.00000000   0.632E+00       0.001       32.256   0.100E-07
     TRS4 it   3 1.00000000   0.432E+00       0.001       32.256   0.100E-07
     TRS4 it   4 1.00000000   0.223E+00       0.001       32.256   0.100E-07
     TRS4 it   5 1.00000000   0.737E-01       0.001       32.256   0.100E-07
     TRS4 it   6 1.00000000   0.102E-01       0.001       32.256   0.100E-07
     TRS4 it   7 1.00000000   0.260E-03       0.001       32.256   0.100E-07
     TRS4 it   8 1.00000000   0.234E-06       0.001       32.256   0.100E-07
     TRS4 it   9 1.00000000   0.233E-12       0.001       30.800   0.100E-07
     Final TRS4 iteration    9 1.00000000   0.233E-12
     Chemical potential (mu):       0.01049
 
 PAO| energy:  -7.8091685979392578      penalty:   1.4481353655917076E-005
 PAO|CG| trace_G_new    2.2084373074713579E-004
 PAO|CG| trace_G_prev    7.2425487335956416E-004
 PAO|CG| trace_G_mix    2.8754325428236622E-006
 PAO|CG| trace_D    9.8323286650126365E-004
 PAO|CG| trace_D_Gnew  -1.8088267823275370E-006
 PAO|CG| beta:   0.30095523857952616     
 PAO| norm of gradient:   1.4860811914129584E-002
 PAO| energy improvement:  -1.6180398521914441E-004
 PAO| step     22                   -7.809168598  0.929E-03  0.444E+00     0.113
 PAO|LS| adapt:  T F F
 PAO|LS| adapt: scan_steps:    0.0000000000000000        0.0000000000000000        0.0000000000000000     
 PAO|LS| adapt: energies:   -7.8091685979392578        0.0000000000000000        0.0000000000000000     
 PAO| ======================= Iteration:        23 =============================

     Lanczos converged:  T threshold:   0.100E-02
     Est. extremal eigenvalues:    0.277E+01   0.177E+00
     Est. condition number :    0.157E+02
     NS sqrt iter    1 1.00000000   0.704E+00       0.002       42.674
     NS sqrt iter    2 1.00000000   0.330E+00       0.002       65.326
     NS sqrt iter    3 1.00000000   0.763E-01       0.002       66.591
     NS sqrt iter    4 1.00000000   0.200E-02       0.002       66.214
     NS sqrt iter    5 1.00000000   0.762E-07       0.002       49.604
     Final NS sqrt iter    5 1.00000000   0.663E-09

     Est. extremal eigenvalues     -0.93803     1.74541  converged:  T
     TRS4 it   1 1.00000000   0.890E+00       0.001       16.128   0.100E-07
     TRS4 it   2 1.00000000   0.632E+00       0.001       32.256   0.100E-07
     TRS4 it   3 1.00000000   0.432E+00       0.001       32.256   0.100E-07
     TRS4 it   4 1.00000000   0.223E+00       0.001       32.256   0.100E-07
     TRS4 it   5 1.00000000   0.738E-01       0.001       32.256   0.100E-07
     TRS4 it   6 1.00000000   0.102E-01       0.001       29.780   0.100E-07
     TRS4 it   7 1.00000000   0.263E-03       0.001       32.256   0.100E-07
     TRS4 it   8 1.00000000   0.240E-06       0.001       32.256   0.100E-07
     TRS4 it   9 1.00000000   0.245E-12       0.001       32.256   0.100E-07
     Final TRS4 iteration    9 1.00000000   0.245E-12
     Chemical potential (mu):       0.01014
 
 PAO| energy:  -7.8092178147379148      penalty:   1.3801842537912195E-005
 PAO|LS| adapt:  T T F
 PAO|LS| adapt: scan_steps:    0.0000000000000000       0.44420888372399847        0.0000000000000000     
 PAO|LS| adapt: energies:   -7.8091685979392578       -7.8092178147379148        0.0000000000000000     
 PAO| ======================= Iteration:        24 =============================

     Lanczos converged:  T threshold:   0.100E-02
     Est. extremal eigenvalues:    0.277E+01   0.177E+00
     Est. condition number :    0.157E+02
     NS sqrt iter    1 1.00000000   0.704E+00       0.002       34.009
     NS sqrt iter    2 1.00000000   0.330E+00       0.002       64.915
     NS sqrt iter    3 1.00000000   0.764E-01       0.002       67.197
     NS sqrt iter    4 1.00000000   0.200E-02       0.002       65.991
     NS sqrt iter    5 1.00000000   0.761E-07       0.002       49.665
     Final NS sqrt iter    5 1.00000000   0.669E-09

     Est. extremal eigenvalues     -0.93802     1.74489  converged:  T
     TRS4 it   1 1.00000000   0.889E+00       0.001       16.128   0.100E-07
     TRS4 it   2 1.00000000   0.632E+00       0.001       32.256   0.100E-07
     TRS4 it   3 1.00000000   0.432E+00       0.001       32.256   0.100E-07
     TRS4 it   4 1.00000000   0.223E+00       0.001       32.256   0.100E-07
     TRS4 it   5 1.00000000   0.739E-01       0.001       32.256   0.100E-07
     TRS4 it   6 1.00000000   0.103E-01       0.001       32.256   0.100E-07
     TRS4 it   7 1.00000000   0.265E-03       0.001       32.256   0.100E-07
     TRS4 it   8 1.00000000   0.246E-06       0.001       32.256   0.100E-07
     TRS4 it   9 1.00000000   0.257E-12       0.001       32.256   0.100E-07
     Final TRS4 iteration    9 1.00000000   0.257E-12
     Chemical potential (mu):       0.00978
 
 PAO| energy:  -7.8091681711310246      penalty:   1.3150572330743207E-005
 PAO|LS| adapt:  T T T
 PAO|LS| adapt: scan_steps:    0.0000000000000000       0.44420888372399847       0.88841776744799694     
 PAO|LS| adapt: energies:   -7.8091685979392578       -7.8092178147379148       -7.8091681711310246     
 PAO|LS| adapt: suggested step_size:   0.44324999625138101     
 PAO|LS| adapt: predicted energy  -7.8092178149682461     
 PAO| ======================= Iteration:        25 =============================

     Lanczos converged:  T threshold:   0.100E-02
     Est. extremal eigenvalues:    0.277E+01   0.177E+00
     Est. condition number :    0.157E+02
     NS sqrt iter    1 1.00000000   0.704E+00       0.002       40.909
     NS sqrt iter    2 1.00000000   0.330E+00       0.002       67.836
     NS sqrt iter    3 1.00000000   0.763E-01       0.002       68.170
     NS sqrt iter    4 1.00000000   0.200E-02       0.002       68.177
     NS sqrt iter    5 1.00000000   0.762E-07       0.001       51.450
     Final NS sqrt iter    5 1.00000000   0.663E-09

     Est. extremal eigenvalues     -0.93803     1.74541  converged:  T
     TRS4 it   1 1.00000000   0.890E+00       0.001       16.128   0.100E-07
     TRS4 it   2 1.00000000   0.632E+00       0.001       32.256   0.100E-07
     TRS4 it   3 1.00000000   0.432E+00       0.001       32.256   0.100E-07
     TRS4 it   4 1.00000000   0.223E+00       0.001       32.256   0.100E-07
     TRS4 it   5 1.00000000   0.738E-01       0.001       32.256   0.100E-07
     TRS4 it   6 1.00000000   0.102E-01       0.001       32.256   0.100E-07
     TRS4 it   7 1.00000000   0.263E-03       0.001       32.256   0.100E-07
     TRS4 it   8 1.00000000   0.240E-06       0.001       31.950   0.100E-07
     TRS4 it   9 1.00000000   0.245E-12       0.001       32.256   0.100E-07
     Final TRS4 iteration    9 1.00000000   0.245E-12
     Chemical potential (mu):       0.01014
 
 PAO| energy:  -7.8092178146396156      penalty:   1.3803278721352089E-005
 PAO|CG| trace_G_new    7.8963431515764428E-005
 PAO|CG| trace_G_prev    2.2084373074713579E-004
 PAO|CG| trace_G_mix    6.6544421961590139E-007
 PAO|CG| trace_D    3.1098787088499973E-004
 PAO|CG| trace_D_Gnew  -3.4278467076419567E-007
 PAO|CG| beta:   0.35454023091920622     
 PAO| norm of gradient:   8.8861370412437607E-003
 PAO| energy improvement:  -4.9216700357845866E-005
 PAO| step     25                   -7.809217815  0.555E-03  0.443E+00     0.081
 PAO|LS| adapt:  T F F
 PAO|LS| adapt: scan_steps:    0.0000000000000000        0.0000000000000000        0.0000000000000000     
 PAO|LS| adapt: energies:   -7.8092178146396156        0.0000000000000000        0.0000000000000000     
 PAO| ======================= Iteration:        26 =============================

     Lanczos converged:  T threshold:   0.100E-02
     Est. extremal eigenvalues:    0.276E+01   0.177E+00
     Est. condition number :    0.156E+02
     NS sqrt iter    1 1.00000000   0.704E+00       0.002       39.626
     NS sqrt iter    2 1.00000000   0.329E+00       0.002       61.891
     NS sqrt iter    3 1.00000000   0.762E-01       0.002       67.052
     NS sqrt iter    4 1.00000000   0.200E-02       0.002       67.437
     NS sqrt iter    5 1.00000000   0.750E-07       0.001       50.792
     Final NS sqrt iter    5 1.00000000   0.655E-09

     Est. extremal eigenvalues     -0.93803     1.74459  converged:  T
     TRS4 it   1 1.00000000   0.889E+00       0.001       16.128   0.100E-07
     TRS4 it   2 1.00000000   0.631E+00       0.001       32.256   0.100E-07
     TRS4 it   3 1.00000000   0.432E+00       0.001       32.256   0.100E-07
     TRS4 it   4 1.00000000   0.223E+00       0.001       32.256   0.100E-07
     TRS4 it   5 1.00000000   0.737E-01       0.001       32.256   0.100E-07
     TRS4 it   6 1.00000000   0.102E-01       0.003       11.777   0.100E-07
     TRS4 it   7 1.00000000   0.261E-03       0.001       32.256   0.100E-07
     TRS4 it   8 1.00000000   0.237E-06       0.001       32.256   0.100E-07
     TRS4 it   9 1.00000000   0.239E-12       0.001       32.256   0.100E-07
     Final TRS4 iteration    9 1.00000000   0.239E-12
     Chemical potential (mu):       0.01022
 
 PAO| energy:  -7.8092214500933963      penalty:   1.3080961200945631E-005
 PAO|LS| adapt:  T T F
 PAO|LS| adapt: scan_steps:    0.0000000000000000       0.44324999625138101        0.0000000000000000     
 PAO|LS| adapt: energies:   -7.8092178146396156       -7.8092214500933963        0.0000000000000000     
 PAO| ======================= Iteration:        27 =============================

     Lanczos converged:  T threshold:   0.100E-02
     Est. extremal eigenvalues:    0.276E+01   0.177E+00
     Est. condition number :    0.156E+02
     NS sqrt iter    1 1.00000000   0.704E+00       0.002       33.229
     NS sqrt iter    2 1.00000000   0.329E+00       0.002       61.262
     NS sqrt iter    3 1.00000000   0.761E-01       0.002       68.049
     NS sqrt iter    4 1.00000000   0.199E-02       0.002       67.289
     NS sqrt iter    5 1.00000000   0.738E-07       0.002       36.233
     Final NS sqrt iter    5 1.00000000   0.649E-09

     Est. extremal eigenvalues     -0.93803     1.74377  converged:  T
     TRS4 it   1 1.00000000   0.889E+00       0.001       16.128   0.100E-07
     TRS4 it   2 1.00000000   0.631E+00       0.001       32.256   0.100E-07
     TRS4 it   3 1.00000000   0.432E+00       0.001       32.256   0.100E-07
     TRS4 it   4 1.00000000   0.223E+00       0.001       32.021   0.100E-07
     TRS4 it   5 1.00000000   0.736E-01       0.001       32.256   0.100E-07
     TRS4 it   6 1.00000000   0.102E-01       0.001       32.256   0.100E-07
     TRS4 it   7 1.00000000   0.260E-03       0.001       32.256   0.100E-07
     TRS4 it   8 1.00000000   0.234E-06       0.001       32.256   0.100E-07
     TRS4 it   9 1.00000000   0.232E-12       0.001       32.256   0.100E-07
     Final TRS4 iteration    9 1.00000000   0.232E-12
     Chemical potential (mu):       0.01031
 
 PAO| energy:  -7.8091621452304967      penalty:   1.2382334883815885E-005
 PAO|LS| adapt:  T T T
 PAO|LS| adapt: scan_steps:    0.0000000000000000       0.44324999625138101       0.88649999250276201     
 PAO|LS| adapt: energies:   -7.8092178146396156       -7.8092214500933963       -7.8091621452304967     
 PAO|LS| adapt: suggested step_size:   0.24722726642764534     
 PAO|LS| adapt: predicted energy  -7.8092276048986040     
 PAO| ======================= Iteration:        28 =============================

     Lanczos converged:  T threshold:   0.100E-02
     Est. extremal eigenvalues:    0.277E+01   0.177E+00
     Est. condition number :    0.156E+02
     NS sqrt iter    1 1.00000000   0.704E+00       0.002       38.755
     NS sqrt iter    2 1.00000000   0.329E+00       0.002       66.734
     NS sqrt iter    3 1.00000000   0.763E-01       0.002       67.313
     NS sqrt iter    4 1.00000000   0.200E-02       0.002       67.124
     NS sqrt iter    5 1.00000000   0.756E-07       0.002       47.848
     Final NS sqrt iter    5 1.00000000   0.659E-09

     Est. extremal eigenvalues     -0.93803     1.74495  converged:  T
     TRS4 it   1 1.00000000   0.889E+00       0.001       16.128   0.100E-07
     TRS4 it   2 1.00000000   0.632E+00       0.001       32.256   0.100E-07
     TRS4 it   3 1.00000000   0.432E+00       0.001       29.666   0.100E-07
     TRS4 it   4 1.00000000   0.223E+00       0.001       32.256   0.100E-07
     TRS4 it   5 1.00000000   0.738E-01       0.001       32.256   0.100E-07
     TRS4 it   6 1.00000000   0.102E-01       0.001       32.256   0.100E-07
     TRS4 it   7 1.00000000   0.262E-03       0.001       32.256   0.100E-07
     TRS4 it   8 1.00000000   0.238E-06       0.001       32.256   0.100E-07
     TRS4 it   9 1.00000000   0.241E-12       0.001       32.256   0.100E-07
     Final TRS4 iteration    9 1.00000000   0.241E-12
     Chemical potential (mu):       0.01018
 
 PAO| energy:  -7.8092275958111390      penalty:   1.3397457580916036E-005
 PAO|CG| trace_G_new    3.0904640936735137E-005
 PAO|CG| trace_G_prev    7.8963431515764428E-005
 PAO|CG| trace_G_mix    4.6058719678773388E-008
 PAO|CG| trace_D    1.1829728794433544E-004
 PAO|CG| trace_D_Gnew  -2.3933441710026604E-008
 PAO|CG| beta:   0.39079586113092990     
 PAO| norm of gradient:   5.5591942704617849E-003
 PAO| energy improvement:  -9.7811715233930840E-006
 PAO| step     28                   -7.809227596  0.347E-03  0.247E+00     0.099
 PAO|LS| adapt:  T F F
 PAO|LS| adapt: scan_steps:    0.0000000000000000        0.0000000000000000        0.0000000000000000     
 PAO|LS| adapt: energies:   -7.8092275958111390        0.0000000000000000        0.0000000000000000     
 PAO| ======================= Iteration:        29 =============================

     Lanczos converged:  T threshold:   0.100E-02
     Est. extremal eigenvalues:    0.276E+01   0.177E+00
     Est. condition number :    0.156E+02
     NS sqrt iter    1 1.00000000   0.704E+00       0.002       41.674
     NS sqrt iter    2 1.00000000   0.329E+00       0.002       67.050
     NS sqrt iter    3 1.00000000   0.762E-01       0.002       68.383
     NS sqrt iter    4 1.00000000   0.200E-02       0.002       67.971
     NS sqrt iter    5 1.00000000   0.750E-07       0.004       21.218
     Final NS sqrt iter    5 1.00000000   0.654E-09

     Est. extremal eigenvalues     -0.93803     1.74462  converged:  T
     TRS4 it   1 1.00000000   0.889E+00       0.001       16.128   0.100E-07
     TRS4 it   2 1.00000000   0.631E+00       0.001       32.256   0.100E-07
     TRS4 it   3 1.00000000   0.432E+00       0.001       32.256   0.100E-07
     TRS4 it   4 1.00000000   0.223E+00       0.019        1.681   0.100E-07
     TRS4 it   5 1.00000000   0.737E-01       0.004        8.495   0.100E-07
     TRS4 it   6 1.00000000   0.102E-01       0.001       32.256   0.100E-07
     TRS4 it   7 1.00000000   0.260E-03       0.001       32.256   0.100E-07
     TRS4 it   8 1.00000000   0.235E-06       0.001       32.256   0.100E-07
     TRS4 it   9 1.00000000   0.235E-12       0.001       32.256   0.100E-07
     Final TRS4 iteration    9 1.00000000   0.235E-12
     Chemical potential (mu):       0.01030
 
 PAO| energy:  -7.8092343179497270      penalty:   1.2974102722319765E-005
 PAO|LS| adapt:  T T F
 PAO|LS| adapt: scan_steps:    0.0000000000000000       0.24722726642764534        0.0000000000000000     
 PAO|LS| adapt: energies:   -7.8092275958111390       -7.8092343179497270        0.0000000000000000     
 PAO| ======================= Iteration:        30 =============================

     Lanczos converged:  T threshold:   0.100E-02
     Est. extremal eigenvalues:    0.276E+01   0.177E+00
     Est. condition number :    0.156E+02
     NS sqrt iter    1 1.00000000   0.704E+00       0.020        3.288
     NS sqrt iter    2 1.00000000   0.329E+00       0.002       68.039
     NS sqrt iter    3 1.00000000   0.761E-01       0.007       15.152
     NS sqrt iter    4 1.00000000   0.199E-02       0.005       23.915
     NS sqrt iter    5 1.00000000   0.744E-07       0.001       51.578
     Final NS sqrt iter    5 1.00000000   0.650E-09

     Est. extremal eigenvalues     -0.93803     1.74430  converged:  T
     TRS4 it   1 1.00000000   0.889E+00       0.001       16.128   0.100E-07
     TRS4 it   2 1.00000000   0.631E+00       0.001       32.256   0.100E-07
     TRS4 it   3 1.00000000   0.432E+00       0.001       32.256   0.100E-07
     TRS4 it   4 1.00000000   0.223E+00       0.001       32.256   0.100E-07
     TRS4 it   5 1.00000000   0.736E-01       0.001       32.256   0.100E-07
     TRS4 it   6 1.00000000   0.102E-01       0.001       32.256   0.100E-07
     TRS4 it   7 1.00000000   0.259E-03       0.001       32.256   0.100E-07
     TRS4 it   8 1.00000000   0.232E-06       0.001       32.256   0.100E-07
     TRS4 it   9 1.00000000   0.229E-12       0.001       32.256   0.100E-07
     Final TRS4 iteration    9 1.00000000   0.229E-12
     Chemical potential (mu):       0.01041
 
 PAO| energy:  -7.8092391989860710      penalty:   1.2558297859070483E-005
 PAO|LS| adapt:  T T F
 PAO|LS| adapt: scan_steps:    0.0000000000000000       0.49445453285529067        0.0000000000000000     
 PAO|LS| adapt: energies:   -7.8092275958111390       -7.8092391989860710        0.0000000000000000     
 PAO| ======================= Iteration:        31 =============================

     Lanczos converged:  T threshold:   0.100E-02
     Est. extremal eigenvalues:    0.276E+01   0.177E+00
     Est. condition number :    0.156E+02
     NS sqrt iter    1 1.00000000   0.703E+00       0.001       45.201
     NS sqrt iter    2 1.00000000   0.329E+00       0.002       69.791
     NS sqrt iter    3 1.00000000   0.760E-01       0.002       71.456
     NS sqrt iter    4 1.00000000   0.198E-02       0.002       69.874
     NS sqrt iter    5 1.00000000   0.732E-07       0.003       25.451
     Final NS sqrt iter    5 1.00000000   0.643E-09

     Est. extremal eigenvalues     -0.93803     1.74364  converged:  T
     TRS4 it   1 1.00000000   0.889E+00       0.001       16.128   0.100E-07
     TRS4 it   2 1.00000000   0.631E+00       0.001       32.256   0.100E-07
     TRS4 it   3 1.00000000   0.431E+00       0.001       32.256   0.100E-07
     TRS4 it   4 1.00000000   0.222E+00       0.002       21.083   0.100E-07
     TRS4 it   5 1.00000000   0.734E-01       0.001       32.256   0.100E-07
     TRS4 it   6 1.00000000   0.101E-01       0.001       32.256   0.100E-07
     TRS4 it   7 1.00000000   0.256E-03       0.001       32.256   0.100E-07
     TRS4 it   8 1.00000000   0.227E-06       0.001       32.256   0.100E-07
     TRS4 it   9 1.00000000   0.218E-12       0.001       32.256   0.100E-07
     Final TRS4 iteration    9 1.00000000   0.218E-12
     Chemical potential (mu):       0.01063
 
 PAO| energy:  -7.8092434383239890      penalty:   1.1749192646822471E-005
 PAO|LS| Need extra step
 PAO|LS| adapt:  T T F
 PAO|LS| adapt: scan_steps:    0.0000000000000000       0.98890906571058135        0.0000000000000000     
 PAO|LS| adapt: energies:   -7.8092275958111390       -7.8092434383239890        0.0000000000000000     
 PAO| ======================= Iteration:        32 =============================

     Lanczos converged:  T threshold:   0.100E-02
     Est. extremal eigenvalues:    0.276E+01   0.177E+00
     Est. condition number :    0.156E+02
     NS sqrt iter    1 1.00000000   0.703E+00       0.001       45.028
     NS sqrt iter    2 1.00000000   0.328E+00       0.002       70.108
     NS sqrt iter    3 1.00000000   0.757E-01       0.002       71.983
     NS sqrt iter    4 1.00000000   0.196E-02       0.010       10.550
     NS sqrt iter    5 1.00000000   0.710E-07       0.003       21.787
     Final NS sqrt iter    5 1.00000000   0.636E-09

     Est. extremal eigenvalues     -0.93804     1.74232  converged:  T
     TRS4 it   1 1.00000000   0.889E+00       0.001       16.128   0.100E-07
     TRS4 it   2 1.00000000   0.631E+00       0.001       32.256   0.100E-07
     TRS4 it   3 1.00000000   0.431E+00       0.001       32.256   0.100E-07
     TRS4 it   4 1.00000000   0.222E+00       0.001       32.256   0.100E-07
     TRS4 it   5 1.00000000   0.730E-01       0.001       32.256   0.100E-07
     TRS4 it   6 1.00000000   0.100E-01       0.001       32.256   0.100E-07
     TRS4 it   7 1.00000000   0.251E-03       0.001       32.256   0.100E-07
     TRS4 it   8 1.00000000   0.216E-06       0.001       32.256   0.100E-07
     TRS4 it   9 1.00000000   0.197E-12       0.001       32.256   0.100E-07
     Final TRS4 iteration    9 1.00000000   0.197E-12
     Chemical potential (mu):       0.01108
 
 PAO| energy:  -7.8092298243603873      penalty:   1.0219991687856397E-005
 PAO|LS| Need extra step
 PAO|LS| adapt:  T T T
 PAO|LS| adapt: scan_steps:    0.0000000000000000       0.98890906571058135        1.9778181314211627     
 PAO|LS| adapt: energies:   -7.8092275958111390       -7.8092434383239890       -7.8092298243603873     
 PAO|LS| adapt: suggested step_size:    1.0263173510936556     
 PAO|LS| adapt: predicted energy  -7.8092434593992852     
 PAO| ======================= Iteration:        33 =============================

     Lanczos converged:  T threshold:   0.100E-02
     Est. extremal eigenvalues:    0.276E+01   0.177E+00
     Est. condition number :    0.156E+02
     NS sqrt iter    1 1.00000000   0.703E+00       0.002       42.130
     NS sqrt iter    2 1.00000000   0.329E+00       0.002       70.334
     NS sqrt iter    3 1.00000000   0.760E-01       0.002       70.946
     NS sqrt iter    4 1.00000000   0.198E-02       0.002       70.522
     NS sqrt iter    5 1.00000000   0.731E-07       0.001       52.660
     Final NS sqrt iter    5 1.00000000   0.642E-09

     Est. extremal eigenvalues     -0.93803     1.74359  converged:  T
     TRS4 it   1 1.00000000   0.889E+00       0.001       16.128   0.100E-07
     TRS4 it   2 1.00000000   0.631E+00       0.001       32.256   0.100E-07
     TRS4 it   3 1.00000000   0.431E+00       0.001       32.256   0.100E-07
     TRS4 it   4 1.00000000   0.222E+00       0.001       32.256   0.100E-07
     TRS4 it   5 1.00000000   0.733E-01       0.001       32.256   0.100E-07
     TRS4 it   6 1.00000000   0.101E-01       0.001       32.256   0.100E-07
[...]
     NS sqrt iter    3 1.00000000   0.485E-01       0.001      103.717
     NS sqrt iter    4 1.00000000   0.767E-03       0.001      100.032
     NS sqrt iter    5 1.00000000   0.591E-08       0.001       38.272
     Final NS sqrt iter    5 1.00000000   0.343E-09

     Est. extremal eigenvalues     -0.93773     1.63496  converged:  T
     TRS4 it   1 1.00000000   0.882E+00       0.000       16.128   0.100E-07
     TRS4 it   2 1.00000000   0.635E+00       0.001       32.256   0.100E-07
     TRS4 it   3 1.00000000   0.456E+00       0.001       32.256   0.100E-07
     TRS4 it   4 1.00000000   0.279E+00       0.001       32.256   0.100E-07
     TRS4 it   5 1.00000000   0.139E+00       0.001       32.256   0.100E-07
     TRS4 it   6 1.00000000   0.443E-01       0.001       32.256   0.100E-07
     TRS4 it   7 1.00000000   0.631E-02       0.001       32.256   0.100E-07
     TRS4 it   8 1.00000000   0.170E-03       0.001       32.256   0.100E-07
     TRS4 it   9 1.00000000   0.130E-06       0.001       32.256   0.100E-07
     TRS4 it  10 1.00000000   0.754E-13       0.001       32.256   0.100E-07
     Final TRS4 iteration   10 1.00000000   0.754E-13
     Chemical potential (mu):      -0.07698
 
 PAO| energy:  -7.8084456647300353      penalty:   3.3846586068163255E-008
 PAO|LS| Need extra step
 PAO|LS| adapt:  T T T
 PAO|LS| adapt: scan_steps:    0.0000000000000000       0.20000000000000001       0.40000000000000002     
 PAO|LS| adapt: energies:   -7.8084456607221782       -7.8084456661944790       -7.8084456647300353     
 PAO|LS| adapt: suggested step_size:   0.25777720586728953     
 PAO|LS| adapt: predicted energy  -7.8084456664839328     
 PAO| ======================= Iteration:       410 =============================

     Lanczos converged:  T threshold:   0.100E-02
     Est. extremal eigenvalues:    0.249E+01   0.190E+00
     Est. condition number :    0.131E+02
     NS sqrt iter    1 1.00000000   0.632E+00       0.001       58.916
     NS sqrt iter    2 1.00000000   0.275E+00       0.001       99.091
     NS sqrt iter    3 1.00000000   0.485E-01       0.001       96.055
     NS sqrt iter    4 1.00000000   0.767E-03       0.001       96.015
     NS sqrt iter    5 1.00000000   0.591E-08       0.001       38.272
     Final NS sqrt iter    5 1.00000000   0.343E-09

     Est. extremal eigenvalues     -0.93773     1.63496  converged:  T
     TRS4 it   1 1.00000000   0.882E+00       0.000       16.128   0.100E-07
     TRS4 it   2 1.00000000   0.635E+00       0.001       32.256   0.100E-07
     TRS4 it   3 1.00000000   0.456E+00       0.001       32.256   0.100E-07
     TRS4 it   4 1.00000000   0.279E+00       0.001       32.256   0.100E-07
     TRS4 it   5 1.00000000   0.139E+00       0.001       32.256   0.100E-07
     TRS4 it   6 1.00000000   0.443E-01       0.001       32.256   0.100E-07
     TRS4 it   7 1.00000000   0.631E-02       0.001       32.256   0.100E-07
     TRS4 it   8 1.00000000   0.170E-03       0.001       32.256   0.100E-07
     TRS4 it   9 1.00000000   0.130E-06       0.001       32.256   0.100E-07
     TRS4 it  10 1.00000000   0.749E-13       0.001       32.256   0.100E-07
     Final TRS4 iteration   10 1.00000000   0.749E-13
     Chemical potential (mu):      -0.07698
 
 PAO| energy:  -7.8084456664839408      penalty:   3.4238792649880986E-008
 PAO|CG| warming up with steepest descent
 PAO|CG| beta:    0.0000000000000000     
 PAO| norm of gradient:   1.4045016822726464E-004
 PAO| energy improvement:  -5.7617626225692220E-009
 PAO| step    410                   -7.808445666  0.878E-05  0.258E+00     0.074
 PAO| converged after          410  steps :-)
 PAO| Recalculating energy after mixing.

     Lanczos converged:  T threshold:   0.100E-02
     Est. extremal eigenvalues:    0.249E+01   0.190E+00
     Est. condition number :    0.131E+02
     NS sqrt iter    1 1.00000000   0.632E+00       0.001       56.197
     NS sqrt iter    2 1.00000000   0.275E+00       0.001       97.926
     NS sqrt iter    3 1.00000000   0.485E-01       0.001       96.335
     NS sqrt iter    4 1.00000000   0.767E-03       0.001       98.810
     NS sqrt iter    5 1.00000000   0.591E-08       0.001       38.272
     Final NS sqrt iter    5 1.00000000   0.343E-09

     Est. extremal eigenvalues     -0.93773     1.63496  converged:  T
     TRS4 it   1 1.00000000   0.882E+00       0.000       16.128   0.100E-07
     TRS4 it   2 1.00000000   0.635E+00       0.001       32.256   0.100E-07
     TRS4 it   3 1.00000000   0.456E+00       0.001       32.256   0.100E-07
     TRS4 it   4 1.00000000   0.279E+00       0.001       32.256   0.100E-07
     TRS4 it   5 1.00000000   0.139E+00       0.001       32.256   0.100E-07
     TRS4 it   6 1.00000000   0.443E-01       0.001       32.256   0.100E-07
     TRS4 it   7 1.00000000   0.631E-02       0.001       32.256   0.100E-07
     TRS4 it   8 1.00000000   0.170E-03       0.001       32.256   0.100E-07
     TRS4 it   9 1.00000000   0.130E-06       0.001       32.256   0.100E-07
     TRS4 it  10 1.00000000   0.754E-13       0.001       32.256   0.100E-07
     Final TRS4 iteration   10 1.00000000   0.754E-13
     Chemical potential (mu):      -0.07698
 
 PAO| energy:  -7.8084456650434841      penalty:   3.4596173227192117E-008
 PAO| Writing restart file.
     Est. extremal eigenvalues     -0.93773     1.63496  converged:  T
     TRS4 it   1 1.00000000   0.882E+00       0.000       16.128   0.100E-07
     TRS4 it   2 1.00000000   0.635E+00       0.001       32.256   0.100E-07
     TRS4 it   3 1.00000000   0.456E+00       0.001       32.256   0.100E-07
     TRS4 it   4 1.00000000   0.279E+00       0.001       32.256   0.100E-07
     TRS4 it   5 1.00000000   0.139E+00       0.001       32.256   0.100E-07
     TRS4 it   6 1.00000000   0.443E-01       0.001       32.256   0.100E-07
     TRS4 it   7 1.00000000   0.631E-02       0.001       32.256   0.100E-07
     TRS4 it   8 1.00000000   0.170E-03       0.001       32.256   0.100E-07
     TRS4 it   9 1.00000000   0.130E-06       0.001       32.256   0.100E-07
     TRS4 it  10 1.00000000   0.754E-13       0.001       32.256   0.100E-07
     Final TRS4 iteration   10 1.00000000   0.754E-13
     Chemical potential (mu):      -0.07698

 SCF     1       -34.449580297       -34.449580297    1.460074

*********************************************************
 Using MIXING_FRACTION=0.450 to mix KS matrix:  iscf=  2
 KS_nw=0.450*KS + 0.550*KS_old
*********************************************************
     Est. extremal eigenvalues     -0.93773     1.63496  converged:  T
     TRS4 it   1 1.00000000   0.882E+00       0.000       16.128   0.100E-07
     TRS4 it   2 1.00000000   0.635E+00       0.001       32.256   0.100E-07
     TRS4 it   3 1.00000000   0.456E+00       0.001       32.256   0.100E-07
     TRS4 it   4 1.00000000   0.279E+00       0.001       32.256   0.100E-07
     TRS4 it   5 1.00000000   0.139E+00       0.001       32.256   0.100E-07
     TRS4 it   6 1.00000000   0.443E-01       0.001       32.256   0.100E-07
     TRS4 it   7 1.00000000   0.631E-02       0.001       32.256   0.100E-07
     TRS4 it   8 1.00000000   0.170E-03       0.001       32.256   0.100E-07
     TRS4 it   9 1.00000000   0.130E-06       0.001       32.256   0.100E-07
     TRS4 it  10 1.00000000   0.756E-13       0.001       32.256   0.100E-07
     Final TRS4 iteration   10 1.00000000   0.756E-13
     Chemical potential (mu):      -0.07698

 SCF     2       -34.449580297        -0.000000000    1.479301

 PAO| Storing density matrix for ASPC guess in slot:           1

 ENERGY| Total FORCE_EVAL ( QS ) energy (a.u.):              -34.449580296693739


 -------------------------------------------------------------------------------
 -                                                                             -
 -                                DBCSR STATISTICS                             -
 -                                                                             -
 -------------------------------------------------------------------------------
 COUNTER                                    TOTAL       BLAS       SMM       ACC
 flops     5 x     5 x     4                20000     100.0%      0.0%      0.0%
 flops    13 x     5 x     4                20800     100.0%      0.0%      0.0%
 flops     5 x    13 x     4                20800     100.0%      0.0%      0.0%
 flops    13 x    13 x     4                40560     100.0%      0.0%      0.0%
 flops     4 x     4 x     5              3221760     100.0%      0.0%      0.0%
 flops     5 x     4 x     5              3942400     100.0%      0.0%      0.0%
 flops     4 x     4 x    13              4188288     100.0%      0.0%      0.0%
 flops    13 x     4 x     5              5125120     100.0%      0.0%      0.0%
 flops     5 x     4 x    13              5125120     100.0%      0.0%      0.0%
 flops     5 x     4 x     4              6235520     100.0%      0.0%      0.0%
 flops    13 x     4 x    13              6662656     100.0%      0.0%      0.0%
 flops    13 x     4 x     4              8221824     100.0%      0.0%      0.0%
 flops     4 x     4 x     4            417801984     100.0%      0.0%      0.0%
 flops inhomo. stacks                           0       0.0%      0.0%      0.0%
 flops total                       460.626832E+06     100.0%      0.0%      0.0%
 flops max/rank                    460.626832E+06     100.0%      0.0%      0.0%
 matmuls inhomo. stacks                         0       0.0%      0.0%      0.0%
 matmuls total                            3397580     100.0%      0.0%      0.0%
 number of processed stacks                 27040     100.0%      0.0%      0.0%
 average stack size                                   125.7       0.0       0.0
 marketing flops                   749.098368E+06
 -------------------------------------------------------------------------------
 # multiplications                          22635
 max memory usage/rank             327.856128E+06
 # max total images/rank                        1
 # max 3D layers                                1
 # MPI messages exchanged                       0
 MPI messages size (bytes):
  total size                         0.000000E+00
  min size                           0.000000E+00
  max size                           0.000000E+00
  average size                       0.000000E+00
 MPI breakdown and total messages size (bytes):
             size <=      128                   0                        0
       128 < size <=     8192                   0                        0
      8192 < size <=    32768                   0                        0
     32768 < size <=   131072                   0                        0
    131072 < size <=  4194304                   0                        0
   4194304 < size <= 16777216                   0                        0
  16777216 < size                               0                        0
 -------------------------------------------------------------------------------

 MEMORY| Estimated peak process memory [MiB]                                 313

 -------------------------------------------------------------------------------
 -                                                                             -
 -                           R E F E R E N C E S                               -
 -                                                                             -
 -------------------------------------------------------------------------------
 
 CP2K version 7.0 (Development Version), the CP2K developers group (2018).
 CP2K is freely available from https://www.cp2k.org/ .

 Schuett, O; VandeVondele, J. 
 Journal of Chemical Theory and Computation, 14, (2018). 
 Machine Learning Adaptive Basis Sets for Efficient Large Scale Density Functional Theory Simulation.
 https://dx.doi.org/10.1021/acs.jctc.8b00378


 Schuett, Ole; Messmer, Peter; Hutter, Juerg; VandeVondele, Joost. 
 Electronic Structure Calculations on Graphics Processing Units, John Wiley & Sons, Ltd, 173-190 (2016). 
 GPU-Accelerated Sparse Matrix-Matrix Multiplication for Linear Scaling Density Functional Theory.
 https://dx.doi.org/10.1002/9781118670712.ch8


 Borstnik, U; VandeVondele, J; Weber, V; Hutter, J. 
 PARALLEL COMPUTING, 40 (5-6), 47-58 (2014). 
 Sparse matrix multiplication: The distributed block-compressed sparse
 row library.
 https://dx.doi.org/10.1016/j.parco.2014.03.012


 Hutter, J; Iannuzzi, M; Schiffmann, F; VandeVondele, J. 
 WILEY INTERDISCIPLINARY REVIEWS-COMPUTATIONAL MOLECULAR SCIENCE, 4 (1), 15-25 (2014). 
 CP2K: atomistic simulations of condensed matter systems.
 https://dx.doi.org/10.1002/wcms.1159


 VandeVondele, J; Borstnik, U; Hutter, J. 
 JOURNAL OF CHEMICAL THEORY AND COMPUTATION, 8 (10), 3565-3573 (2012). 
 Linear Scaling Self-Consistent Field Calculations with Millions of Atoms
 in the Condensed Phase.
 https://dx.doi.org/10.1021/ct200897x


 VandeVondele, J; Hutter, J. 
 JOURNAL OF CHEMICAL PHYSICS, 127 (11), 114105 (2007). 
 Gaussian basis sets for accurate calculations on molecular systems in
 gas and condensed phases.
 https://dx.doi.org/10.1063/1.2770708


 Krack, M. 
 THEORETICAL CHEMISTRY ACCOUNTS, 114 (1-3), 145-152 (2005). 
 Pseudopotentials for H to Kr optimized for gradient-corrected
 exchange-correlation functionals.
 https://dx.doi.org/10.1007/s00214-005-0655-y


 VandeVondele, J; Krack, M; Mohamed, F; Parrinello, M; Chassaing, T;
 Hutter, J. COMPUTER PHYSICS COMMUNICATIONS, 167 (2), 103-128 (2005). 
 QUICKSTEP: Fast and accurate density functional calculations using a
 mixed Gaussian and plane waves approach.
 https://dx.doi.org/10.1016/j.cpc.2004.12.014


 Frigo, M; Johnson, SG. 
 PROCEEDINGS OF THE IEEE, 93 (2), 216-231 (2005). 
 The design and implementation of FFTW3.
 https://dx.doi.org/10.1109/JPROC.2004.840301


 Niklasson, AMN; Tymczak, CJ; Challacombe, M. 
 JOURNAL OF CHEMICAL PHYSICS, 118 (19), 8611-8620 (2003). 
 Trace resetting density matrix purification in O(N)
 self-consistent-field theory.
 https://dx.doi.org/10.1063/1.1559913


 Hartwigsen, C; Goedecker, S; Hutter, J. 
 PHYSICAL REVIEW B, 58 (7), 3641-3662 (1998). 
 Relativistic separable dual-space Gaussian pseudopotentials from H to Rn.
 https://dx.doi.org/10.1103/PhysRevB.58.3641


 Lippert, G; Hutter, J; Parrinello, M. 
 MOLECULAR PHYSICS, 92 (3), 477-487 (1997). 
 A hybrid Gaussian and plane wave density functional scheme.
 https://dx.doi.org/10.1080/002689797170220


 Perdew, JP; Burke, K; Ernzerhof, M. 
 PHYSICAL REVIEW LETTERS, 77 (18), 3865-3868 (1996). 
 Generalized gradient approximation made simple.
 https://dx.doi.org/10.1103/PhysRevLett.77.3865


 Goedecker, S; Teter, M; Hutter, J. 
 PHYSICAL REVIEW B, 54 (3), 1703-1710 (1996). 
 Separable dual-space Gaussian pseudopotentials.
 https://dx.doi.org/10.1103/PhysRevB.54.1703


 -------------------------------------------------------------------------------
 -                                                                             -
 -                                T I M I N G                                  -
 -                                                                             -
 -------------------------------------------------------------------------------
 SUBROUTINE                       CALLS  ASD         SELF TIME        TOTAL TIME
                                MAXIMUM       AVERAGE  MAXIMUM  AVERAGE  MAXIMUM
 CP2K                                 1  1.0    0.026    0.026   25.992   25.992
 qs_energies                          1  2.0    0.000    0.000   25.463   25.463
 ls_scf                               1  3.0    0.000    0.000   25.319   25.319
 ls_scf_main                          4  4.0    0.000    0.000   13.140   13.140
 ls_scf_dm_to_ks                      9  5.0    0.000    0.000   13.056   13.056
 qs_ks_update_qs_env                 10  6.0    0.000    0.000   10.990   10.990
 rebuild_ks_matrix                   10  7.0    0.000    0.000   10.990   10.990
 qs_ks_build_kohn_sham_matrix        10  8.0    0.001    0.001   10.990   10.990
 pao_update                           4  4.0    0.010    0.010    9.807    9.807
 pao_calc_energy                    413  5.0    0.004    0.004    8.825    8.825
 dbcsr_multiply_generic           22635  8.4    0.461    0.461    7.535    7.535
 qs_vxc_create                       10  9.0    0.000    0.000    6.659    6.659
 xc_vxc_pw_create                    10 10.0    0.097    0.097    6.659    6.659
 xc_rho_set_and_dset_create          10 11.0    0.027    0.027    4.876    4.876
 pao_dm_trs4                        413  6.0    0.003    0.003    4.573    4.573
 pw_transfer                        191 10.6    0.012    0.012    4.534    4.534
 fft_wrap_pw1pw2                    171 11.7    0.002    0.002    4.453    4.453
 density_matrix_trs4                422  7.0    0.178    0.178    4.396    4.396
 qs_rho_update_rho                   10  6.0    0.000    0.000    4.376    4.376
 calculate_rho_elec                  10  7.0    3.363    3.363    4.376    4.376
 fft_wrap_pw1pw2_200                111 12.8    0.290    0.290    4.263    4.263
 ls_scf_init_matrix_S               417  7.0    0.004    0.004    4.243    4.243
 pao_rebuild_S                      413  6.0    0.003    0.003    4.211    4.211
 matrix_sqrt_Newton_Schulz          417  8.0    0.115    0.115    3.830    3.830
 sum_up_and_integrate                10  9.0    0.015    0.015    3.608    3.608
 integrate_v_rspace                  10 10.0    3.122    3.122    3.593    3.593
 multiply_cannon                  22635  9.4    1.224    1.224    3.540    3.540
 xc_functional_eval                  10 12.0    0.000    0.000    3.343    3.343
 pbe_lda_eval                        10 13.0    3.343    3.343    3.343    3.343
 fft3d_s                            172 13.6    2.432    2.432    2.448    2.448
 make_m2s                         45270  9.4    0.168    0.168    2.384    2.384
 pao_guess_initial_P                  1  4.0    0.000    0.000    2.315    2.315
 pao_read_preopt_dm                   1  5.0    0.000    0.000    2.315    2.315
 make_images                      45270 10.4    0.572    0.572    2.106    2.106
 multiply_cannon_multrec          22635 10.4    1.230    1.230    1.344    1.344
 arnoldi_extremal                   839  8.5    0.004    0.004    1.069    1.069
 arnoldi_normal_ev                  839  9.5    0.013    0.013    1.064    1.064
 density_rs2pw                       10  8.0    0.001    0.001    1.000    1.000
 pao_calc_AB                        545  5.8    0.001    0.001    0.963    0.963
 pao_calc_AB_direct                 545  6.8    0.026    0.026    0.962    0.962
 pao_calc_grad_lnv_wrt_AB           131  7.0    0.008    0.008    0.908    0.908
 pw_gather_s                         81 13.1    0.860    0.860    0.860    0.860
 pw_scatter_s                        90 14.2    0.844    0.844    0.844    0.844
 build_subspace                     839 10.5    0.060    0.060    0.790    0.790
 dbcsr_matrix_vector_mult         20124 11.5    0.112    0.112    0.710    0.710
 dbcsr_finalize                   53964  9.6    0.116    0.116    0.688    0.688
 dbcsr_create_new                173095 10.7    0.336    0.336    0.640    0.640
 -------------------------------------------------------------------------------

 The number of warnings for this run is : 0
 
 -------------------------------------------------------------------------------
  **** **** ******  **  PROGRAM ENDED AT                 2019-03-28 17:34:56.531
 ***** ** ***  *** **   PROGRAM RAN ON            oleschuett.zrh.corp.google.com
 **    ****   ******    PROGRAM RAN BY                                oleschuett
 ***** **    ** ** **   PROGRAM PROCESS ID                                 37093
  **** **  *******  **  PROGRAM STOPPED IN /usr/local/google/home/oleschuett/git
                                           /pao_ml_equivar/2H2O_rotations/rand_1
                                           4
