 DBCSR| CPU Multiplication driver                                           XSMM (U)
 DBCSR| Multrec recursion limit                                              512 (U)
 DBCSR| Multiplication stack size                                           1000 (D)
 DBCSR| Maximum elements for images                                    UNLIMITED (U)
 DBCSR| Multiplicative factor virtual images                                   1 (U)
 DBCSR| Use multiplication densification                                       T (D)
 DBCSR| Multiplication size stacks                                             3 (U)
 DBCSR| Use memory pool for CPU allocation                                     F (U)
 DBCSR| OMP: Current number of threads                                         1
 DBCSR| OMP: Max number of threads                                             1
 DBCSR| Split modifier for TAS multiplication algorithm                  1.0E+00 (U)


  **** **** ******  **  PROGRAM STARTED AT               2023-02-01 10:43:54.934
 ***** ** ***  *** **   PROGRAM STARTED ON                                moritz
 **    ****   ******    PROGRAM STARTED BY                                   ole
 ***** **    ** ** **   PROGRAM PROCESS ID                                148517
  **** **  *******  **  PROGRAM STARTED IN /home/ole/git/pao_ml_equivar/2H2O_rot
                                           ations/rand_14

 CP2K| version string:                 CP2K version 2023.1 (Development Version)
 CP2K| source code revision number:                                  git:03b4147
 CP2K| cp2kflags: omp libint fftw3 libxc quip xsmm spglib libvori libbqb libtorc
 CP2K|            h
 CP2K| is freely available from                            https://www.cp2k.org/
 CP2K| Program compiled at                           Mi 01 Feb 2023 10:36:52 CET
 CP2K| Program compiled on                                                moritz
 CP2K| Program compiled for                                                local
 CP2K| Data directory path                               /home/ole/git/cp2k/data
 CP2K| Input file name                                            2H2O_pao44.inp

 GLOBAL| Force Environment number                                              1
 GLOBAL| Basis set file name                                        BASIS_MOLOPT
 GLOBAL| Potential file name                                      GTH_POTENTIALS
 GLOBAL| MM Potential file name                                     MM_POTENTIAL
 GLOBAL| Coordinate file name                                         coords.xyz
 GLOBAL| Method name                                                        CP2K
 GLOBAL| Project name                                                 2H2O_pao44
 GLOBAL| Run type                                                         ENERGY
 GLOBAL| FFT library                                                       FFTW3
 GLOBAL| Diagonalization library                                       ScaLAPACK
 GLOBAL| DGEMM library                                                      BLAS
 GLOBAL| Orthonormality check for eigenvectors                          DISABLED
 GLOBAL| Matrix multiplication library                                 ScaLAPACK
 GLOBAL| All-to-all communication in single precision                          F
 GLOBAL| FFTs using library dependent lengths                                  F
 GLOBAL| Grid backend                                                       AUTO
 GLOBAL| Global print level                                                  LOW
 GLOBAL| MPI I/O enabled                                                       T
 GLOBAL| Total number of message passing processes                             1
 GLOBAL| Number of threads for this process                                    1
 GLOBAL| This output is from process                                           0
 GLOBAL| Stack size for threads created by OpenMP (OMP_STACKSIZE)        default
 GLOBAL| CPU model name           AMD Ryzen Threadripper 3970X 32-Core Processor
 GLOBAL| CPUID                                                              1002
 GLOBAL| Compiled for CPUID                                                    0

 *** HINT in environment.F:884 :: The compiler target flags (generic) used ***
 *** to build this binary cannot exploit all extensions of this CPU model  ***
 *** (x86_avx2). Consider compiler target flags as part of FCFLAGS and     ***
 *** CFLAGS (ARCH file).                                                   ***


 MEMORY| system memory details [Kb]
 MEMORY|                        rank 0           min           max       average
 MEMORY| MemTotal            131773860     131773860     131773860     131773860
 MEMORY| MemFree             115420308     115420308     115420308     115420308
 MEMORY| Buffers                301492        301492        301492        301492
 MEMORY| Cached                7000768       7000768       7000768       7000768
 MEMORY| Slab                   776600        776600        776600        776600
 MEMORY| SReclaimable           330700        330700        330700        330700
 MEMORY| MemLikelyFree       123053268     123053268     123053268     123053268


 GENERATE|  Preliminary Number of Bonds generated:                             0
 GENERATE|  Achieved consistency in connectivity generation.

 *******************************************************************************
 *******************************************************************************
 **                                                                           **
 **     #####                         ##              ##                      **
 **    ##   ##            ##          ##              ##                      **
 **   ##     ##                       ##            ######                    **
 **   ##     ##  ##   ##  ##   #####  ##  ##   ####   ##    #####    #####    **
 **   ##     ##  ##   ##  ##  ##      ## ##   ##      ##   ##   ##  ##   ##   **
 **   ##  ## ##  ##   ##  ##  ##      ####     ###    ##   ######   ######    **
 **    ##  ###   ##   ##  ##  ##      ## ##      ##   ##   ##       ##        **
 **     #######   #####   ##   #####  ##  ##  ####    ##    #####   ##        **
 **           ##                                                    ##        **
 **                                                                           **
 **                                                ... make the atoms dance   **
 **                                                                           **
 **            Copyright (C) by CP2K developers group (2000-2023)             **
 **                      J. Chem. Phys. 152, 194103 (2020)                    **
 **                                                                           **
 *******************************************************************************


 TOTAL NUMBERS AND MAXIMUM NUMBERS

  Total number of            - Atomic kinds:                                   2
                             - Atoms:                                          6
                             - Shell sets:                                     6
                             - Shells:                                        22
                             - Primitive Cartesian functions:                 42
                             - Cartesian basis functions:                     48
                             - Spherical basis functions:                     46

  Maximum angular momentum of- Orbital basis functions:                        2
                             - Local part of the GTH pseudopotential:          2
                             - Non-local part of the GTH pseudopotential:      0

 ------------------------------ Linear scaling SCF -----------------------------
 eps_scf:                                                              0.100E-07
 eps_filter:                                                           0.100E-07
 mixing_fraction:                                                      0.450E+00
 max_scf:                                                                     25
 fixed chemical potential (mu)                                                 F
 has unit metric:                                                              F
 Computing inv(S):                                                             T
 Computing sqrt(S):                                                            T
 Computing S preconditioner                                                    F
 S sqrt method:                                                     NEWTONSCHULZ
 S sqrt order:                                                                 3
 Extrapolation order:                                                          1
 Use single precision matrices                                                 F
 S preconditioner type                                                      NONE
 Polarized Atomic Orbitals (PAO)                                               T
 Purification method                                   Trace resetting 4th order
 Cluster type                                                             ATOMIC
 Computing Chebyshev                                                       FALSE
 Using PAO                                                                     T
 -------------------------------------------------------------------------------

 
 PAO|                                  EPS_PAO                           0.1E-04
 PAO|                                  MIXING                            0.5E+00
 PAO|                                  MAX_PAO                              1000
 PAO|                                  MAX_CYCLES                           1000
 PAO|                                  PARAMETERIZATION              EQUIVARIANT
 PAO|                                  PRECONDITION                            F
 PAO|                                  REGULARIZATION                    0.0E+00
 PAO|                                  EPS_PGF                           0.1E-09
 PAO|                                  PENALTY_DISTANCE                  0.1E+00
 PAO|                                  PENALTY_STRENGTH                  0.5E-02
 PAO|                                  LINPOT_PRECONDITION_DELTA         0.0E+00
 PAO|                                  LINPOT_INITGUESS_DELT             0.0E+00
 PAO|                                  LINPOT_REGULARIZATION_DELTA       0.0E+00
 PAO|                                  LINPOT_REGULARIZATION_STRENGTH    0.0E+00
 PAO|                                  OPTIMIZER                              CG
 PAO|                                  CG_INIT_STEPS                           2
 PAO|                                  CG_RESET_LIMIT                    0.1E+00
 PAO|                                  CHECK_UNITARY_TOL                -0.1E+01
 PAO|                                  CHECK_GRADIENT_TOL               -0.1E+01
 PAO|                                  NUM_GRADIENT_ORDER                      2
 PAO|                                  NUM_GRADIENT_EPS                  0.1E-07
 PAO|                                  PRINT%RESTART%WRITE_CYCLES            100
 PAO|                                  RESTART_FILE 
 PAO|                                  PREOPT_DM_FILE 2H2O_ref_LS_DM_SPIN_1_RESTART.dm
 PAO|                                  MACHINE_LEARNING%METHOD       GAUSSIAN_PR
 PAO|                                  MACHINE_LEARNING%PRIOR               ZERO
 PAO|                                  MACHINE_LEARNING%DESCRIPTOR     POTENTIAL
 PAO|                                  MACHINE_LEARNING%TOLERANCE        0.1E-01
 PAO|                                  MACHINE_LEARNING%GP_NOISE_VAR     0.1E+00
 PAO|                                  MACHINE_LEARNING%GP_SCALE         0.5E-01
 

 Calculating atomic Fock matrix for atomic kind: O

 Electronic structure
    Total number of core electrons                                          2.00
    Total number of valence electrons                                       6.00
    Total number of electrons                                               8.00
    Multiplicity                                                   not specified
    S   [  2.00] 2.00
    P      4.00


 *******************************************************************************
                  Iteration          Convergence                     Energy [au]
 *******************************************************************************
                          1        0.708315                     -15.576645311500
                          2        0.608879                     -15.587933561584
                          3        0.102828E-01                 -15.656849565404
                          4        0.113889E-02                 -15.656866888140
                          5        0.434197E-03                 -15.656867072159
                          6        0.263771E-03                 -15.656867091904
                          7        0.478536E-06                 -15.656867103452

 Energy components [Hartree]           Total Energy ::          -15.656867103452
                                        Band Energy ::           -3.000198112285
                                     Kinetic Energy ::           11.759971203220
                                   Potential Energy ::          -27.416838306672
                                      Virial (-V/T) ::            2.331369510426
                                        Core Energy ::          -26.140716385623
                                          XC Energy ::           -3.154051012914
                                     Coulomb Energy ::           13.637900295084
                       Total Pseudopotential Energy ::          -37.935781716540
                       Local Pseudopotential Energy ::          -39.218907440693
                    Nonlocal Pseudopotential Energy ::            1.283125724153
                                        Confinement ::            0.350941276976

 Orbital energies  State     L     Occupation   Energy[a.u.]          Energy[eV]

                       1     0          2.000      -0.864471          -23.523463

                       1     1          4.000      -0.317814           -8.648154


 Total Electron Density at R=0:                                         0.000068

 Calculating atomic Fock matrix for atomic kind: H

 Electronic structure
    Total number of core electrons                                          0.00
    Total number of valence electrons                                       1.00
    Total number of electrons                                               1.00
    Multiplicity                                                   not specified
    S      1.00


 *******************************************************************************
                  Iteration          Convergence                     Energy [au]
 *******************************************************************************
                          1        0.437545E-02                  -0.424159432110
                          2        0.531356E-03                  -0.424178438213
                          3        0.259176E-06                  -0.424178722480

 Energy components [Hartree]           Total Energy ::           -0.424178722480
                                        Band Energy ::           -0.199015229016
                                     Kinetic Energy ::            0.464007633961
                                   Potential Energy ::           -0.888186356441
                                      Virial (-V/T) ::            1.914163240935
                                        Core Energy ::           -0.479160803564
                                          XC Energy ::           -0.244352904054
                                     Coulomb Energy ::            0.299334985138
                       Total Pseudopotential Energy ::           -0.962295316385
                       Local Pseudopotential Energy ::           -0.962295316385
                    Nonlocal Pseudopotential Energy ::            0.000000000000
                                        Confinement ::            0.191268788606

 Orbital energies  State     L     Occupation   Energy[a.u.]          Energy[eV]

                       1     0          1.000      -0.199015           -5.415480


 Total Electron Density at R=0:                                         0.242907
 PAO| Made initial guess for matrix_X with norm:   4.8989794855663558     

     Lanczos converged:  T threshold:   0.100E-02
     Est. extremal eigenvalues:    0.336E+01   0.115E+00
     Est. condition number :    0.291E+02

 Order=           3
     NS sqrt iter    1 1.00000000   0.822E+00       0.001       60.039
     NS sqrt iter    2 1.00000000   0.440E+00       0.001      110.592
     NS sqrt iter    3 1.00000000   0.170E+00       0.001      110.592
     NS sqrt iter    4 1.00000000   0.203E-01       0.001      110.592
     NS sqrt iter    5 1.00000000   0.510E-04       0.001       90.112
     Symmetrizing Results
     Final NS sqrt iter    5 1.00000000   0.463E-08

 PAO| Read restart DM 2H2O_ref_LS_DM_SPIN_1_RESTART.dm with checksum:    43.683455772254462     
 PAO| Quickstep energy from restart density:  -34.450784694523783     
 PAO| ======================= Iteration:         1 =============================

     Lanczos converged:  T threshold:   0.100E-02
     Est. extremal eigenvalues:    0.336E+01   0.115E+00
     Est. condition number :    0.291E+02

 Order=           3
     NS sqrt iter    1 1.00000000   0.822E+00       0.001       59.875
     NS sqrt iter    2 1.00000000   0.440E+00       0.001      100.999
     NS sqrt iter    3 1.00000000   0.170E+00       0.001      100.541
     NS sqrt iter    4 1.00000000   0.203E-01       0.001      105.502
     NS sqrt iter    5 1.00000000   0.510E-04       0.001       84.825
     Symmetrizing Results
     Final NS sqrt iter    5 1.00000000   0.463E-08

     Est. extremal eigenvalues     -0.91791     1.85588  converged:  T
     TRS4 it   1 1.00000000   0.880E+00       0.000       16.128   0.100E-07
     TRS4 it   2 1.00000000   0.684E+00       0.001       32.256   0.100E-07
     TRS4 it   3 1.00000000   0.495E+00       0.001       32.256   0.100E-07
     TRS4 it   4 1.00000000   0.308E+00       0.001       32.256   0.100E-07
     TRS4 it   5 1.00000000   0.152E+00       0.001       32.256   0.100E-07
     TRS4 it   6 1.00000000   0.468E-01       0.001       32.256   0.100E-07
     TRS4 it   7 1.00000000   0.617E-02       0.001       32.256   0.100E-07
     TRS4 it   8 1.00000000   0.150E-03       0.001       32.256   0.100E-07
     TRS4 it   9 1.00000000   0.100E-06       0.001       32.256   0.100E-07
     TRS4 it  10 1.00000000   0.455E-13       0.001       32.256   0.100E-07
     Final TRS4 iteration   10 1.00000000   0.455E-13
     Chemical potential (mu):      -0.06208
 
 PAO| energy:  -7.5927385141121109      penalty:   4.4373425918681912E-033
 PAO|CG| warming up with steepest descent
 PAO|CG| beta:    0.0000000000000000     
 PAO| norm of gradient:  0.78396165128528350     
 PAO|LS| adapt:  T F F
 PAO|LS| adapt: scan_steps:    0.0000000000000000        0.0000000000000000        0.0000000000000000     
 PAO|LS| adapt: energies:   -7.5927385141121109        0.0000000000000000        0.0000000000000000     
 PAO| ======================= Iteration:         2 =============================

     Lanczos converged:  T threshold:   0.100E-02
     Est. extremal eigenvalues:    0.328E+01   0.129E+00
     Est. condition number :    0.255E+02

 Order=           3
     NS sqrt iter    1 1.00000000   0.806E+00       0.001       59.625
     NS sqrt iter    2 1.00000000   0.424E+00       0.001      100.778
     NS sqrt iter    3 1.00000000   0.152E+00       0.001       99.169
     NS sqrt iter    4 1.00000000   0.140E-01       0.001      101.423
     NS sqrt iter    5 1.00000000   0.158E-04       0.001       78.146
     Symmetrizing Results
     Final NS sqrt iter    5 1.00000000   0.374E-09

     Est. extremal eigenvalues     -0.92157     1.80089  converged:  T
     TRS4 it   1 1.00000000   0.875E+00       0.000       16.128   0.100E-07
     TRS4 it   2 1.00000000   0.665E+00       0.001       32.256   0.100E-07
     TRS4 it   3 1.00000000   0.478E+00       0.001       32.256   0.100E-07
     TRS4 it   4 1.00000000   0.287E+00       0.001       32.256   0.100E-07
     TRS4 it   5 1.00000000   0.132E+00       0.001       32.256   0.100E-07
     TRS4 it   6 1.00000000   0.356E-01       0.001       32.256   0.100E-07
     TRS4 it   7 1.00000000   0.361E-02       0.001       32.256   0.100E-07
     TRS4 it   8 1.00000000   0.520E-04       0.001       32.256   0.100E-07
     TRS4 it   9 1.00000000   0.120E-07       0.001       32.256   0.100E-07
     Final TRS4 iteration    9 1.00000000   0.120E-07
     Chemical potential (mu):      -0.05008
 
 PAO| energy:  -7.6483038537644097      penalty:   2.2545294577560475E-008
 PAO|LS| adapt:  T T F
 PAO|LS| adapt: scan_steps:    0.0000000000000000       0.10000000000000001        0.0000000000000000     
 PAO|LS| adapt: energies:   -7.5927385141121109       -7.6483038537644097        0.0000000000000000     
 PAO| ======================= Iteration:         3 =============================

     Lanczos converged:  T threshold:   0.100E-02
     Est. extremal eigenvalues:    0.318E+01   0.141E+00
     Est. condition number :    0.227E+02

 Order=           3
     NS sqrt iter    1 1.00000000   0.788E+00       0.001       58.903
     NS sqrt iter    2 1.00000000   0.408E+00       0.001       99.618
     NS sqrt iter    3 1.00000000   0.135E+00       0.001      100.888
     NS sqrt iter    4 1.00000000   0.956E-02       0.001      100.146
     NS sqrt iter    5 1.00000000   0.508E-05       0.001       77.881
     Symmetrizing Results
     Final NS sqrt iter    5 1.00000000   0.387E-10

     Est. extremal eigenvalues     -0.92500     1.75716  converged:  T
     TRS4 it   1 1.00000000   0.872E+00       0.000       16.128   0.100E-07
     TRS4 it   2 1.00000000   0.648E+00       0.001       32.256   0.100E-07
     TRS4 it   3 1.00000000   0.461E+00       0.001       32.256   0.100E-07
     TRS4 it   4 1.00000000   0.267E+00       0.001       32.256   0.100E-07
     TRS4 it   5 1.00000000   0.113E+00       0.001       32.256   0.100E-07
     TRS4 it   6 1.00000000   0.261E-01       0.001       32.256   0.100E-07
     TRS4 it   7 1.00000000   0.195E-02       0.001       32.256   0.100E-07
     TRS4 it   8 1.00000000   0.152E-04       0.001       32.256   0.100E-07
     TRS4 it   9 1.00000000   0.103E-08       0.001       32.256   0.100E-07
     Final TRS4 iteration    9 1.00000000   0.103E-08
     Chemical potential (mu):      -0.03713
 
 PAO| energy:  -7.6914188461256021      penalty:   3.6072442017815650E-007
 PAO|LS| adapt:  T T F
 PAO|LS| adapt: scan_steps:    0.0000000000000000       0.20000000000000001        0.0000000000000000     
 PAO|LS| adapt: energies:   -7.5927385141121109       -7.6914188461256021        0.0000000000000000     
 PAO| ======================= Iteration:         4 =============================

     Lanczos converged:  T threshold:   0.100E-02
     Est. extremal eigenvalues:    0.299E+01   0.159E+00
     Est. condition number :    0.188E+02

 Order=           3
     NS sqrt iter    1 1.00000000   0.750E+00       0.001       58.417
     NS sqrt iter    2 1.00000000   0.373E+00       0.001      101.675
     NS sqrt iter    3 1.00000000   0.105E+00       0.001      100.731
     NS sqrt iter    4 1.00000000   0.460E-02       0.001      100.252
     NS sqrt iter    5 1.00000000   0.682E-06       0.001       78.936
     Symmetrizing Results
     Final NS sqrt iter    5 1.00000000   0.779E-12

     Est. extremal eigenvalues     -0.93032     1.69511  converged:  T
     TRS4 it   1 1.00000000   0.867E+00       0.000       16.128   0.100E-07
     TRS4 it   2 1.00000000   0.621E+00       0.001       32.256   0.100E-07
     TRS4 it   3 1.00000000   0.430E+00       0.001       32.256   0.100E-07
     TRS4 it   4 1.00000000   0.229E+00       0.001       32.256   0.100E-07
     TRS4 it   5 1.00000000   0.814E-01       0.001       32.256   0.100E-07
     TRS4 it   6 1.00000000   0.131E-01       0.001       32.256   0.100E-07
     TRS4 it   7 1.00000000   0.469E-03       0.001       32.256   0.100E-07
     TRS4 it   8 1.00000000   0.860E-06       0.001       32.256   0.100E-07
     TRS4 it   9 1.00000000   0.330E-11       0.001       32.256   0.100E-07
     Final TRS4 iteration    9 1.00000000   0.330E-11
     Chemical potential (mu):      -0.00877
 
 PAO| energy:  -7.7386850166814591      penalty:   5.7715883783529738E-006
 PAO|LS| Need extra step
 PAO|LS| adapt:  T T F
 PAO|LS| adapt: scan_steps:    0.0000000000000000       0.40000000000000002        0.0000000000000000     
 PAO|LS| adapt: energies:   -7.5927385141121109       -7.7386850166814591        0.0000000000000000     
 PAO| ======================= Iteration:         5 =============================

     Lanczos converged:  T threshold:   0.100E-02
     Est. extremal eigenvalues:    0.263E+01   0.186E+00
     Est. condition number :    0.141E+02

 Order=           3
     NS sqrt iter    1 1.00000000   0.685E+00       0.001       59.528
     NS sqrt iter    2 1.00000000   0.311E+00       0.001      100.589
     NS sqrt iter    3 1.00000000   0.644E-01       0.001      100.783
     NS sqrt iter    4 1.00000000   0.124E-02       0.001       99.816
     NS sqrt iter    5 1.00000000   0.180E-07       0.001       51.024
     Symmetrizing Results
     Final NS sqrt iter    5 1.00000000   0.512E-09

     Est. extremal eigenvalues     -0.93156     1.63031  converged:  T
     TRS4 it   1 1.00000000   0.863E+00       0.000       16.128   0.100E-07
     TRS4 it   2 1.00000000   0.586E+00       0.001       32.256   0.100E-07
     TRS4 it   3 1.00000000   0.381E+00       0.001       32.256   0.100E-07
     TRS4 it   4 1.00000000   0.172E+00       0.001       32.256   0.100E-07
     TRS4 it   5 1.00000000   0.428E-01       0.001       32.256   0.100E-07
     TRS4 it   6 1.00000000   0.330E-02       0.001       32.256   0.100E-07
     TRS4 it   7 1.00000000   0.253E-04       0.001       32.256   0.100E-07
     TRS4 it   8 1.00000000   0.187E-08       0.001       32.256   0.100E-07
     Final TRS4 iteration    8 1.00000000   0.187E-08
     Chemical potential (mu):       0.03956
 
 PAO| energy:  -7.6838044869553705      penalty:   9.2345395297684679E-005
 PAO|LS| Need extra step
 PAO|LS| adapt:  T T T
 PAO|LS| adapt: scan_steps:    0.0000000000000000       0.40000000000000002       0.80000000000000004     
 PAO|LS| adapt: energies:   -7.5927385141121109       -7.7386850166814591       -7.6838044869553705     
 PAO|LS| adapt: suggested step_size:   0.49069095111587613     
 PAO|LS| adapt: predicted energy  -7.7438468039886139     
 PAO| ======================= Iteration:         6 =============================

     Lanczos converged:  T threshold:   0.100E-02
     Est. extremal eigenvalues:    0.290E+01   0.166E+00
     Est. condition number :    0.174E+02

 Order=           3
     NS sqrt iter    1 1.00000000   0.734E+00       0.001       59.803
     NS sqrt iter    2 1.00000000   0.358E+00       0.001      100.316
     NS sqrt iter    3 1.00000000   0.938E-01       0.001      102.378
     NS sqrt iter    4 1.00000000   0.336E-02       0.001      102.557
     NS sqrt iter    5 1.00000000   0.294E-06       0.001       77.083
     Symmetrizing Results
     Final NS sqrt iter    5 1.00000000   0.343E-09

     Est. extremal eigenvalues     -0.93180     1.67510  converged:  T
     TRS4 it   1 1.00000000   0.865E+00       0.000       16.128   0.100E-07
     TRS4 it   2 1.00000000   0.611E+00       0.001       32.256   0.100E-07
     TRS4 it   3 1.00000000   0.417E+00       0.001       32.256   0.100E-07
     TRS4 it   4 1.00000000   0.213E+00       0.001       32.256   0.100E-07
     TRS4 it   5 1.00000000   0.698E-01       0.001       32.256   0.100E-07
     TRS4 it   6 1.00000000   0.941E-02       0.001       32.256   0.100E-07
     TRS4 it   7 1.00000000   0.232E-03       0.001       32.256   0.100E-07
     TRS4 it   8 1.00000000   0.203E-06       0.001       32.256   0.100E-07
     TRS4 it   9 1.00000000   0.181E-12       0.001       32.256   0.100E-07
     Final TRS4 iteration    9 1.00000000   0.181E-12
     Chemical potential (mu):       0.00479
 
 PAO| energy:  -7.7431133544384725      penalty:   1.3070359983324110E-005
 PAO|CG| warming up with steepest descent
 PAO|CG| beta:    0.0000000000000000     
 PAO| norm of gradient:  0.41826636293906483     
 PAO| energy improvement: -0.15037484032636161     
 PAO| step      6                   -7.743113354  0.261E-01  0.491E+00     0.091
 PAO|LS| adapt:  T F F
 PAO|LS| adapt: scan_steps:    0.0000000000000000        0.0000000000000000        0.0000000000000000     
 PAO|LS| adapt: energies:   -7.7431133544384725        0.0000000000000000        0.0000000000000000     
 PAO| ======================= Iteration:         7 =============================

     Lanczos converged:  T threshold:   0.100E-02
     Est. extremal eigenvalues:    0.281E+01   0.180E+00
     Est. condition number :    0.156E+02

 Order=           3
     NS sqrt iter    1 1.00000000   0.716E+00       0.001       58.142
     NS sqrt iter    2 1.00000000   0.337E+00       0.001       99.558
     NS sqrt iter    3 1.00000000   0.781E-01       0.001       99.102
     NS sqrt iter    4 1.00000000   0.201E-02       0.001      100.655
     NS sqrt iter    5 1.00000000   0.703E-07       0.001       67.496
     Symmetrizing Results
     Final NS sqrt iter    5 1.00000000   0.548E-09

     Est. extremal eigenvalues     -0.93352     1.66390  converged:  T
     TRS4 it   1 1.00000000   0.865E+00       0.000       16.128   0.100E-07
     TRS4 it   2 1.00000000   0.610E+00       0.001       32.256   0.100E-07
     TRS4 it   3 1.00000000   0.417E+00       0.001       32.256   0.100E-07
     TRS4 it   4 1.00000000   0.214E+00       0.001       32.256   0.100E-07
     TRS4 it   5 1.00000000   0.705E-01       0.001       32.256   0.100E-07
     TRS4 it   6 1.00000000   0.935E-02       0.001       32.256   0.100E-07
     TRS4 it   7 1.00000000   0.217E-03       0.001       32.256   0.100E-07
     TRS4 it   8 1.00000000   0.168E-06       0.001       32.256   0.100E-07
     TRS4 it   9 1.00000000   0.123E-12       0.001       32.256   0.100E-07
     Final TRS4 iteration    9 1.00000000   0.123E-12
     Chemical potential (mu):       0.00679
 
 PAO| energy:  -7.7370610240776161      penalty:   1.9818003674880193E-005
 PAO|LS| adapt:  T F T
 PAO|LS| adapt: scan_steps:    0.0000000000000000        0.0000000000000000       0.49069095111587613     
 PAO|LS| adapt: energies:   -7.7431133544384725        0.0000000000000000       -7.7370610240776161     
 PAO| ======================= Iteration:         8 =============================

     Lanczos converged:  T threshold:   0.100E-02
     Est. extremal eigenvalues:    0.285E+01   0.173E+00
     Est. condition number :    0.165E+02

 Order=           3
     NS sqrt iter    1 1.00000000   0.725E+00       0.001       59.856
     NS sqrt iter    2 1.00000000   0.347E+00       0.001       98.899
     NS sqrt iter    3 1.00000000   0.857E-01       0.001       99.090
     NS sqrt iter    4 1.00000000   0.262E-02       0.001      100.659
     NS sqrt iter    5 1.00000000   0.147E-06       0.001       74.125
     Symmetrizing Results
     Final NS sqrt iter    5 1.00000000   0.122E-08

     Est. extremal eigenvalues     -0.93363     1.66883  converged:  T
     TRS4 it   1 1.00000000   0.864E+00       0.000       16.128   0.100E-07
     TRS4 it   2 1.00000000   0.610E+00       0.001       32.256   0.100E-07
     TRS4 it   3 1.00000000   0.417E+00       0.001       32.256   0.100E-07
     TRS4 it   4 1.00000000   0.213E+00       0.001       32.256   0.100E-07
     TRS4 it   5 1.00000000   0.699E-01       0.001       32.256   0.100E-07
     TRS4 it   6 1.00000000   0.943E-02       0.001       32.256   0.100E-07
     TRS4 it   7 1.00000000   0.231E-03       0.001       32.256   0.100E-07
     TRS4 it   8 1.00000000   0.196E-06       0.001       32.256   0.100E-07
     TRS4 it   9 1.00000000   0.170E-12       0.001       32.256   0.100E-07
     Final TRS4 iteration    9 1.00000000   0.170E-12
     Chemical potential (mu):       0.00536
 
 PAO| energy:  -7.7628187028630933      penalty:   1.4179757070760609E-005
 PAO|LS| adapt:  T T T
 PAO|LS| adapt: scan_steps:    0.0000000000000000       0.24534547555793806       0.49069095111587613     
 PAO|LS| adapt: energies:   -7.7431133544384725       -7.7628187028630933       -7.7370610240776161     
 PAO|LS| adapt: suggested step_size:   0.22901449232011006     
 PAO|LS| adapt: predicted energy  -7.7629194185023858     
 PAO| ======================= Iteration:         9 =============================

     Lanczos converged:  T threshold:   0.100E-02
     Est. extremal eigenvalues:    0.286E+01   0.173E+00
     Est. condition number :    0.165E+02

 Order=           3
     NS sqrt iter    1 1.00000000   0.725E+00       0.001       59.660
     NS sqrt iter    2 1.00000000   0.348E+00       0.001       97.911
     NS sqrt iter    3 1.00000000   0.863E-01       0.001      103.035
     NS sqrt iter    4 1.00000000   0.266E-02       0.001      101.542
     NS sqrt iter    5 1.00000000   0.154E-06       0.001       74.442
     Symmetrizing Results
     Final NS sqrt iter    5 1.00000000   0.119E-08

     Est. extremal eigenvalues     -0.93357     1.66920  converged:  T
     TRS4 it   1 1.00000000   0.864E+00       0.000       16.128   0.100E-07
     TRS4 it   2 1.00000000   0.610E+00       0.001       32.256   0.100E-07
     TRS4 it   3 1.00000000   0.417E+00       0.001       32.256   0.100E-07
     TRS4 it   4 1.00000000   0.213E+00       0.001       32.256   0.100E-07
     TRS4 it   5 1.00000000   0.699E-01       0.001       32.256   0.100E-07
     TRS4 it   6 1.00000000   0.943E-02       0.001       32.256   0.100E-07
     TRS4 it   7 1.00000000   0.231E-03       0.001       32.256   0.100E-07
     TRS4 it   8 1.00000000   0.197E-06       0.001       32.256   0.100E-07
     TRS4 it   9 1.00000000   0.171E-12       0.001       32.256   0.100E-07
     Final TRS4 iteration    9 1.00000000   0.171E-12
     Chemical potential (mu):       0.00529
 
 PAO| energy:  -7.7629440154776272      penalty:   1.4004275548270821E-005
 PAO|CG| trace_G_new    3.6900755569412719E-002
 PAO|CG| trace_G_prev   0.17494675036627352     
 PAO|CG| trace_G_mix   -1.4573796480338787E-003
 PAO|CG| trace_D   0.17494675036627352     
 PAO|CG| trace_D_Gnew   1.4573796480338787E-003
 PAO|CG| beta:   0.21925606012766116     
 PAO| norm of gradient:  0.19209569378154398     
 PAO| energy improvement:  -1.9830661039154762E-002
 PAO| step      9                   -7.762944015  0.120E-01  0.229E+00     0.057
 PAO|LS| adapt:  T F F
 PAO|LS| adapt: scan_steps:    0.0000000000000000        0.0000000000000000        0.0000000000000000     
 PAO|LS| adapt: energies:   -7.7629440154776272        0.0000000000000000        0.0000000000000000     
 PAO| ======================= Iteration:        10 =============================

     Lanczos converged:  T threshold:   0.100E-02
     Est. extremal eigenvalues:    0.282E+01   0.178E+00
     Est. condition number :    0.158E+02

 Order=           3
     NS sqrt iter    1 1.00000000   0.717E+00       0.001       59.684
     NS sqrt iter    2 1.00000000   0.340E+00       0.001      100.096
     NS sqrt iter    3 1.00000000   0.806E-01       0.001       98.733
     NS sqrt iter    4 1.00000000   0.219E-02       0.001       99.742
     NS sqrt iter    5 1.00000000   0.853E-07       0.001       70.453
     Symmetrizing Results
     Final NS sqrt iter    5 1.00000000   0.964E-09

     Est. extremal eigenvalues     -0.93446     1.66755  converged:  T
     TRS4 it   1 1.00000000   0.864E+00       0.000       16.128   0.100E-07
     TRS4 it   2 1.00000000   0.609E+00       0.001       32.256   0.100E-07
     TRS4 it   3 1.00000000   0.415E+00       0.001       32.256   0.100E-07
     TRS4 it   4 1.00000000   0.211E+00       0.001       32.256   0.100E-07
     TRS4 it   5 1.00000000   0.682E-01       0.001       32.256   0.100E-07
     TRS4 it   6 1.00000000   0.892E-02       0.001       32.256   0.100E-07
     TRS4 it   7 1.00000000   0.204E-03       0.001       32.256   0.100E-07
     TRS4 it   8 1.00000000   0.149E-06       0.001       32.256   0.100E-07
     TRS4 it   9 1.00000000   0.969E-13       0.001       32.256   0.100E-07
     Final TRS4 iteration    9 1.00000000   0.969E-13
     Chemical potential (mu):       0.00833
 
 PAO| energy:  -7.7679961488180860      penalty:   1.4543380428663794E-005
 PAO|LS| adapt:  T T F
 PAO|LS| adapt: scan_steps:    0.0000000000000000       0.22901449232011006        0.0000000000000000     
 PAO|LS| adapt: energies:   -7.7629440154776272       -7.7679961488180860        0.0000000000000000     
 PAO| ======================= Iteration:        11 =============================

     Lanczos converged:  T threshold:   0.100E-02
     Est. extremal eigenvalues:    0.278E+01   0.184E+00
     Est. condition number :    0.151E+02

 Order=           3
     NS sqrt iter    1 1.00000000   0.709E+00       0.001       59.197
     NS sqrt iter    2 1.00000000   0.331E+00       0.001       98.781
     NS sqrt iter    3 1.00000000   0.753E-01       0.001      100.017
     NS sqrt iter    4 1.00000000   0.179E-02       0.001       99.449
     NS sqrt iter    5 1.00000000   0.467E-07       0.001       64.873
     Symmetrizing Results
     Final NS sqrt iter    5 1.00000000   0.347E-09

     Est. extremal eigenvalues     -0.93439     1.66737  converged:  T
     TRS4 it   1 1.00000000   0.863E+00       0.000       16.128   0.100E-07
     TRS4 it   2 1.00000000   0.609E+00       0.001       32.256   0.100E-07
     TRS4 it   3 1.00000000   0.414E+00       0.001       32.256   0.100E-07
     TRS4 it   4 1.00000000   0.209E+00       0.001       32.256   0.100E-07
     TRS4 it   5 1.00000000   0.667E-01       0.001       32.256   0.100E-07
     TRS4 it   6 1.00000000   0.846E-02       0.001       32.256   0.100E-07
     TRS4 it   7 1.00000000   0.180E-03       0.001       32.256   0.100E-07
     TRS4 it   8 1.00000000   0.113E-06       0.001       32.256   0.100E-07
     TRS4 it   9 1.00000000   0.550E-13       0.001       32.256   0.100E-07
     Final TRS4 iteration    9 1.00000000   0.550E-13
     Chemical potential (mu):       0.01147
 
 PAO| energy:  -7.7666380897152409      penalty:   1.5752173007566794E-005
 PAO|LS| adapt:  T T T
 PAO|LS| adapt: scan_steps:    0.0000000000000000       0.22901449232011006       0.45802898464022013     
 PAO|LS| adapt: energies:   -7.7629440154776272       -7.7679961488180860       -7.7666380897152409     
 PAO|LS| adapt: suggested step_size:   0.29500288062533536     
 PAO|LS| adapt: predicted energy  -7.7682622520707127     
 PAO| ======================= Iteration:        12 =============================

     Lanczos converged:  T threshold:   0.100E-02
     Est. extremal eigenvalues:    0.281E+01   0.180E+00
     Est. condition number :    0.156E+02

 Order=           3
     NS sqrt iter    1 1.00000000   0.715E+00       0.001       58.745
     NS sqrt iter    2 1.00000000   0.337E+00       0.001       99.163
     NS sqrt iter    3 1.00000000   0.791E-01       0.001      103.043
     NS sqrt iter    4 1.00000000   0.206E-02       0.001      100.288
     NS sqrt iter    5 1.00000000   0.718E-07       0.001       68.168
     Symmetrizing Results
     Final NS sqrt iter    5 1.00000000   0.502E-09

     Est. extremal eigenvalues     -0.93453     1.66735  converged:  T
     TRS4 it   1 1.00000000   0.864E+00       0.000       16.128   0.100E-07
     TRS4 it   2 1.00000000   0.609E+00       0.001       32.256   0.100E-07
     TRS4 it   3 1.00000000   0.415E+00       0.001       32.256   0.100E-07
     TRS4 it   4 1.00000000   0.210E+00       0.001       32.256   0.100E-07
     TRS4 it   5 1.00000000   0.678E-01       0.001       32.256   0.100E-07
     TRS4 it   6 1.00000000   0.878E-02       0.001       32.256   0.100E-07
     TRS4 it   7 1.00000000   0.196E-03       0.001       32.256   0.100E-07
     TRS4 it   8 1.00000000   0.137E-06       0.001       32.256   0.100E-07
     TRS4 it   9 1.00000000   0.824E-13       0.001       32.256   0.100E-07
     Final TRS4 iteration    9 1.00000000   0.824E-13
     Chemical potential (mu):       0.00923
 
 PAO| energy:  -7.7682459139980633      penalty:   1.4815240897071074E-005
 PAO|CG| trace_G_new    1.1857225225760971E-002
 PAO|CG| trace_G_prev    3.6900755569412719E-002
 PAO|CG| trace_G_mix   -4.5359414851628400E-004
 PAO|CG| trace_D    4.4671930531557845E-002
 PAO|CG| trace_D_Gnew   2.0379519324954256E-004
 PAO|CG| beta:   0.33361971006582247     
 PAO| norm of gradient:  0.10889088678930378     
 PAO| energy improvement:  -5.3018985204360547E-003
 PAO| step     12                   -7.768245914  0.681E-02  0.295E+00     0.058
 PAO|LS| adapt:  T F F
 PAO|LS| adapt: scan_steps:    0.0000000000000000        0.0000000000000000        0.0000000000000000     
 PAO|LS| adapt: energies:   -7.7682459139980633        0.0000000000000000        0.0000000000000000     
 PAO| ======================= Iteration:        13 =============================

     Lanczos converged:  T threshold:   0.100E-02
     Est. extremal eigenvalues:    0.277E+01   0.184E+00
     Est. condition number :    0.150E+02

 Order=           3
     NS sqrt iter    1 1.00000000   0.708E+00       0.001       58.965
     NS sqrt iter    2 1.00000000   0.330E+00       0.001       98.463
     NS sqrt iter    3 1.00000000   0.747E-01       0.001       99.347
     NS sqrt iter    4 1.00000000   0.175E-02       0.001      100.343
     NS sqrt iter    5 1.00000000   0.443E-07       0.001       65.331
     Symmetrizing Results
     Final NS sqrt iter    5 1.00000000   0.304E-09

     Est. extremal eigenvalues     -0.93502     1.66180  converged:  T
     TRS4 it   1 1.00000000   0.863E+00       0.000       16.128   0.100E-07
     TRS4 it   2 1.00000000   0.606E+00       0.001       32.256   0.100E-07
     TRS4 it   3 1.00000000   0.411E+00       0.001       32.256   0.100E-07
     TRS4 it   4 1.00000000   0.206E+00       0.001       32.256   0.100E-07
     TRS4 it   5 1.00000000   0.643E-01       0.001       32.256   0.100E-07
     TRS4 it   6 1.00000000   0.787E-02       0.001       32.256   0.100E-07
     TRS4 it   7 1.00000000   0.155E-03       0.001       32.256   0.100E-07
     TRS4 it   8 1.00000000   0.843E-07       0.001       32.256   0.100E-07
     TRS4 it   9 1.00000000   0.304E-13       0.001       32.256   0.100E-07
     Final TRS4 iteration    9 1.00000000   0.304E-13
     Chemical potential (mu):       0.01368
 
 PAO| energy:  -7.7703268005711301      penalty:   1.5129727398116360E-005
 PAO|LS| adapt:  T T F
 PAO|LS| adapt: scan_steps:    0.0000000000000000       0.29500288062533536        0.0000000000000000     
 PAO|LS| adapt: energies:   -7.7682459139980633       -7.7703268005711301        0.0000000000000000     
 PAO| ======================= Iteration:        14 =============================

     Lanczos converged:  T threshold:   0.100E-02
     Est. extremal eigenvalues:    0.274E+01   0.189E+00
     Est. condition number :    0.145E+02

 Order=           3
     NS sqrt iter    1 1.00000000   0.700E+00       0.001       58.983
     NS sqrt iter    2 1.00000000   0.323E+00       0.001      100.065
     NS sqrt iter    3 1.00000000   0.705E-01       0.001       99.242
     NS sqrt iter    4 1.00000000   0.148E-02       0.001       98.514
     NS sqrt iter    5 1.00000000   0.268E-07       0.001       55.270
     Symmetrizing Results
     Final NS sqrt iter    5 1.00000000   0.427E-08

     Est. extremal eigenvalues     -0.93500     1.65654  converged:  T
     TRS4 it   1 1.00000000   0.863E+00       0.000       16.128   0.100E-07
     TRS4 it   2 1.00000000   0.604E+00       0.001       32.256   0.100E-07
     TRS4 it   3 1.00000000   0.407E+00       0.001       32.256   0.100E-07
     TRS4 it   4 1.00000000   0.201E+00       0.001       32.256   0.100E-07
     TRS4 it   5 1.00000000   0.611E-01       0.001       32.256   0.100E-07
     TRS4 it   6 1.00000000   0.705E-02       0.001       32.256   0.100E-07
     TRS4 it   7 1.00000000   0.123E-03       0.001       32.256   0.100E-07
     TRS4 it   8 1.00000000   0.518E-07       0.001       32.256   0.100E-07
     Final TRS4 iteration    8 1.00000000   0.518E-07
     Chemical potential (mu):       0.01552
 
 PAO| energy:  -7.7696644457415438      penalty:   1.5932388059683972E-005
 PAO|LS| adapt:  T T T
 PAO|LS| adapt: scan_steps:    0.0000000000000000       0.29500288062533536       0.59000576125067072     
 PAO|LS| adapt: energies:   -7.7682459139980633       -7.7703268005711301       -7.7696644457415438     
 PAO|LS| adapt: suggested step_size:   0.37127596220330011     
 PAO|LS| adapt: predicted energy  -7.7704184910210357     
 PAO| ======================= Iteration:        15 =============================

     Lanczos converged:  T threshold:   0.100E-02
     Est. extremal eigenvalues:    0.276E+01   0.185E+00
     Est. condition number :    0.149E+02

 Order=           3
     NS sqrt iter    1 1.00000000   0.706E+00       0.001       59.223
     NS sqrt iter    2 1.00000000   0.328E+00       0.001       99.506
     NS sqrt iter    3 1.00000000   0.736E-01       0.001      101.652
     NS sqrt iter    4 1.00000000   0.167E-02       0.001      100.487
     NS sqrt iter    5 1.00000000   0.391E-07       0.001       62.658
     Symmetrizing Results
     Final NS sqrt iter    5 1.00000000   0.313E-09

     Est. extremal eigenvalues     -0.93506     1.66041  converged:  T
     TRS4 it   1 1.00000000   0.863E+00       0.000       16.128   0.100E-07
     TRS4 it   2 1.00000000   0.606E+00       0.001       32.256   0.100E-07
     TRS4 it   3 1.00000000   0.410E+00       0.001       32.256   0.100E-07
     TRS4 it   4 1.00000000   0.204E+00       0.001       32.256   0.100E-07
     TRS4 it   5 1.00000000   0.635E-01       0.001       32.256   0.100E-07
     TRS4 it   6 1.00000000   0.765E-02       0.001       32.256   0.100E-07
     TRS4 it   7 1.00000000   0.146E-03       0.001       32.256   0.100E-07
     TRS4 it   8 1.00000000   0.743E-07       0.001       32.256   0.100E-07
     Final TRS4 iteration    8 1.00000000   0.743E-07
     Chemical potential (mu):       0.01263
 
 PAO| energy:  -7.7704153060658205      penalty:   1.5287385523989795E-005
 PAO|CG| trace_G_new    2.6174227215389825E-003
 PAO|CG| trace_G_prev    1.1857225225760971E-002
 PAO|CG| trace_G_mix    6.2256940495591855E-005
 PAO|CG| trace_D    1.6693325207315670E-002
 PAO|CG| trace_D_Gnew   3.4663141281442522E-005
 PAO|CG| beta:   0.21549441225861557     
 PAO| norm of gradient:   5.1160753723327637E-002
 PAO| energy improvement:  -2.1693920677572365E-003
 PAO| step     15                   -7.770415306  0.320E-02  0.371E+00     0.056
 PAO|LS| adapt:  T F F
 PAO|LS| adapt: scan_steps:    0.0000000000000000        0.0000000000000000        0.0000000000000000     
 PAO|LS| adapt: energies:   -7.7704153060658205        0.0000000000000000        0.0000000000000000     
 PAO| ======================= Iteration:        16 =============================

     Lanczos converged:  T threshold:   0.100E-02
     Est. extremal eigenvalues:    0.275E+01   0.186E+00
     Est. condition number :    0.148E+02

 Order=           3
     NS sqrt iter    1 1.00000000   0.704E+00       0.001       59.335
     NS sqrt iter    2 1.00000000   0.327E+00       0.001       98.439
     NS sqrt iter    3 1.00000000   0.729E-01       0.001      100.631
     NS sqrt iter    4 1.00000000   0.162E-02       0.001      100.268
     NS sqrt iter    5 1.00000000   0.354E-07       0.001       61.256
     Symmetrizing Results
     Final NS sqrt iter    5 1.00000000   0.409E-09

     Est. extremal eigenvalues     -0.93509     1.66032  converged:  T
     TRS4 it   1 1.00000000   0.863E+00       0.000       16.128   0.100E-07
     TRS4 it   2 1.00000000   0.605E+00       0.001       32.256   0.100E-07
     TRS4 it   3 1.00000000   0.409E+00       0.001       32.256   0.100E-07
     TRS4 it   4 1.00000000   0.203E+00       0.001       32.256   0.100E-07
     TRS4 it   5 1.00000000   0.624E-01       0.001       32.256   0.100E-07
     TRS4 it   6 1.00000000   0.740E-02       0.001       32.256   0.100E-07
     TRS4 it   7 1.00000000   0.138E-03       0.001       32.256   0.100E-07
     TRS4 it   8 1.00000000   0.666E-07       0.001       32.256   0.100E-07
     Final TRS4 iteration    8 1.00000000   0.666E-07
     Chemical potential (mu):       0.01360
 
 PAO| energy:  -7.7705395038437572      penalty:   1.5068633389899046E-005
 PAO|LS| adapt:  T T F
 PAO|LS| adapt: scan_steps:    0.0000000000000000       0.37127596220330011        0.0000000000000000     
 PAO|LS| adapt: energies:   -7.7704153060658205       -7.7705395038437572        0.0000000000000000     
 PAO| ======================= Iteration:        17 =============================

     Lanczos converged:  T threshold:   0.100E-02
     Est. extremal eigenvalues:    0.274E+01   0.187E+00
     Est. condition number :    0.147E+02

 Order=           3
     NS sqrt iter    1 1.00000000   0.702E+00       0.001       58.691
     NS sqrt iter    2 1.00000000   0.326E+00       0.001       99.962
     NS sqrt iter    3 1.00000000   0.722E-01       0.001      100.340
     NS sqrt iter    4 1.00000000   0.157E-02       0.001       99.325
     NS sqrt iter    5 1.00000000   0.321E-07       0.001       60.113
     Symmetrizing Results
     Final NS sqrt iter    5 1.00000000   0.329E-08

     Est. extremal eigenvalues     -0.93500     1.66031  converged:  T
     TRS4 it   1 1.00000000   0.864E+00       0.000       16.128   0.100E-07
     TRS4 it   2 1.00000000   0.604E+00       0.001       32.256   0.100E-07
     TRS4 it   3 1.00000000   0.408E+00       0.001       32.256   0.100E-07
     TRS4 it   4 1.00000000   0.201E+00       0.001       32.256   0.100E-07
     TRS4 it   5 1.00000000   0.614E-01       0.001       32.256   0.100E-07
     TRS4 it   6 1.00000000   0.717E-02       0.001       32.256   0.100E-07
     TRS4 it   7 1.00000000   0.130E-03       0.001       32.256   0.100E-07
     TRS4 it   8 1.00000000   0.598E-07       0.001       32.256   0.100E-07
     Final TRS4 iteration    8 1.00000000   0.598E-07
     Chemical potential (mu):       0.01455
 
 PAO| energy:  -7.7689682989179838      penalty:   1.4976129514300289E-005
 PAO|LS| adapt:  T T T
 PAO|LS| adapt: scan_steps:    0.0000000000000000       0.37127596220330011       0.74255192440660023     
 PAO|LS| adapt: energies:   -7.7704153060658205       -7.7705395038437572       -7.7689682989179838     
 PAO|LS| adapt: suggested step_size:   0.21283603228208864     
 PAO|LS| adapt: predicted energy  -7.7706938793854290     
 PAO| ======================= Iteration:        18 =============================

     Lanczos converged:  T threshold:   0.100E-02
     Est. extremal eigenvalues:    0.276E+01   0.186E+00
     Est. condition number :    0.148E+02

 Order=           3
     NS sqrt iter    1 1.00000000   0.705E+00       0.001       58.799
     NS sqrt iter    2 1.00000000   0.327E+00       0.001      100.654
     NS sqrt iter    3 1.00000000   0.732E-01       0.001      101.341
     NS sqrt iter    4 1.00000000   0.164E-02       0.001       98.171
     NS sqrt iter    5 1.00000000   0.369E-07       0.001       63.813
     Symmetrizing Results
     Final NS sqrt iter    5 1.00000000   0.366E-09

     Est. extremal eigenvalues     -0.93509     1.66035  converged:  T
     TRS4 it   1 1.00000000   0.863E+00       0.000       16.128   0.100E-07
     TRS4 it   2 1.00000000   0.605E+00       0.001       32.256   0.100E-07
     TRS4 it   3 1.00000000   0.409E+00       0.001       32.256   0.100E-07
     TRS4 it   4 1.00000000   0.203E+00       0.001       32.256   0.100E-07
     TRS4 it   5 1.00000000   0.629E-01       0.001       32.256   0.100E-07
     TRS4 it   6 1.00000000   0.751E-02       0.001       32.256   0.100E-07
     TRS4 it   7 1.00000000   0.141E-03       0.001       32.256   0.100E-07
     TRS4 it   8 1.00000000   0.698E-07       0.001       32.256   0.100E-07
     Final TRS4 iteration    8 1.00000000   0.698E-07
     Chemical potential (mu):       0.01319
 
 PAO| energy:  -7.7706934065205937      penalty:   1.5146814748527173E-005
 PAO|CG| trace_G_new    7.3329601746543256E-004
 PAO|CG| trace_G_prev    2.6174227215389825E-003
 PAO|CG| trace_G_mix    1.8932357488199021E-006
 PAO|CG| trace_D    3.3776852886931237E-003
 PAO|CG| trace_D_Gnew  -1.7559051649044466E-006
 PAO|CG| beta:   0.27943624684612089     
 PAO| norm of gradient:   2.7079439016815556E-002
 PAO| energy improvement:  -2.7810045477316692E-004
 PAO| step     18                   -7.770693407  0.169E-02  0.213E+00     0.055
 PAO|LS| adapt:  T F F
 PAO|LS| adapt: scan_steps:    0.0000000000000000        0.0000000000000000        0.0000000000000000     
 PAO|LS| adapt: energies:   -7.7706934065205937        0.0000000000000000        0.0000000000000000     
 PAO| ======================= Iteration:        19 =============================

     Lanczos converged:  T threshold:   0.100E-02
     Est. extremal eigenvalues:    0.276E+01   0.186E+00
     Est. condition number :    0.148E+02

 Order=           3
     NS sqrt iter    1 1.00000000   0.704E+00       0.001       60.591
     NS sqrt iter    2 1.00000000   0.328E+00       0.001       99.462
     NS sqrt iter    3 1.00000000   0.734E-01       0.001       99.806
     NS sqrt iter    4 1.00000000   0.165E-02       0.001      100.702
     NS sqrt iter    5 1.00000000   0.373E-07       0.001       62.881
     Symmetrizing Results
     Final NS sqrt iter    5 1.00000000   0.341E-09

     Est. extremal eigenvalues     -0.93509     1.66075  converged:  T
     TRS4 it   1 1.00000000   0.863E+00       0.000       16.128   0.100E-07
     TRS4 it   2 1.00000000   0.605E+00       0.001       32.256   0.100E-07
     TRS4 it   3 1.00000000   0.409E+00       0.001       32.256   0.100E-07
     TRS4 it   4 1.00000000   0.203E+00       0.001       32.256   0.100E-07
     TRS4 it   5 1.00000000   0.628E-01       0.001       32.256   0.100E-07
     TRS4 it   6 1.00000000   0.750E-02       0.001       32.256   0.100E-07
     TRS4 it   7 1.00000000   0.142E-03       0.001       32.256   0.100E-07
     TRS4 it   8 1.00000000   0.709E-07       0.001       32.256   0.100E-07
     Final TRS4 iteration    8 1.00000000   0.709E-07
     Chemical potential (mu):       0.01306
 
 PAO| energy:  -7.7708123528275292      penalty:   1.4856413682056683E-005
 PAO|LS| adapt:  T T F
 PAO|LS| adapt: scan_steps:    0.0000000000000000       0.21283603228208864        0.0000000000000000     
 PAO|LS| adapt: energies:   -7.7706934065205937       -7.7708123528275292        0.0000000000000000     
 PAO| ======================= Iteration:        20 =============================

     Lanczos converged:  T threshold:   0.100E-02
     Est. extremal eigenvalues:    0.276E+01   0.186E+00
     Est. condition number :    0.149E+02

 Order=           3
     NS sqrt iter    1 1.00000000   0.704E+00       0.001       59.713
     NS sqrt iter    2 1.00000000   0.328E+00       0.001      102.123
     NS sqrt iter    3 1.00000000   0.736E-01       0.001       99.837
     NS sqrt iter    4 1.00000000   0.166E-02       0.001      100.165
     NS sqrt iter    5 1.00000000   0.377E-07       0.001       62.637
     Symmetrizing Results
     Final NS sqrt iter    5 1.00000000   0.346E-09

     Est. extremal eigenvalues     -0.93509     1.66116  converged:  T
     TRS4 it   1 1.00000000   0.864E+00       0.000       16.128   0.100E-07
     TRS4 it   2 1.00000000   0.605E+00       0.001       32.256   0.100E-07
     TRS4 it   3 1.00000000   0.409E+00       0.001       32.256   0.100E-07
     TRS4 it   4 1.00000000   0.203E+00       0.001       32.256   0.100E-07
     TRS4 it   5 1.00000000   0.627E-01       0.001       32.256   0.100E-07
     TRS4 it   6 1.00000000   0.750E-02       0.001       32.256   0.100E-07
     TRS4 it   7 1.00000000   0.143E-03       0.001       32.256   0.100E-07
     TRS4 it   8 1.00000000   0.721E-07       0.001       32.256   0.100E-07
     Final TRS4 iteration    8 1.00000000   0.721E-07
     Chemical potential (mu):       0.01292
 
 PAO| energy:  -7.7708564356361496      penalty:   1.4578540073007158E-005
 PAO|LS| adapt:  T T F
 PAO|LS| adapt: scan_steps:    0.0000000000000000       0.42567206456417728        0.0000000000000000     
 PAO|LS| adapt: energies:   -7.7706934065205937       -7.7708564356361496        0.0000000000000000     
 PAO| ======================= Iteration:        21 =============================

     Lanczos converged:  T threshold:   0.100E-02
     Est. extremal eigenvalues:    0.276E+01   0.185E+00
     Est. condition number :    0.149E+02

 Order=           3
     NS sqrt iter    1 1.00000000   0.704E+00       0.001       58.314
     NS sqrt iter    2 1.00000000   0.328E+00       0.001      101.552
     NS sqrt iter    3 1.00000000   0.740E-01       0.001      101.676
     NS sqrt iter    4 1.00000000   0.168E-02       0.001       99.823
     NS sqrt iter    5 1.00000000   0.385E-07       0.001       62.814
     Symmetrizing Results
     Final NS sqrt iter    5 1.00000000   0.322E-09

     Est. extremal eigenvalues     -0.93508     1.66199  converged:  T
     TRS4 it   1 1.00000000   0.864E+00       0.000       16.128   0.100E-07
     TRS4 it   2 1.00000000   0.605E+00       0.001       32.256   0.100E-07
     TRS4 it   3 1.00000000   0.409E+00       0.001       32.256   0.100E-07
     TRS4 it   4 1.00000000   0.203E+00       0.001       32.256   0.100E-07
     TRS4 it   5 1.00000000   0.625E-01       0.001       32.256   0.100E-07
     TRS4 it   6 1.00000000   0.749E-02       0.001       32.256   0.100E-07
     TRS4 it   7 1.00000000   0.144E-03       0.001       32.256   0.100E-07
     TRS4 it   8 1.00000000   0.745E-07       0.001       32.256   0.100E-07
     Final TRS4 iteration    8 1.00000000   0.745E-07
     Chemical potential (mu):       0.01264
 
 PAO| energy:  -7.7707175356572575      penalty:   1.4059805127145123E-005
 PAO|LS| Need extra step
 PAO|LS| adapt:  T T T
 PAO|LS| adapt: scan_steps:    0.0000000000000000       0.42567206456417728       0.85134412912835455     
 PAO|LS| adapt: energies:   -7.7706934065205937       -7.7708564356361496       -7.7707175356572575     
 PAO|LS| adapt: suggested step_size:   0.44268118956855057     
 PAO|LS| adapt: predicted energy  -7.7708566766758711     
 PAO| ======================= Iteration:        22 =============================

     Lanczos converged:  T threshold:   0.100E-02
     Est. extremal eigenvalues:    0.276E+01   0.186E+00
     Est. condition number :    0.149E+02

 Order=           3
     NS sqrt iter    1 1.00000000   0.704E+00       0.001       58.712
     NS sqrt iter    2 1.00000000   0.328E+00       0.001       98.504
     NS sqrt iter    3 1.00000000   0.736E-01       0.001       99.726
     NS sqrt iter    4 1.00000000   0.166E-02       0.001       98.063
     NS sqrt iter    5 1.00000000   0.377E-07       0.001       62.589
     Symmetrizing Results
     Final NS sqrt iter    5 1.00000000   0.346E-09

     Est. extremal eigenvalues     -0.93509     1.66120  converged:  T
     TRS4 it   1 1.00000000   0.864E+00       0.000       16.128   0.100E-07
     TRS4 it   2 1.00000000   0.605E+00       0.001       32.256   0.100E-07
     TRS4 it   3 1.00000000   0.409E+00       0.001       32.256   0.100E-07
     TRS4 it   4 1.00000000   0.203E+00       0.001       32.256   0.100E-07
     TRS4 it   5 1.00000000   0.627E-01       0.001       32.256   0.100E-07
     TRS4 it   6 1.00000000   0.750E-02       0.001       32.256   0.100E-07
     TRS4 it   7 1.00000000   0.143E-03       0.001       32.256   0.100E-07
     TRS4 it   8 1.00000000   0.722E-07       0.001       32.256   0.100E-07
     Final TRS4 iteration    8 1.00000000   0.722E-07
     Chemical potential (mu):       0.01291
 
 PAO| energy:  -7.7708567095993786      penalty:   1.4556868675923863E-005
 PAO|CG| trace_G_new    2.2374640482210139E-004
 PAO|CG| trace_G_prev    7.3329601746543256E-004
 PAO|CG| trace_G_mix    3.1563858821110111E-006
 PAO|CG| trace_D    9.9802260347385064E-004
 PAO|CG| trace_D_Gnew  -1.9376526606366188E-006
 PAO|CG| beta:   0.30081987858387482     
 PAO| norm of gradient:   1.4958155127625244E-002
 PAO| energy improvement:  -1.6330307878487105E-004
 PAO| step     22                   -7.770856710  0.935E-03  0.443E+00     0.072
 PAO|LS| adapt:  T F F
 PAO|LS| adapt: scan_steps:    0.0000000000000000        0.0000000000000000        0.0000000000000000     
 PAO|LS| adapt: energies:   -7.7708567095993786        0.0000000000000000        0.0000000000000000     
 PAO| ======================= Iteration:        23 =============================

     Lanczos converged:  T threshold:   0.100E-02
     Est. extremal eigenvalues:    0.276E+01   0.186E+00
     Est. condition number :    0.149E+02

 Order=           3
     NS sqrt iter    1 1.00000000   0.704E+00       0.001       59.668
     NS sqrt iter    2 1.00000000   0.328E+00       0.001       97.896
     NS sqrt iter    3 1.00000000   0.737E-01       0.001      101.132
     NS sqrt iter    4 1.00000000   0.166E-02       0.001      102.043
     NS sqrt iter    5 1.00000000   0.378E-07       0.001       62.839
     Symmetrizing Results
     Final NS sqrt iter    5 1.00000000   0.349E-09

     Est. extremal eigenvalues     -0.93509     1.66133  converged:  T
     TRS4 it   1 1.00000000   0.864E+00       0.000       16.128   0.100E-07
     TRS4 it   2 1.00000000   0.605E+00       0.001       32.256   0.100E-07
     TRS4 it   3 1.00000000   0.409E+00       0.001       32.256   0.100E-07
     TRS4 it   4 1.00000000   0.203E+00       0.001       32.256   0.100E-07
     TRS4 it   5 1.00000000   0.628E-01       0.001       32.256   0.100E-07
     TRS4 it   6 1.00000000   0.753E-02       0.001       32.256   0.100E-07
     TRS4 it   7 1.00000000   0.144E-03       0.001       32.256   0.100E-07
     TRS4 it   8 1.00000000   0.742E-07       0.001       32.256   0.100E-07
     Final TRS4 iteration    8 1.00000000   0.742E-07
     Chemical potential (mu):       0.01266
 
 PAO| energy:  -7.7709060881911753      penalty:   1.3876043680523720E-005
 PAO|LS| adapt:  T T F
 PAO|LS| adapt: scan_steps:    0.0000000000000000       0.44268118956855057        0.0000000000000000     
 PAO|LS| adapt: energies:   -7.7708567095993786       -7.7709060881911753        0.0000000000000000     
 PAO| ======================= Iteration:        24 =============================

     Lanczos converged:  T threshold:   0.100E-02
     Est. extremal eigenvalues:    0.276E+01   0.186E+00
     Est. condition number :    0.149E+02

 Order=           3
     NS sqrt iter    1 1.00000000   0.704E+00       0.001       59.224
     NS sqrt iter    2 1.00000000   0.328E+00       0.001       98.437
     NS sqrt iter    3 1.00000000   0.737E-01       0.001       99.498
     NS sqrt iter    4 1.00000000   0.167E-02       0.001      102.687
     NS sqrt iter    5 1.00000000   0.380E-07       0.001       62.795
     Symmetrizing Results
     Final NS sqrt iter    5 1.00000000   0.352E-09

     Est. extremal eigenvalues     -0.93509     1.66147  converged:  T
     TRS4 it   1 1.00000000   0.864E+00       0.000       16.128   0.100E-07
     TRS4 it   2 1.00000000   0.605E+00       0.001       32.256   0.100E-07
     TRS4 it   3 1.00000000   0.409E+00       0.001       32.256   0.100E-07
     TRS4 it   4 1.00000000   0.203E+00       0.001       32.256   0.100E-07
     TRS4 it   5 1.00000000   0.629E-01       0.001       32.256   0.100E-07
     TRS4 it   6 1.00000000   0.757E-02       0.001       32.256   0.100E-07
     TRS4 it   7 1.00000000   0.146E-03       0.001       32.256   0.100E-07
     TRS4 it   8 1.00000000   0.762E-07       0.001       32.256   0.100E-07
     Final TRS4 iteration    8 1.00000000   0.762E-07
     Chemical potential (mu):       0.01241
 
 PAO| energy:  -7.7708549698261322      penalty:   1.3223335264214543E-005
 PAO|LS| adapt:  T T T
 PAO|LS| adapt: scan_steps:    0.0000000000000000       0.44268118956855057       0.88536237913710114     
 PAO|LS| adapt: energies:   -7.7708567095993786       -7.7709060881911753       -7.7708549698261322     
 PAO|LS| adapt: suggested step_size:   0.43884940742064127     
 PAO|LS| adapt: predicted energy  -7.7709060919559798     
 PAO| ======================= Iteration:        25 =============================

     Lanczos converged:  T threshold:   0.100E-02
     Est. extremal eigenvalues:    0.276E+01   0.186E+00
     Est. condition number :    0.149E+02

 Order=           3
     NS sqrt iter    1 1.00000000   0.704E+00       0.001       59.054
     NS sqrt iter    2 1.00000000   0.328E+00       0.001      102.229
     NS sqrt iter    3 1.00000000   0.737E-01       0.001       99.310
     NS sqrt iter    4 1.00000000   0.166E-02       0.001      100.203
     NS sqrt iter    5 1.00000000   0.378E-07       0.001       62.129
     Symmetrizing Results
     Final NS sqrt iter    5 1.00000000   0.349E-09

     Est. extremal eigenvalues     -0.93509     1.66133  converged:  T
     TRS4 it   1 1.00000000   0.864E+00       0.000       16.128   0.100E-07
     TRS4 it   2 1.00000000   0.605E+00       0.001       32.256   0.100E-07
     TRS4 it   3 1.00000000   0.409E+00       0.001       32.256   0.100E-07
     TRS4 it   4 1.00000000   0.203E+00       0.001       32.256   0.100E-07
     TRS4 it   5 1.00000000   0.628E-01       0.001       32.256   0.100E-07
     TRS4 it   6 1.00000000   0.753E-02       0.001       32.256   0.100E-07
     TRS4 it   7 1.00000000   0.144E-03       0.001       32.256   0.100E-07
     TRS4 it   8 1.00000000   0.742E-07       0.001       32.256   0.100E-07
     Final TRS4 iteration    8 1.00000000   0.742E-07
     Chemical potential (mu):       0.01266
 
 PAO| energy:  -7.7709060905561760      penalty:   1.3881815310016923E-005
 PAO|CG| trace_G_new    7.9602169793174110E-005
 PAO|CG| trace_G_prev    2.2374640482210139E-004
 PAO|CG| trace_G_mix    7.1811749119644471E-007
 PAO|CG| trace_D    3.1522583329794007E-004
 PAO|CG| trace_D_Gnew  -3.7160575479535577E-007
 PAO|CG| beta:   0.35256008857303256     
 PAO| norm of gradient:   8.9220048079551098E-003
 PAO| energy improvement:  -4.9380956797406839E-005
 PAO| step     25                   -7.770906091  0.558E-03  0.439E+00     0.056
 PAO|LS| adapt:  T F F
 PAO|LS| adapt: scan_steps:    0.0000000000000000        0.0000000000000000        0.0000000000000000     
 PAO|LS| adapt: energies:   -7.7709060905561760        0.0000000000000000        0.0000000000000000     
 PAO| ======================= Iteration:        26 =============================

     Lanczos converged:  T threshold:   0.100E-02
     Est. extremal eigenvalues:    0.276E+01   0.186E+00
     Est. condition number :    0.149E+02

 Order=           3
     NS sqrt iter    1 1.00000000   0.704E+00       0.001       58.880
     NS sqrt iter    2 1.00000000   0.328E+00       0.001       99.894
     NS sqrt iter    3 1.00000000   0.735E-01       0.001       99.234
     NS sqrt iter    4 1.00000000   0.166E-02       0.001       99.642
     NS sqrt iter    5 1.00000000   0.377E-07       0.001       64.228
     Symmetrizing Results
     Final NS sqrt iter    5 1.00000000   0.347E-09

     Est. extremal eigenvalues     -0.93510     1.66134  converged:  T
     TRS4 it   1 1.00000000   0.864E+00       0.000       16.128   0.100E-07
     TRS4 it   2 1.00000000   0.605E+00       0.001       32.256   0.100E-07
     TRS4 it   3 1.00000000   0.409E+00       0.001       32.256   0.100E-07
     TRS4 it   4 1.00000000   0.203E+00       0.001       32.256   0.100E-07
     TRS4 it   5 1.00000000   0.627E-01       0.001       32.256   0.100E-07
     TRS4 it   6 1.00000000   0.752E-02       0.001       32.256   0.100E-07
     TRS4 it   7 1.00000000   0.144E-03       0.001       32.256   0.100E-07
     TRS4 it   8 1.00000000   0.734E-07       0.001       32.256   0.100E-07
     Final TRS4 iteration    8 1.00000000   0.734E-07
     Chemical potential (mu):       0.01276
 
 PAO| energy:  -7.7709101796674780      penalty:   1.3163678991966838E-005
 PAO|LS| adapt:  T T F
 PAO|LS| adapt: scan_steps:    0.0000000000000000       0.43884940742064127        0.0000000000000000     
 PAO|LS| adapt: energies:   -7.7709060905561760       -7.7709101796674780        0.0000000000000000     
 PAO| ======================= Iteration:        27 =============================

     Lanczos converged:  T threshold:   0.100E-02
     Est. extremal eigenvalues:    0.276E+01   0.186E+00
     Est. condition number :    0.149E+02

 Order=           3
     NS sqrt iter    1 1.00000000   0.704E+00       0.001       58.313
     NS sqrt iter    2 1.00000000   0.328E+00       0.001       98.482
     NS sqrt iter    3 1.00000000   0.734E-01       0.001       99.774
     NS sqrt iter    4 1.00000000   0.166E-02       0.001      100.168
     NS sqrt iter    5 1.00000000   0.375E-07       0.001       63.317
     Symmetrizing Results
     Final NS sqrt iter    5 1.00000000   0.345E-09

     Est. extremal eigenvalues     -0.93510     1.66134  converged:  T
     TRS4 it   1 1.00000000   0.864E+00       0.000       16.128   0.100E-07
     TRS4 it   2 1.00000000   0.605E+00       0.001       32.256   0.100E-07
     TRS4 it   3 1.00000000   0.409E+00       0.001       32.256   0.100E-07
     TRS4 it   4 1.00000000   0.203E+00       0.001       32.256   0.100E-07
     TRS4 it   5 1.00000000   0.627E-01       0.001       32.256   0.100E-07
     TRS4 it   6 1.00000000   0.751E-02       0.001       32.256   0.100E-07
     TRS4 it   7 1.00000000   0.143E-03       0.001       32.256   0.100E-07
     TRS4 it   8 1.00000000   0.726E-07       0.001       32.256   0.100E-07
     Final TRS4 iteration    8 1.00000000   0.726E-07
     Chemical potential (mu):       0.01286
 
 PAO| energy:  -7.7708523576526760      penalty:   1.2468789474154944E-005
 PAO|LS| adapt:  T T T
 PAO|LS| adapt: scan_steps:    0.0000000000000000       0.43884940742064127       0.87769881484128254     
 PAO|LS| adapt: energies:   -7.7709060905561760       -7.7709101796674780       -7.7708523576526760     
 PAO|LS| adapt: suggested step_size:   0.24840986655082897     
 PAO|LS| adapt: predicted energy  -7.7709160090415752     
 PAO| ======================= Iteration:        28 =============================

     Lanczos converged:  T threshold:   0.100E-02
     Est. extremal eigenvalues:    0.276E+01   0.186E+00
     Est. condition number :    0.149E+02

 Order=           3
     NS sqrt iter    1 1.00000000   0.704E+00       0.001       59.137
     NS sqrt iter    2 1.00000000   0.328E+00       0.001       98.645
     NS sqrt iter    3 1.00000000   0.736E-01       0.001      101.173
     NS sqrt iter    4 1.00000000   0.166E-02       0.001      101.928
     NS sqrt iter    5 1.00000000   0.377E-07       0.001       62.217
     Symmetrizing Results
     Final NS sqrt iter    5 1.00000000   0.348E-09

     Est. extremal eigenvalues     -0.93509     1.66133  converged:  T
     TRS4 it   1 1.00000000   0.864E+00       0.000       16.128   0.100E-07
     TRS4 it   2 1.00000000   0.605E+00       0.001       32.256   0.100E-07
     TRS4 it   3 1.00000000   0.409E+00       0.001       32.256   0.100E-07
     TRS4 it   4 1.00000000   0.203E+00       0.001       32.256   0.100E-07
     TRS4 it   5 1.00000000   0.628E-01       0.001       32.256   0.100E-07
     TRS4 it   6 1.00000000   0.753E-02       0.001       32.256   0.100E-07
     TRS4 it   7 1.00000000   0.144E-03       0.001       32.256   0.100E-07
     TRS4 it   8 1.00000000   0.737E-07       0.001       32.256   0.100E-07
     Final TRS4 iteration    8 1.00000000   0.737E-07
     Chemical potential (mu):       0.01272
 
 PAO| energy:  -7.7709159997765020      penalty:   1.3472442214350844E-005
 PAO|CG| trace_G_new    3.0742386780687798E-005
 PAO|CG| trace_G_prev    7.9602169793174110E-005
 PAO|CG| trace_G_mix    4.7116002226275710E-008
 PAO|CG| trace_D    1.1904633133242367E-004
 PAO|CG| trace_D_Gnew  -2.3736745793414145E-008
 PAO|CG| beta:   0.38560846844018615     
 PAO| norm of gradient:   5.5445817498426149E-003
 PAO| energy improvement:  -9.9092203260653378E-006
 PAO| step     28                   -7.770916000  0.347E-03  0.248E+00     0.055
 PAO|LS| adapt:  T F F
 PAO|LS| adapt: scan_steps:    0.0000000000000000        0.0000000000000000        0.0000000000000000     
 PAO|LS| adapt: energies:   -7.7709159997765020        0.0000000000000000        0.0000000000000000     
 PAO| ======================= Iteration:        29 =============================

     Lanczos converged:  T threshold:   0.100E-02
     Est. extremal eigenvalues:    0.276E+01   0.186E+00
     Est. condition number :    0.149E+02

 Order=           3
     NS sqrt iter    1 1.00000000   0.704E+00       0.001       59.310
     NS sqrt iter    2 1.00000000   0.328E+00       0.001       98.827
     NS sqrt iter    3 1.00000000   0.735E-01       0.001       99.134
     NS sqrt iter    4 1.00000000   0.166E-02       0.001      100.188
     NS sqrt iter    5 1.00000000   0.377E-07       0.001       62.884
     Symmetrizing Results
     Final NS sqrt iter    5 1.00000000   0.347E-09

     Est. extremal eigenvalues     -0.93510     1.66138  converged:  T
     TRS4 it   1 1.00000000   0.864E+00       0.000       16.128   0.100E-07
     TRS4 it   2 1.00000000   0.605E+00       0.001       32.256   0.100E-07
     TRS4 it   3 1.00000000   0.409E+00       0.001       32.256   0.100E-07
     TRS4 it   4 1.00000000   0.203E+00       0.001       32.256   0.100E-07
     TRS4 it   5 1.00000000   0.627E-01       0.001       32.256   0.100E-07
     TRS4 it   6 1.00000000   0.751E-02       0.001       32.256   0.100E-07
     TRS4 it   7 1.00000000   0.143E-03       0.001       32.256   0.100E-07
     TRS4 it   8 1.00000000   0.728E-07       0.001       32.256   0.100E-07
     Final TRS4 iteration    8 1.00000000   0.728E-07
     Chemical potential (mu):       0.01283
 
 PAO| energy:  -7.7709227448319762      penalty:   1.3047020945686043E-005
 PAO|LS| adapt:  T T F
 PAO|LS| adapt: scan_steps:    0.0000000000000000       0.24840986655082897        0.0000000000000000     
 PAO|LS| adapt: energies:   -7.7709159997765020       -7.7709227448319762        0.0000000000000000     
 PAO| ======================= Iteration:        30 =============================

     Lanczos converged:  T threshold:   0.100E-02
     Est. extremal eigenvalues:    0.276E+01   0.185E+00
     Est. condition number :    0.149E+02

 Order=           3
     NS sqrt iter    1 1.00000000   0.704E+00       0.001       59.613
     NS sqrt iter    2 1.00000000   0.328E+00       0.001      100.698
     NS sqrt iter    3 1.00000000   0.735E-01       0.001       99.083
     NS sqrt iter    4 1.00000000   0.166E-02       0.001      101.122
     NS sqrt iter    5 1.00000000   0.377E-07       0.001       62.986
     Symmetrizing Results
     Final NS sqrt iter    5 1.00000000   0.346E-09

     Est. extremal eigenvalues     -0.93510     1.66143  converged:  T
     TRS4 it   1 1.00000000   0.864E+00       0.000       16.128   0.100E-07
     TRS4 it   2 1.00000000   0.605E+00       0.001       32.256   0.100E-07
     TRS4 it   3 1.00000000   0.409E+00       0.001       32.256   0.100E-07
     TRS4 it   4 1.00000000   0.203E+00       0.001       32.256   0.100E-07
     TRS4 it   5 1.00000000   0.626E-01       0.001       32.256   0.100E-07
     TRS4 it   6 1.00000000   0.749E-02       0.001       32.256   0.100E-07
     TRS4 it   7 1.00000000   0.142E-03       0.001       32.256   0.100E-07
     TRS4 it   8 1.00000000   0.719E-07       0.001       32.256   0.100E-07
     Final TRS4 iteration    8 1.00000000   0.719E-07
     Chemical potential (mu):       0.01295
 
 PAO| energy:  -7.7709276997966725      penalty:   1.2629203127829438E-005
 PAO|LS| adapt:  T T F
 PAO|LS| adapt: scan_steps:    0.0000000000000000       0.49681973310165795        0.0000000000000000     
 PAO|LS| adapt: energies:   -7.7709159997765020       -7.7709276997966725        0.0000000000000000     
 PAO| ======================= Iteration:        31 =============================

     Lanczos converged:  T threshold:   0.100E-02
     Est. extremal eigenvalues:    0.276E+01   0.185E+00
     Est. condition number :    0.149E+02

 Order=           3
     NS sqrt iter    1 1.00000000   0.703E+00       0.001       59.453
     NS sqrt iter    2 1.00000000   0.327E+00       0.001       98.787
     NS sqrt iter    3 1.00000000   0.733E-01       0.001       99.731
     NS sqrt iter    4 1.00000000   0.165E-02       0.001       99.462
     NS sqrt iter    5 1.00000000   0.377E-07       0.001       62.758
     Symmetrizing Results
     Final NS sqrt iter    5 1.00000000   0.345E-09

     Est. extremal eigenvalues     -0.93510     1.66152  converged:  T
     TRS4 it   1 1.00000000   0.864E+00       0.000       16.128   0.100E-07
     TRS4 it   2 1.00000000   0.605E+00       0.001       32.256   0.100E-07
     TRS4 it   3 1.00000000   0.409E+00       0.001       32.256   0.100E-07
     TRS4 it   4 1.00000000   0.203E+00       0.001       32.256   0.100E-07
     TRS4 it   5 1.00000000   0.625E-01       0.001       32.256   0.100E-07
     TRS4 it   6 1.00000000   0.745E-02       0.001       32.256   0.100E-07
     TRS4 it   7 1.00000000   0.141E-03       0.001       32.256   0.100E-07
     TRS4 it   8 1.00000000   0.702E-07       0.001       32.256   0.100E-07
     Final TRS4 iteration    8 1.00000000   0.702E-07
     Chemical potential (mu):       0.01318
 
 PAO| energy:  -7.7709322403710379      penalty:   1.1816227183708007E-005
 PAO|LS| Need extra step
 PAO|LS| adapt:  T T F
 PAO|LS| adapt: scan_steps:    0.0000000000000000       0.99363946620331589        0.0000000000000000     
 PAO|LS| adapt: energies:   -7.7709159997765020       -7.7709322403710379        0.0000000000000000     
 PAO| ======================= Iteration:        32 =============================

     Lanczos converged:  T threshold:   0.100E-02
     Est. extremal eigenvalues:    0.275E+01   0.185E+00
     Est. condition number :    0.149E+02

 Order=           3
     NS sqrt iter    1 1.00000000   0.702E+00       0.001       60.291
     NS sqrt iter    2 1.00000000   0.327E+00       0.001      100.104
     NS sqrt iter    3 1.00000000   0.731E-01       0.001       98.259
     NS sqrt iter    4 1.00000000   0.165E-02       0.001       98.842
     NS sqrt iter    5 1.00000000   0.377E-07       0.001       61.350
     Symmetrizing Results
     Final NS sqrt iter    5 1.00000000   0.334E-09

     Est. extremal eigenvalues     -0.93511     1.66169  converged:  T
     TRS4 it   1 1.00000000   0.864E+00       0.000       16.128   0.100E-07
     TRS4 it   2 1.00000000   0.605E+00       0.001       32.256   0.100E-07
     TRS4 it   3 1.00000000   0.409E+00       0.001       32.256   0.100E-07
     TRS4 it   4 1.00000000   0.202E+00       0.001       32.256   0.100E-07
     TRS4 it   5 1.00000000   0.622E-01       0.001       32.256   0.100E-07
     TRS4 it   6 1.00000000   0.738E-02       0.001       32.256   0.100E-07
     TRS4 it   7 1.00000000   0.138E-03       0.001       32.256   0.100E-07
     TRS4 it   8 1.00000000   0.669E-07       0.001       32.256   0.100E-07
     Final TRS4 iteration    8 1.00000000   0.669E-07
     Chemical potential (mu):       0.01363
 
 PAO| energy:  -7.7709198448068495      penalty:   1.0279868275516237E-005
 PAO|LS| Need extra step
 PAO|LS| adapt:  T T T
[...]
     NS sqrt iter    4 1.00000000   0.788E-03       0.001      110.592
     NS sqrt iter    5 1.00000000   0.643E-08       0.001       38.272
     Symmetrizing Results
     Final NS sqrt iter    5 1.00000000   0.379E-09

     Est. extremal eigenvalues     -0.93482     1.63205  converged:  T
     TRS4 it   1 1.00000000   0.880E+00       0.000       16.128   0.100E-07
     TRS4 it   2 1.00000000   0.632E+00       0.000       32.256   0.100E-07
     TRS4 it   3 1.00000000   0.454E+00       0.000       32.256   0.100E-07
     TRS4 it   4 1.00000000   0.276E+00       0.000       32.256   0.100E-07
     TRS4 it   5 1.00000000   0.136E+00       0.000       32.256   0.100E-07
     TRS4 it   6 1.00000000   0.415E-01       0.000       32.256   0.100E-07
     TRS4 it   7 1.00000000   0.539E-02       0.000       32.256   0.100E-07
     TRS4 it   8 1.00000000   0.122E-03       0.000       32.256   0.100E-07
     TRS4 it   9 1.00000000   0.673E-07       0.000       32.256   0.100E-07
     Final TRS4 iteration    9 1.00000000   0.673E-07
     Chemical potential (mu):      -0.07097
 
 PAO| energy:  -7.7705375050321770      penalty:   3.3741865400848316E-008
 PAO|CG| warming up with steepest descent
 PAO|CG| beta:    0.0000000000000000     
 PAO| norm of gradient:   1.3087005560228672E-004
 PAO| energy improvement:  -5.3839075420114568E-009
 PAO| step    414                   -7.770537505  0.818E-05  0.247E+00     0.047
 PAO| converged after          414  steps :-)
 PAO| Recalculating energy after mixing.

     Lanczos converged:  T threshold:   0.100E-02
     Est. extremal eigenvalues:    0.252E+01   0.191E+00
     Est. condition number :    0.132E+02

 Order=           3
     NS sqrt iter    1 1.00000000   0.637E+00       0.001       64.512
     NS sqrt iter    2 1.00000000   0.277E+00       0.001      110.592
     NS sqrt iter    3 1.00000000   0.494E-01       0.001      110.592
     NS sqrt iter    4 1.00000000   0.788E-03       0.001      110.592
     NS sqrt iter    5 1.00000000   0.643E-08       0.001       38.272
     Symmetrizing Results
     Final NS sqrt iter    5 1.00000000   0.379E-09

     Est. extremal eigenvalues     -0.93482     1.63205  converged:  T
     TRS4 it   1 1.00000000   0.880E+00       0.000       16.128   0.100E-07
     TRS4 it   2 1.00000000   0.632E+00       0.000       32.256   0.100E-07
     TRS4 it   3 1.00000000   0.454E+00       0.000       32.256   0.100E-07
     TRS4 it   4 1.00000000   0.276E+00       0.000       32.256   0.100E-07
     TRS4 it   5 1.00000000   0.136E+00       0.000       32.256   0.100E-07
     TRS4 it   6 1.00000000   0.415E-01       0.000       32.256   0.100E-07
     TRS4 it   7 1.00000000   0.539E-02       0.000       32.256   0.100E-07
     TRS4 it   8 1.00000000   0.122E-03       0.000       32.256   0.100E-07
     TRS4 it   9 1.00000000   0.673E-07       0.000       32.256   0.100E-07
     Final TRS4 iteration    9 1.00000000   0.673E-07
     Chemical potential (mu):      -0.07097
 
 PAO| energy:  -7.7705375036861817      penalty:   3.4078920738566068E-008
 PAO| Writing restart file.
     Est. extremal eigenvalues     -0.93482     1.63205  converged:  T
     TRS4 it   1 1.00000000   0.880E+00       0.000       16.128   0.100E-07
     TRS4 it   2 1.00000000   0.632E+00       0.000       32.256   0.100E-07
     TRS4 it   3 1.00000000   0.454E+00       0.000       32.256   0.100E-07
     TRS4 it   4 1.00000000   0.276E+00       0.000       32.256   0.100E-07
     TRS4 it   5 1.00000000   0.136E+00       0.000       32.256   0.100E-07
     TRS4 it   6 1.00000000   0.415E-01       0.000       32.256   0.100E-07
     TRS4 it   7 1.00000000   0.539E-02       0.000       32.256   0.100E-07
     TRS4 it   8 1.00000000   0.122E-03       0.001       32.256   0.100E-07
     TRS4 it   9 1.00000000   0.673E-07       0.000       32.256   0.100E-07
     Final TRS4 iteration    9 1.00000000   0.673E-07
     Chemical potential (mu):      -0.07097

 SCF     1       -34.450244258       -34.450244258    1.837437

*********************************************************
 Using MIXING_FRACTION=0.450 to mix KS matrix:  iscf=  2
 KS_nw=0.450*KS + 0.550*KS_old
*********************************************************
     Est. extremal eigenvalues     -0.93482     1.63205  converged:  T
     TRS4 it   1 1.00000000   0.880E+00       0.000       16.128   0.100E-07
     TRS4 it   2 1.00000000   0.632E+00       0.000       32.256   0.100E-07
     TRS4 it   3 1.00000000   0.454E+00       0.000       32.256   0.100E-07
     TRS4 it   4 1.00000000   0.276E+00       0.000       32.256   0.100E-07
     TRS4 it   5 1.00000000   0.136E+00       0.000       32.256   0.100E-07
     TRS4 it   6 1.00000000   0.415E-01       0.000       32.256   0.100E-07
     TRS4 it   7 1.00000000   0.539E-02       0.000       32.256   0.100E-07
     TRS4 it   8 1.00000000   0.122E-03       0.000       32.256   0.100E-07
     TRS4 it   9 1.00000000   0.673E-07       0.000       32.256   0.100E-07
     Final TRS4 iteration    9 1.00000000   0.673E-07
     Chemical potential (mu):      -0.07097

 SCF     2       -34.450244258        -0.000000000    2.030343


 SCF run converged in     2 steps.

 PAO| Storing density matrix for ASPC guess in slot:           1

 ENERGY| Total FORCE_EVAL ( QS ) energy [a.u.]:              -34.450244258378049

 -------------------------------------------------------------------------------
 -                                                                             -
 -                                DBCSR STATISTICS                             -
 -                                                                             -
 -------------------------------------------------------------------------------
 COUNTER                                    TOTAL       BLAS       SMM       ACC
 flops     5 x     5 x     4                20000       0.0%    100.0%      0.0%
 flops    13 x     5 x     4                20800       0.0%    100.0%      0.0%
 flops     5 x    13 x     4                20800       0.0%    100.0%      0.0%
 flops    13 x    13 x     4                40560       0.0%    100.0%      0.0%
 flops     4 x     4 x     5              3252480       0.0%    100.0%      0.0%
 flops     5 x     4 x     5              3968000       0.0%    100.0%      0.0%
 flops     4 x     4 x    13              4228224       0.0%    100.0%      0.0%
 flops    13 x     4 x     5              5158400       0.0%    100.0%      0.0%
 flops     5 x     4 x    13              5158400       0.0%    100.0%      0.0%
 flops     5 x     4 x     4              6682080       0.0%    100.0%      0.0%
 flops    13 x     4 x    13              6705920       0.0%    100.0%      0.0%
 flops    13 x     4 x     4              9049248       0.0%    100.0%      0.0%
 flops     4 x     4 x     4            412898176       0.0%    100.0%      0.0%
 flops inhomo. stacks                           0       0.0%      0.0%      0.0%
 flops total                       457.203088E+06       0.0%    100.0%      0.0%
 flops max/rank                    457.203088E+06       0.0%    100.0%      0.0%
 matmuls inhomo. stacks                         0       0.0%      0.0%      0.0%
 matmuls total                            3364625       0.0%    100.0%      0.0%
 number of processed stacks                 26886       0.0%    100.0%      0.0%
 average stack size                                     0.0     125.1       0.0
 marketing flops                   741.653376E+06
 -------------------------------------------------------------------------------
 # multiplications                          22337
 max memory usage/rank             507.011072E+06
 # max total images/rank                        1
 # max 3D layers                                1
 # MPI messages exchanged                       0
 -------------------------------------------------------------------------------

 -------------------------------------------------------------------------------
 -                                                                             -
 -                                DBM STATISTICS                               -
 -                                                                             -
 -------------------------------------------------------------------------------
    M  x    N  x    K                                          COUNT     PERCENT
 -------------------------------------------------------------------------------

 -------------------------------------------------------------------------------
 -                                                                             -
 -                                GRID STATISTICS                              -
 -                                                                             -
 -------------------------------------------------------------------------------
 LP    KERNEL             BACKEND                              COUNT     PERCENT
 2     collocate ortho    REF                                  38270      30.80%
 2     integrate ortho    REF                                  38270      30.80%
 3     collocate ortho    REF                                  19620      15.79%
 3     integrate ortho    REF                                  19620      15.79%
 4     collocate ortho    REF                                   4230       3.40%
 4     integrate ortho    REF                                   4230       3.40%
 0     collocate general  REF                                      6       0.00%
 -------------------------------------------------------------------------------

 MEMORY| Estimated peak process memory [MiB]                                 484

 -------------------------------------------------------------------------------
 -                                                                             -
 -                           R E F E R E N C E S                               -
 -                                                                             -
 -------------------------------------------------------------------------------
 
 CP2K version 2023.1 (Development Version), the CP2K developers group (2023).
 CP2K is freely available from https://www.cp2k.org/ .

 Kuehne,Thomas D.; Iannuzzi,Marcella; Del Ben,Mauro;
 Rybkin,Vladimir V.; Seewald,Patrick; Stein,Frederick; Laino,Teodoro;
 Khaliullin,Rustam Z.; Schuett,Ole; Schiffmann,Florian; Golze,Dorothea;
 Wilhelm,Jan; Chulkov,Sergey; Bani-Hashemian,Mohammad Hossein;
 Weber,Valery; Borstnik,Urban; Taillefumier,Mathieu;
 Jakobovits,Alice Shoshana; Lazzaro,Alfio; Pabst,Hans; Mueller,Tiziano;
 Schade,Robert; Guidon,Manuel; Andermatt,Samuel; Holmberg,Nico;
 Schenter,Gregory K.; Hehn,Anna; Bussy,Augustin; Belleflamme,Fabian;
 Tabacchi,Gloria; Gloess,Andreas; Lass,Michael; Bethune,Iain;
 Mundy,Christopher J.; Plessl,Christian; Watkins,Matt;
 VandeVondele,Joost; Krack,Matthias; Hutter,Juerg. 
 The Journal of Chemical Physics, 152 (19), (2020). 
 CP2K: An electronic structure and molecular dynamics software package -
 Quickstep: Efficient and accurate electronic structure calculations.
 https://doi.org/10.1063/5.0007045

 Schuett, O; VandeVondele, J. 
 Journal of Chemical Theory and Computation, 14, (2018). 
 Machine Learning Adaptive Basis Sets for Efficient Large Scale
 Density Functional Theory Simulation.
 https://doi.org/10.1021/acs.jctc.8b00378

 Schuett, Ole; Messmer, Peter; Hutter, Juerg; VandeVondele, Joost. 
 Electronic Structure Calculations on Graphics Processing Units, John
 Wiley & Sons, Ltd, 173-190 (2016). 
 GPU-Accelerated Sparse Matrix-Matrix Multiplication for
 Linear Scaling Density Functional Theory.
 https://doi.org/10.1002/9781118670712.ch8

 Heinecke, A; Henry, G; Hutchinson, M; Pabst, H. 
 Proceedings of Intl. Supercomputing Conference, 981-991 (2016). 
 LIBXSMM: Accelerating Small Matrix Multiplications
 by Runtime Code Generation.
 https://doi.org/10.1109/SC.2016.83

 Borstnik, U; VandeVondele, J; Weber, V; Hutter, J. 
 PARALLEL COMPUTING, 40 (5-6), 47-58 (2014). 
 Sparse matrix multiplication: The distributed block-compressed sparse
 row library.
 https://doi.org/10.1016/j.parco.2014.03.012

 Hutter, J; Iannuzzi, M; Schiffmann, F; VandeVondele, J. 
 WIREs Comput Mol Sci., 4 (1), 15-25 (2014). 
 CP2K: atomistic simulations of condensed matter systems.
 https://doi.org/10.1002/wcms.1159

 VandeVondele, J; Borstnik, U; Hutter, J. 
 JOURNAL OF CHEMICAL THEORY AND COMPUTATION, 8 (10), 3565-3573 (2012). 
 Linear Scaling Self-Consistent Field Calculations with Millions of Atoms
 in the Condensed Phase.
 https://doi.org/10.1021/ct200897x

 VandeVondele, J; Hutter, J. 
 JOURNAL OF CHEMICAL PHYSICS, 127 (11), 114105 (2007). 
 Gaussian basis sets for accurate calculations on molecular systems in
 gas and condensed phases.
 https://doi.org/10.1063/1.2770708

 Krack, M. 
 THEORETICAL CHEMISTRY ACCOUNTS, 114 (1-3), 145-152 (2005). 
 Pseudopotentials for H to Kr optimized for gradient-corrected
 exchange-correlation functionals.
 https://doi.org/10.1007/s00214-005-0655-y

 VandeVondele, J; Krack, M; Mohamed, F; Parrinello, M; Chassaing, T;
 Hutter, J. COMPUTER PHYSICS COMMUNICATIONS, 167 (2), 103-128 (2005). 
 QUICKSTEP: Fast and accurate density functional calculations using a
 mixed Gaussian and plane waves approach.
 https://doi.org/10.1016/j.cpc.2004.12.014

 Frigo, M; Johnson, SG. 
 PROCEEDINGS OF THE IEEE, 93 (2), 216-231 (2005). 
 The design and implementation of FFTW3.
 https://doi.org/10.1109/JPROC.2004.840301

 Niklasson, AMN; Tymczak, CJ; Challacombe, M. 
 JOURNAL OF CHEMICAL PHYSICS, 118 (19), 8611-8620 (2003). 
 Trace resetting density matrix purification in O(N)
 self-consistent-field theory.
 https://doi.org/10.1063/1.1559913

 Hartwigsen, C; Goedecker, S; Hutter, J. 
 PHYSICAL REVIEW B, 58 (7), 3641-3662 (1998). 
 Relativistic separable dual-space Gaussian pseudopotentials from H to Rn.
 https://doi.org/10.1103/PhysRevB.58.3641

 Lippert, G; Hutter, J; Parrinello, M. 
 MOLECULAR PHYSICS, 92 (3), 477-487 (1997). 
 A hybrid Gaussian and plane wave density functional scheme.
 https://doi.org/10.1080/002689797170220

 Perdew, JP; Burke, K; Ernzerhof, M. 
 PHYSICAL REVIEW LETTERS, 77 (18), 3865-3868 (1996). 
 Generalized gradient approximation made simple.
 https://doi.org/10.1103/PhysRevLett.77.3865

 Goedecker, S; Teter, M; Hutter, J. 
 PHYSICAL REVIEW B, 54 (3), 1703-1710 (1996). 
 Separable dual-space Gaussian pseudopotentials.
 https://doi.org/10.1103/PhysRevB.54.1703


 -------------------------------------------------------------------------------
 -                                                                             -
 -                                T I M I N G                                  -
 -                                                                             -
 -------------------------------------------------------------------------------
 SUBROUTINE                       CALLS  ASD         SELF TIME        TOTAL TIME
                                MAXIMUM       AVERAGE  MAXIMUM  AVERAGE  MAXIMUM
 CP2K                                 1  1.0    0.014    0.014   34.576   34.576
 qs_energies                          1  2.0    0.000    0.000   33.952   33.952
 ls_scf                               1  3.0    0.000    0.000   33.713   33.713
 ls_scf_main                          4  4.0    0.001    0.001   22.069   22.069
 ls_scf_dm_to_ks                      9  5.0    0.000    0.000   21.998   21.998
 qs_ks_update_qs_env                 10  6.0    0.000    0.000   20.050   20.050
 rebuild_ks_matrix                   10  7.0    0.000    0.000   20.049   20.049
 qs_ks_build_kohn_sham_matrix        10  8.0    0.003    0.003   20.049   20.049
 qs_vxc_create                       10  9.0    0.000    0.000   12.717   12.717
 xc_vxc_pw_create                    10 10.0    0.265    0.265   12.716   12.716
 pw_transfer                        191 11.1    0.027    0.027   11.386   11.386
 fft_wrap_pw1pw2                    171 12.3    0.004    0.004   11.037   11.037
 fft_wrap_pw1pw2_200                111 13.7    1.183    1.183   10.685   10.685
 pao_update                           4  4.0    0.008    0.008    7.860    7.860
 xc_pw_derive                        60 12.0    0.001    0.001    7.766    7.766
 pao_calc_energy                    417  5.0    0.003    0.003    7.106    7.106
 xc_rho_set_and_dset_create          10 11.0    0.267    0.267    6.706    6.706
 qs_rho_update_rho_low               10  6.0    0.000    0.000    5.685    5.685
 calculate_rho_elec                  10  7.0    0.046    0.046    5.685    5.685
 dbcsr_multiply_generic           22337  8.4    0.351    0.351    5.634    5.634
 xc_pw_divergence                    10 11.0    0.001    0.001    5.528    5.528
 sum_up_and_integrate                10  9.0    0.209    0.209    5.090    5.090
 integrate_v_rspace                  10 10.0    0.001    0.001    4.880    4.880
 fft3d_s                            172 14.2    4.658    4.658    4.696    4.696
 pao_guess_initial_P                  1  4.0    0.000    0.000    3.742    3.742
 pao_read_preopt_dm                   1  5.0    0.000    0.000    3.742    3.742
 pao_dm_trs4                        417  6.0    0.002    0.002    3.636    3.636
 grid_integrate_task_list            10 11.0    3.542    3.542    3.542    3.542
 density_matrix_trs4                426  7.0    0.113    0.113    3.484    3.484
 ls_scf_init_matrix_S               421  7.0    0.003    0.003    3.446    3.446
 pao_rebuild_S                      417  6.0    0.001    0.001    3.420    3.420
 grid_collocate_task_list            10  8.0    3.239    3.239    3.239    3.239
 matrix_sqrt_Newton_Schulz          421  8.0    0.073    0.073    3.116    3.116
 pw_gather_s                         81 13.8    2.641    2.641    2.641    2.641
 pw_scatter_s                        90 14.7    2.470    2.470    2.470    2.470
 xc_functional_eval                  10 12.0    0.000    0.000    2.426    2.426
 pbe_lda_eval                        10 13.0    2.425    2.425    2.425    2.425
 density_rs2pw                       10  8.0    0.001    0.001    2.400    2.400
 make_m2s                         44674  9.4    0.136    0.136    2.124    2.124
 multiply_cannon                  22337  9.4    0.876    0.876    2.113    2.113
 make_images                      44674 10.4    0.526    0.526    1.882    1.882
 pw_derive                           60 13.0    1.663    1.663    1.663    1.663
 potential_pw2rs                     10 11.0    0.002    0.002    1.338    1.338
 pw_copy                            120 11.8    1.155    1.155    1.155    1.155
 arnoldi_extremal                   847  8.5    0.003    0.003    1.135    1.135
 arnoldi_normal_ev                  847  9.5    0.009    0.009    1.133    1.133
 pw_axpy                             90 10.3    0.895    0.895    0.895    0.895
 build_subspace                     847 10.5    0.046    0.046    0.890    0.890
 pw_poisson_solve                    10  9.0    0.163    0.163    0.842    0.842
 dbcsr_matrix_vector_mult         20222 11.5    0.094    0.094    0.825    0.825
 pao_calc_AB                        549  5.8    0.001    0.001    0.749    0.749
 pao_calc_AB_equi                   549  6.8    0.022    0.022    0.748    0.748
 -------------------------------------------------------------------------------

 The number of warnings for this run is : 0
 
 -------------------------------------------------------------------------------
  **** **** ******  **  PROGRAM ENDED AT                 2023-02-01 10:44:29.788
 ***** ** ***  *** **   PROGRAM RAN ON                                    moritz
 **    ****   ******    PROGRAM RAN BY                                       ole
 ***** **    ** ** **   PROGRAM PROCESS ID                                148517
  **** **  *******  **  PROGRAM STOPPED IN /home/ole/git/pao_ml_equivar/2H2O_rot
                                           ations/rand_14
