6
Properties=species:S:1:pos:R:3 i=0 time=0.0 E=-34.4504806384 pbc="F F F"
O      -5.36437215      -3.25324019      -1.86412204 
H      -5.66103715      -2.50298384      -1.33838989 
H      -4.46674535      -3.03762776      -2.13597936 
O      -5.30628228      -5.70631506      -0.13839110 
H      -5.86370390      -6.39683001      -0.50797904 
H      -5.38255640      -4.95822794      -0.75074470 
