 DBCSR| CPU Multiplication driver                                           XSMM
 DBCSR| Multrec recursion limit                                              512
 DBCSR| Multiplication stack size                                           1000
 DBCSR| Maximum elements for images                                    UNLIMITED
 DBCSR| Multiplicative factor virtual images                                   1
 DBCSR| Use multiplication densification                                       T
 DBCSR| Multiplication size stacks                                             3


  **** **** ******  **  PROGRAM STARTED AT               2019-02-14 11:20:30.835
 ***** ** ***  *** **   PROGRAM STARTED ON                                  otto
 **    ****   ******    PROGRAM STARTED BY                                   ole
 ***** **    ** ** **   PROGRAM PROCESS ID                                  8039
  **** **  *******  **  PROGRAM STARTED IN /home/ole/git/pao_ml_equivar/2H2O_MD/
                                           frame_1950

 CP2K| version string:                    CP2K version 7.0 (Development Version)
 CP2K| source code revision number:                                git:8bf305913
 CP2K| cp2kflags: libint fftw3 libxc xsmm libderiv_max_am1=5 libint_max_am=6    
 CP2K| is freely available from                            https://www.cp2k.org/
 CP2K| Program compiled at                           So Jan 13 00:02:37 CET 2019
 CP2K| Program compiled on                                                  otto
 CP2K| Program compiled for                                                local
 CP2K| Data directory path                               /home/ole/git/cp2k/data
 CP2K| Input file name                                            2H2O_pao44.inp

 GLOBAL| Force Environment number                                              1
 GLOBAL| Basis set file name                                        BASIS_MOLOPT
 GLOBAL| Potential file name                                      GTH_POTENTIALS
 GLOBAL| MM Potential file name                                     MM_POTENTIAL
 GLOBAL| Coordinate file name                                         coords.xyz
 GLOBAL| Method name                                                        CP2K
 GLOBAL| Project name                                                 2H2O_pao44
 GLOBAL| Preferred FFT library                                             FFTW3
 GLOBAL| Preferred diagonalization lib.                                       SL
 GLOBAL| Run type                                                         ENERGY
 GLOBAL| All-to-all communication in single precision                          F
 GLOBAL| FFTs using library dependent lengths                                  F
 GLOBAL| Global print level                                                  LOW
 GLOBAL| MPI I/O enabled                                                       T
 GLOBAL| Total number of message passing processes                             1
 GLOBAL| Number of threads for this process                                    1
 GLOBAL| This output is from process                                           0
 GLOBAL| CPU model name :  Intel(R) Core(TM) i5-3320M CPU @ 2.60GHz

 MEMORY| system memory details [Kb]
 MEMORY|                        rank 0           min           max       average
 MEMORY| MemTotal              7860772       7860772       7860772       7860772
 MEMORY| MemFree                459448        459448        459448        459448
 MEMORY| Buffers               1050088       1050088       1050088       1050088
 MEMORY| Cached                2176228       2176228       2176228       2176228
 MEMORY| Slab                   282040        282040        282040        282040
 MEMORY| SReclaimable           155892        155892        155892        155892
 MEMORY| MemLikelyFree         3841656       3841656       3841656       3841656


 GENERATE|  Preliminary Number of Bonds generated:                             0
 GENERATE|  Achieved consistency in connectivity generation.

 *******************************************************************************
 *******************************************************************************
 **                                                                           **
 **     #####                         ##              ##                      **
 **    ##   ##            ##          ##              ##                      **
 **   ##     ##                       ##            ######                    **
 **   ##     ##  ##   ##  ##   #####  ##  ##   ####   ##    #####    #####    **
 **   ##     ##  ##   ##  ##  ##      ## ##   ##      ##   ##   ##  ##   ##   **
 **   ##  ## ##  ##   ##  ##  ##      ####     ###    ##   ######   ######    **
 **    ##  ###   ##   ##  ##  ##      ## ##      ##   ##   ##       ##        **
 **     #######   #####   ##   #####  ##  ##  ####    ##    #####   ##        **
 **           ##                                                    ##        **
 **                                                                           **
 **                                                ... make the atoms dance   **
 **                                                                           **
 **            Copyright (C) by CP2K developers group (2000 - 2018)           **
 **                                                                           **
 *******************************************************************************


 TOTAL NUMBERS AND MAXIMUM NUMBERS

  Total number of            - Atomic kinds:                                   2
                             - Atoms:                                          6
                             - Shell sets:                                     6
                             - Shells:                                        22
                             - Primitive Cartesian functions:                 42
                             - Cartesian basis functions:                     48
                             - Spherical basis functions:                     46

  Maximum angular momentum of- Orbital basis functions:                        2
                             - Local part of the GTH pseudopotential:          2
                             - Non-local part of the GTH pseudopotential:      0

 ------------------------------ Linear scaling SCF -----------------------------
 eps_scf:                                       0.100E-07
 eps_filter:                                    0.100E-07
 mixing_fraction:                               0.450E+00
 max_scf:                                              25
 fixed chemical potential (mu)                          F
 has unit metric:                                       F
 Computing inv(S):                                      T
 Computing sqrt(S):                                     T
 Computing s preconditioner                             F
 sign sqrt order:                                       3
 Extrapolation order:                                   1
 Use single precision matrices                          F
 S preconditioner type                               NONE
 Polarized Atomic Orbitals (PAO)                        T
 Purification method                      Trace resetting 4th order
 Cluster type                                      ATOMIC
 Computing Chebyshev                                FALSE
 Using PAO                                              T
 -------------------------------------------------------------------------------

 
 PAO|                                  EPS_PAO                           0.5E-06
 PAO|                                  MIXING                            0.5E+00
 PAO|                                  MAX_PAO                              1000
 PAO|                                  MAX_CYCLES                           1000
 PAO|                                  PARAMETERIZATION                   DIRECT
 PAO|                                  PRECONDITION                            F
 PAO|                                  REGULARIZATION                    0.0E+00
 PAO|                                  EPS_PGF                           0.1E-09
 PAO|                                  PENALTY_DISTANCE                  0.1E+00
 PAO|                                  PENALTY_STRENGTH                  0.5E-02
 PAO|                                  LINPOT_PRECONDITION_DELTA         0.0E+00
 PAO|                                  LINPOT_INITGUESS_DELT             0.0E+00
 PAO|                                  LINPOT_REGULARIZATION_DELTA       0.0E+00
 PAO|                                  LINPOT_REGULARIZATION_STRENGTH    0.0E+00
 PAO|                                  OPTIMIZER                              CG
 PAO|                                  CG_INIT_STEPS                           2
 PAO|                                  CG_RESET_LIMIT                    0.1E+00
 PAO|                                  CHECK_UNITARY_TOL                -0.1E+01
 PAO|                                  CHECK_GRADIENT_TOL               -0.1E+01
 PAO|                                  NUM_GRADIENT_ORDER                      2
 PAO|                                  NUM_GRADIENT_EPS                  0.1E-07
 PAO|                                  PRINT%RESTART%WRITE_CYCLES            100
 PAO|                                  RESTART_FILE 
 PAO|                                  PREOPT_DM_FILE 2H2O_ref_LS_DM_SPIN_1_RESTART.dm
 PAO|                                  MACHINE_LEARNING%METHOD        GAUSSIAN_P
 PAO|                                  MACHINE_LEARNING%PRIOR               ZERO
 PAO|                                  MACHINE_LEARNING%DESCRIPTOR     POTENTIAL
 PAO|                                  MACHINE_LEARNING%TOLERANCE        0.1E-01
 PAO|                                  MACHINE_LEARNING%GP_NOISE_VAR     0.1E+00
 PAO|                                  MACHINE_LEARNING%GP_SCALE         0.5E-01
 

 Calculating atomic Fock matrix for atomic kind: O

 Electronic structure
    Total number of core electrons                                          2.00
    Total number of valence electrons                                       6.00
    Total number of electrons                                               8.00
    Multiplicity                                                   not specified
    S   [  2.00] 2.00
    P      4.00


 *******************************************************************************
                  Iteration          Convergence                     Energy [au]
 *******************************************************************************
                          1        0.708315                     -15.576645311500
                          2        0.608879                     -15.587933561584
                          3        0.102828E-01                 -15.656849565404
                          4        0.113889E-02                 -15.656866888140
                          5        0.434197E-03                 -15.656867072159
                          6        0.263771E-03                 -15.656867091904
                          7        0.478536E-06                 -15.656867103452

 Energy components [Hartree]           Total Energy ::          -15.656867103452
                                        Band Energy ::           -3.000198112285
                                     Kinetic Energy ::           11.759971203220
                                   Potential Energy ::          -27.416838306672
                                      Virial (-V/T) ::            2.331369510426
                                        Core Energy ::          -26.140716385623
                                          XC Energy ::           -3.154051012914
                                     Coulomb Energy ::           13.637900295084
                       Total Pseudopotential Energy ::          -37.935781716540
                       Local Pseudopotential Energy ::          -39.218907440693
                    Nonlocal Pseudopotential Energy ::            1.283125724153
                                        Confinement ::            0.350941276976

 Orbital energies  State     L     Occupation   Energy[a.u.]          Energy[eV]

                       1     0          2.000      -0.864471          -23.523463

                       1     1          4.000      -0.317814           -8.648154


 Total Electron Density at R=0:                                         0.000068

 Calculating atomic Fock matrix for atomic kind: H

 Electronic structure
    Total number of core electrons                                          0.00
    Total number of valence electrons                                       1.00
    Total number of electrons                                               1.00
    Multiplicity                                                   not specified
    S      1.00


 *******************************************************************************
                  Iteration          Convergence                     Energy [au]
 *******************************************************************************
                          1        0.437545E-02                  -0.424159432110
                          2        0.531356E-03                  -0.424178438213
                          3        0.259176E-06                  -0.424178722480

 Energy components [Hartree]           Total Energy ::           -0.424178722480
                                        Band Energy ::           -0.199015229016
                                     Kinetic Energy ::            0.464007633961
                                   Potential Energy ::           -0.888186356441
                                      Virial (-V/T) ::            1.914163240935
                                        Core Energy ::           -0.479160803564
                                          XC Energy ::           -0.244352904054
                                     Coulomb Energy ::            0.299334985138
                       Total Pseudopotential Energy ::           -0.962295316385
                       Local Pseudopotential Energy ::           -0.962295316385
                    Nonlocal Pseudopotential Energy ::            0.000000000000
                                        Confinement ::            0.191268788606

 Orbital energies  State     L     Occupation   Energy[a.u.]          Energy[eV]

                       1     0          1.000      -0.199015           -5.415480


 Total Electron Density at R=0:                                         0.242907
 PAO| Made initial guess for matrix_X with norm:   4.8989794855663558     

     Lanczos converged:  T threshold:   0.100E-02
     Est. extremal eigenvalues:    0.338E+01   0.111E+00
     Est. condition number :    0.305E+02
     NS sqrt iter    1 1.00000000   0.825E+00       0.001       47.289
     NS sqrt iter    2 1.00000000   0.441E+00       0.001       84.379
     NS sqrt iter    3 1.00000000   0.170E+00       0.001       84.726
     NS sqrt iter    4 1.00000000   0.208E-01       0.001       83.329
     NS sqrt iter    5 1.00000000   0.618E-04       0.001       70.706
     Final NS sqrt iter    5 1.00000000   0.172E-08

 PAO| Read restart DM 2H2O_ref_LS_DM_SPIN_1_RESTART.dm with checksum:    55.541130281808179     
 PAO| Quickstep energy from restart density:  -34.445806022184293     
 PAO| ======================= Iteration:         1 =============================

     Lanczos converged:  T threshold:   0.100E-02
     Est. extremal eigenvalues:    0.338E+01   0.111E+00
     Est. condition number :    0.305E+02
     NS sqrt iter    1 1.00000000   0.825E+00       0.001       64.512
     NS sqrt iter    2 1.00000000   0.441E+00       0.001      110.592
     NS sqrt iter    3 1.00000000   0.170E+00       0.001      110.592
     NS sqrt iter    4 1.00000000   0.208E-01       0.001      110.592
     NS sqrt iter    5 1.00000000   0.618E-04       0.001       90.880
     Final NS sqrt iter    5 1.00000000   0.172E-08

     Est. extremal eigenvalues     -0.91229     1.88591  converged:  T
     TRS4 it   1 1.00000000   0.888E+00       0.000       16.128   0.100E-07
     TRS4 it   2 1.00000000   0.692E+00       0.001       32.256   0.100E-07
     TRS4 it   3 1.00000000   0.498E+00       0.001       32.256   0.100E-07
     TRS4 it   4 1.00000000   0.314E+00       0.001       32.256   0.100E-07
     TRS4 it   5 1.00000000   0.158E+00       0.001       32.256   0.100E-07
     TRS4 it   6 1.00000000   0.526E-01       0.001       32.256   0.100E-07
     TRS4 it   7 1.00000000   0.835E-02       0.001       32.256   0.100E-07
     TRS4 it   8 1.00000000   0.280E-03       0.001       32.256   0.100E-07
     TRS4 it   9 1.00000000   0.341E-06       0.001       32.256   0.100E-07
     TRS4 it  10 1.00000000   0.522E-12       0.001       32.256   0.100E-07
     Final TRS4 iteration   10 1.00000000   0.522E-12
     Chemical potential (mu):      -0.07462
 
 PAO| energy:  -7.6021041247450478      penalty:   4.8687508994109331E-033
 PAO|CG| warming up with steepest descent
 PAO|CG| beta:    0.0000000000000000     
 PAO| norm of gradient:  0.78529300142527148     
 PAO|LS| adapt:  T F F
 PAO|LS| adapt: scan_steps:    0.0000000000000000        0.0000000000000000        0.0000000000000000     
 PAO|LS| adapt: energies:   -7.6021041247450478        0.0000000000000000        0.0000000000000000     
 PAO| ======================= Iteration:         2 =============================

     Lanczos converged:  T threshold:   0.100E-02
     Est. extremal eigenvalues:    0.329E+01   0.125E+00
     Est. condition number :    0.264E+02
     NS sqrt iter    1 1.00000000   0.809E+00       0.001       64.512
     NS sqrt iter    2 1.00000000   0.425E+00       0.001      110.592
     NS sqrt iter    3 1.00000000   0.152E+00       0.001      110.592
     NS sqrt iter    4 1.00000000   0.144E-01       0.001      110.592
     NS sqrt iter    5 1.00000000   0.196E-04       0.001       82.944
     Final NS sqrt iter    5 1.00000000   0.671E-09

     Est. extremal eigenvalues     -0.91575     1.82094  converged:  T
     TRS4 it   1 1.00000000   0.882E+00       0.000       16.128   0.100E-07
     TRS4 it   2 1.00000000   0.671E+00       0.001       32.256   0.100E-07
     TRS4 it   3 1.00000000   0.481E+00       0.001       32.256   0.100E-07
     TRS4 it   4 1.00000000   0.293E+00       0.001       32.256   0.100E-07
     TRS4 it   5 1.00000000   0.139E+00       0.001       32.256   0.100E-07
     TRS4 it   6 1.00000000   0.410E-01       0.001       32.256   0.100E-07
     TRS4 it   7 1.00000000   0.521E-02       0.001       32.256   0.100E-07
     TRS4 it   8 1.00000000   0.109E-03       0.001       32.256   0.100E-07
     TRS4 it   9 1.00000000   0.519E-07       0.001       32.256   0.100E-07
     Final TRS4 iteration    9 1.00000000   0.519E-07
     Chemical potential (mu):      -0.06383
 
 PAO| energy:  -7.6577416926604833      penalty:   2.2724402583678712E-008
 PAO|LS| adapt:  T T F
 PAO|LS| adapt: scan_steps:    0.0000000000000000       0.10000000000000001        0.0000000000000000     
 PAO|LS| adapt: energies:   -7.6021041247450478       -7.6577416926604833        0.0000000000000000     
 PAO| ======================= Iteration:         3 =============================

     Lanczos converged:  T threshold:   0.100E-02
     Est. extremal eigenvalues:    0.320E+01   0.138E+00
     Est. condition number :    0.232E+02
     NS sqrt iter    1 1.00000000   0.791E+00       0.001       64.512
     NS sqrt iter    2 1.00000000   0.409E+00       0.001      110.592
     NS sqrt iter    3 1.00000000   0.135E+00       0.001      110.592
     NS sqrt iter    4 1.00000000   0.987E-02       0.001      110.592
     NS sqrt iter    5 1.00000000   0.612E-05       0.001       82.944
     Final NS sqrt iter    5 1.00000000   0.624E-10

     Est. extremal eigenvalues     -0.91898     1.76765  converged:  T
     TRS4 it   1 1.00000000   0.876E+00       0.000       16.128   0.100E-07
     TRS4 it   2 1.00000000   0.652E+00       0.001       32.256   0.100E-07
     TRS4 it   3 1.00000000   0.463E+00       0.001       32.256   0.100E-07
     TRS4 it   4 1.00000000   0.272E+00       0.001       32.256   0.100E-07
     TRS4 it   5 1.00000000   0.120E+00       0.001       32.256   0.100E-07
     TRS4 it   6 1.00000000   0.309E-01       0.001       32.256   0.100E-07
     TRS4 it   7 1.00000000   0.301E-02       0.001       32.256   0.100E-07
     TRS4 it   8 1.00000000   0.364E-04       0.001       32.256   0.100E-07
     TRS4 it   9 1.00000000   0.580E-08       0.001       32.256   0.100E-07
     Final TRS4 iteration    9 1.00000000   0.580E-08
     Chemical potential (mu):      -0.05246
 
 PAO| energy:  -7.7006784004496529      penalty:   3.6359041885854256E-007
 PAO|LS| adapt:  T T F
 PAO|LS| adapt: scan_steps:    0.0000000000000000       0.20000000000000001        0.0000000000000000     
 PAO|LS| adapt: energies:   -7.6021041247450478       -7.7006784004496529        0.0000000000000000     
 PAO| ======================= Iteration:         4 =============================

     Lanczos converged:  T threshold:   0.100E-02
     Est. extremal eigenvalues:    0.301E+01   0.161E+00
     Est. condition number :    0.187E+02
     NS sqrt iter    1 1.00000000   0.755E+00       0.001       64.512
     NS sqrt iter    2 1.00000000   0.375E+00       0.001      110.592
     NS sqrt iter    3 1.00000000   0.106E+00       0.001      110.592
     NS sqrt iter    4 1.00000000   0.474E-02       0.001      110.592
     NS sqrt iter    5 1.00000000   0.671E-06       0.001       82.944
     Final NS sqrt iter    5 1.00000000   0.692E-12

     Est. extremal eigenvalues     -0.92403     1.68876  converged:  T
     TRS4 it   1 1.00000000   0.866E+00       0.000       16.128   0.100E-07
     TRS4 it   2 1.00000000   0.620E+00       0.001       32.256   0.100E-07
     TRS4 it   3 1.00000000   0.430E+00       0.001       32.256   0.100E-07
     TRS4 it   4 1.00000000   0.232E+00       0.001       32.256   0.100E-07
     TRS4 it   5 1.00000000   0.867E-01       0.001       32.256   0.100E-07
     TRS4 it   6 1.00000000   0.163E-01       0.001       32.256   0.100E-07
     TRS4 it   7 1.00000000   0.827E-03       0.001       32.256   0.100E-07
     TRS4 it   8 1.00000000   0.275E-05       0.001       32.256   0.100E-07
     TRS4 it   9 1.00000000   0.333E-10       0.001       32.256   0.100E-07
     Final TRS4 iteration    9 1.00000000   0.333E-10
     Chemical potential (mu):      -0.02807
 
 PAO| energy:  -7.7469940285351173      penalty:   5.8174465218949302E-006
 PAO|LS| Need extra step
 PAO|LS| adapt:  T T F
 PAO|LS| adapt: scan_steps:    0.0000000000000000       0.40000000000000002        0.0000000000000000     
 PAO|LS| adapt: energies:   -7.6021041247450478       -7.7469940285351173        0.0000000000000000     
 PAO| ======================= Iteration:         5 =============================

     Lanczos converged:  T threshold:   0.100E-02
     Est. extremal eigenvalues:    0.264E+01   0.191E+00
     Est. condition number :    0.138E+02
     NS sqrt iter    1 1.00000000   0.689E+00       0.001       64.512
     NS sqrt iter    2 1.00000000   0.312E+00       0.001      110.592
     NS sqrt iter    3 1.00000000   0.651E-01       0.001      110.592
     NS sqrt iter    4 1.00000000   0.124E-02       0.001      110.592
     NS sqrt iter    5 1.00000000   0.133E-07       0.001       46.336
     Final NS sqrt iter    5 1.00000000   0.424E-08

     Est. extremal eigenvalues     -0.92549     1.60237  converged:  T
     TRS4 it   1 1.00000000   0.855E+00       0.000       16.128   0.100E-07
     TRS4 it   2 1.00000000   0.579E+00       0.001       32.256   0.100E-07
     TRS4 it   3 1.00000000   0.375E+00       0.001       32.256   0.100E-07
     TRS4 it   4 1.00000000   0.171E+00       0.001       32.256   0.100E-07
     TRS4 it   5 1.00000000   0.452E-01       0.001       32.256   0.100E-07
     TRS4 it   6 1.00000000   0.421E-02       0.001       32.256   0.100E-07
     TRS4 it   7 1.00000000   0.508E-04       0.001       32.256   0.100E-07
     TRS4 it   8 1.00000000   0.100E-07       0.001       32.256   0.100E-07
     Final TRS4 iteration    8 1.00000000   0.100E-07
     Chemical potential (mu):       0.01635
 
 PAO| energy:  -7.6889809894979715      penalty:   9.3079142911584620E-005
 PAO|LS| Need extra step
 PAO|LS| adapt:  T T T
 PAO|LS| adapt: scan_steps:    0.0000000000000000       0.40000000000000002       0.80000000000000004     
 PAO|LS| adapt: energies:   -7.6021041247450478       -7.7469940285351173       -7.6889809894979715     
 PAO|LS| adapt: suggested step_size:   0.48563391298558434     
 PAO|LS| adapt: predicted energy  -7.7516437822080624     
 PAO| ======================= Iteration:         6 =============================

     Lanczos converged:  T threshold:   0.100E-02
     Est. extremal eigenvalues:    0.292E+01   0.169E+00
     Est. condition number :    0.173E+02
     NS sqrt iter    1 1.00000000   0.739E+00       0.001       64.512
     NS sqrt iter    2 1.00000000   0.360E+00       0.001      110.592
     NS sqrt iter    3 1.00000000   0.952E-01       0.001      110.592
     NS sqrt iter    4 1.00000000   0.351E-02       0.001      110.592
     NS sqrt iter    5 1.00000000   0.279E-06       0.001       81.664
     Final NS sqrt iter    5 1.00000000   0.582E-09

     Est. extremal eigenvalues     -0.92539     1.66373  converged:  T
     TRS4 it   1 1.00000000   0.863E+00       0.000       16.128   0.100E-07
     TRS4 it   2 1.00000000   0.609E+00       0.001       32.256   0.100E-07
     TRS4 it   3 1.00000000   0.416E+00       0.001       32.256   0.100E-07
     TRS4 it   4 1.00000000   0.217E+00       0.001       32.256   0.100E-07
     TRS4 it   5 1.00000000   0.751E-01       0.001       32.256   0.100E-07
     TRS4 it   6 1.00000000   0.121E-01       0.001       32.256   0.100E-07
     TRS4 it   7 1.00000000   0.450E-03       0.001       32.256   0.100E-07
     TRS4 it   8 1.00000000   0.811E-06       0.001       32.256   0.100E-07
     TRS4 it   9 1.00000000   0.292E-11       0.001       32.256   0.100E-07
     Final TRS4 iteration    9 1.00000000   0.292E-11
     Chemical potential (mu):      -0.01746
 
 PAO| energy:  -7.7508653313391633      penalty:   1.2639458252243423E-005
 PAO|CG| warming up with steepest descent
 PAO|CG| beta:    0.0000000000000000     
 PAO| norm of gradient:  0.41807580565214431     
 PAO| energy improvement: -0.14876120659411551     
 PAO| step      6                   -7.750865331  0.261E-01  0.486E+00     0.076
 PAO|LS| adapt:  T F F
 PAO|LS| adapt: scan_steps:    0.0000000000000000        0.0000000000000000        0.0000000000000000     
 PAO|LS| adapt: energies:   -7.7508653313391633        0.0000000000000000        0.0000000000000000     
 PAO| ======================= Iteration:         7 =============================

     Lanczos converged:  T threshold:   0.100E-02
     Est. extremal eigenvalues:    0.283E+01   0.184E+00
     Est. condition number :    0.154E+02
     NS sqrt iter    1 1.00000000   0.721E+00       0.001       64.512
     NS sqrt iter    2 1.00000000   0.339E+00       0.001      110.592
     NS sqrt iter    3 1.00000000   0.796E-01       0.001      110.592
     NS sqrt iter    4 1.00000000   0.208E-02       0.001      110.592
     NS sqrt iter    5 1.00000000   0.621E-07       0.001       72.704
     Final NS sqrt iter    5 1.00000000   0.608E-09

     Est. extremal eigenvalues     -0.92717     1.63820  converged:  T
     TRS4 it   1 1.00000000   0.858E+00       0.000       16.128   0.100E-07
     TRS4 it   2 1.00000000   0.604E+00       0.001       32.256   0.100E-07
     TRS4 it   3 1.00000000   0.413E+00       0.001       32.256   0.100E-07
     TRS4 it   4 1.00000000   0.215E+00       0.001       32.256   0.100E-07
     TRS4 it   5 1.00000000   0.738E-01       0.001       32.256   0.100E-07
     TRS4 it   6 1.00000000   0.114E-01       0.001       32.256   0.100E-07
     TRS4 it   7 1.00000000   0.385E-03       0.001       32.256   0.100E-07
     TRS4 it   8 1.00000000   0.592E-06       0.001       32.256   0.100E-07
     TRS4 it   9 1.00000000   0.155E-11       0.001       32.256   0.100E-07
     Final TRS4 iteration    9 1.00000000   0.155E-11
     Chemical potential (mu):      -0.01576
 
 PAO| energy:  -7.7459290815128794      penalty:   1.9191485094661366E-005
 PAO|LS| adapt:  T F T
 PAO|LS| adapt: scan_steps:    0.0000000000000000        0.0000000000000000       0.48563391298558434     
 PAO|LS| adapt: energies:   -7.7508653313391633        0.0000000000000000       -7.7459290815128794     
 PAO| ======================= Iteration:         8 =============================

     Lanczos converged:  T threshold:   0.100E-02
     Est. extremal eigenvalues:    0.288E+01   0.176E+00
     Est. condition number :    0.163E+02
     NS sqrt iter    1 1.00000000   0.730E+00       0.001       64.512
     NS sqrt iter    2 1.00000000   0.350E+00       0.001      110.592
     NS sqrt iter    3 1.00000000   0.872E-01       0.001      110.592
     NS sqrt iter    4 1.00000000   0.272E-02       0.001      110.592
     NS sqrt iter    5 1.00000000   0.134E-06       0.001       78.336
     Final NS sqrt iter    5 1.00000000   0.107E-08

     Est. extremal eigenvalues     -0.92701     1.65025  converged:  T
     TRS4 it   1 1.00000000   0.860E+00       0.000       16.128   0.100E-07
     TRS4 it   2 1.00000000   0.606E+00       0.001       32.256   0.100E-07
     TRS4 it   3 1.00000000   0.414E+00       0.001       32.256   0.100E-07
     TRS4 it   4 1.00000000   0.215E+00       0.001       32.256   0.100E-07
     TRS4 it   5 1.00000000   0.742E-01       0.001       32.256   0.100E-07
     TRS4 it   6 1.00000000   0.118E-01       0.001       32.256   0.100E-07
     TRS4 it   7 1.00000000   0.426E-03       0.001       32.256   0.100E-07
     TRS4 it   8 1.00000000   0.733E-06       0.001       32.256   0.100E-07
     TRS4 it   9 1.00000000   0.239E-11       0.001       32.256   0.100E-07
     Final TRS4 iteration    9 1.00000000   0.239E-11
     Chemical potential (mu):      -0.01696
 
 PAO| energy:  -7.7706538817670125      penalty:   1.3717194095747190E-005
 PAO|LS| adapt:  T T T
 PAO|LS| adapt: scan_steps:    0.0000000000000000       0.24281695649279217       0.48563391298558434     
 PAO|LS| adapt: energies:   -7.7508653313391633       -7.7706538817670125       -7.7459290815128794     
 PAO|LS| adapt: suggested step_size:   0.22935352202939310     
 PAO|LS| adapt: predicted energy  -7.7707223066383548     
 PAO| ======================= Iteration:         9 =============================

     Lanczos converged:  T threshold:   0.100E-02
     Est. extremal eigenvalues:    0.288E+01   0.176E+00
     Est. condition number :    0.164E+02
     NS sqrt iter    1 1.00000000   0.731E+00       0.001       64.512
     NS sqrt iter    2 1.00000000   0.350E+00       0.001      110.592
     NS sqrt iter    3 1.00000000   0.876E-01       0.001      110.592
     NS sqrt iter    4 1.00000000   0.276E-02       0.001      110.592
     NS sqrt iter    5 1.00000000   0.140E-06       0.001       78.464
     Final NS sqrt iter    5 1.00000000   0.111E-08

     Est. extremal eigenvalues     -0.92696     1.65096  converged:  T
     TRS4 it   1 1.00000000   0.860E+00       0.000       16.128   0.100E-07
     TRS4 it   2 1.00000000   0.606E+00       0.001       32.256   0.100E-07
     TRS4 it   3 1.00000000   0.414E+00       0.001       32.256   0.100E-07
     TRS4 it   4 1.00000000   0.215E+00       0.001       32.256   0.100E-07
     TRS4 it   5 1.00000000   0.742E-01       0.001       32.256   0.100E-07
     TRS4 it   6 1.00000000   0.118E-01       0.001       32.256   0.100E-07
     TRS4 it   7 1.00000000   0.428E-03       0.001       32.256   0.100E-07
     TRS4 it   8 1.00000000   0.740E-06       0.001       32.256   0.100E-07
     TRS4 it   9 1.00000000   0.243E-11       0.001       32.256   0.100E-07
     Final TRS4 iteration    9 1.00000000   0.243E-11
     Chemical potential (mu):      -0.01700
 
 PAO| energy:  -7.7707404430040556      penalty:   1.3574130556935504E-005
 PAO|CG| trace_G_new    3.7261862335821891E-002
 PAO|CG| trace_G_prev   0.17478737927168961     
 PAO|CG| trace_G_mix   -1.3088749600724792E-003
 PAO|CG| trace_D   0.17478737927168961     
 PAO|CG| trace_D_Gnew   1.3088749600724792E-003
 PAO|CG| beta:   0.22067232460725894     
 PAO| norm of gradient:  0.19303331923743602     
 PAO| energy improvement:  -1.9875111664892309E-002
 PAO| step      9                   -7.770740443  0.121E-01  0.229E+00     0.048
 PAO|LS| adapt:  T F F
 PAO|LS| adapt: scan_steps:    0.0000000000000000        0.0000000000000000        0.0000000000000000     
 PAO|LS| adapt: energies:   -7.7707404430040556        0.0000000000000000        0.0000000000000000     
 PAO| ======================= Iteration:        10 =============================

     Lanczos converged:  T threshold:   0.100E-02
     Est. extremal eigenvalues:    0.284E+01   0.182E+00
     Est. condition number :    0.156E+02
     NS sqrt iter    1 1.00000000   0.722E+00       0.001       64.512
     NS sqrt iter    2 1.00000000   0.342E+00       0.001      110.592
     NS sqrt iter    3 1.00000000   0.819E-01       0.001      110.592
     NS sqrt iter    4 1.00000000   0.227E-02       0.001      110.592
     NS sqrt iter    5 1.00000000   0.770E-07       0.001       73.728
     Final NS sqrt iter    5 1.00000000   0.709E-09

     Est. extremal eigenvalues     -0.92783     1.64582  converged:  T
     TRS4 it   1 1.00000000   0.858E+00       0.000       16.128   0.100E-07
     TRS4 it   2 1.00000000   0.605E+00       0.001       32.256   0.100E-07
     TRS4 it   3 1.00000000   0.412E+00       0.001       32.256   0.100E-07
     TRS4 it   4 1.00000000   0.212E+00       0.001       32.256   0.100E-07
     TRS4 it   5 1.00000000   0.721E-01       0.001       32.256   0.100E-07
     TRS4 it   6 1.00000000   0.111E-01       0.001       32.256   0.100E-07
     TRS4 it   7 1.00000000   0.375E-03       0.001       32.256   0.100E-07
     TRS4 it   8 1.00000000   0.568E-06       0.001       32.256   0.100E-07
     TRS4 it   9 1.00000000   0.144E-11       0.001       32.256   0.100E-07
     Final TRS4 iteration    9 1.00000000   0.144E-11
     Chemical potential (mu):      -0.01463
 
 PAO| energy:  -7.7758196557093706      penalty:   1.4118015381140845E-005
 PAO|LS| adapt:  T T F
 PAO|LS| adapt: scan_steps:    0.0000000000000000       0.22935352202939310        0.0000000000000000     
 PAO|LS| adapt: energies:   -7.7707404430040556       -7.7758196557093706        0.0000000000000000     
 PAO| ======================= Iteration:        11 =============================

     Lanczos converged:  T threshold:   0.100E-02
     Est. extremal eigenvalues:    0.280E+01   0.188E+00
     Est. condition number :    0.149E+02
     NS sqrt iter    1 1.00000000   0.714E+00       0.001       64.512
     NS sqrt iter    2 1.00000000   0.333E+00       0.001      110.592
     NS sqrt iter    3 1.00000000   0.764E-01       0.001      110.592
     NS sqrt iter    4 1.00000000   0.185E-02       0.001      110.592
     NS sqrt iter    5 1.00000000   0.422E-07       0.001       67.200
     Final NS sqrt iter    5 1.00000000   0.358E-09

     Est. extremal eigenvalues     -0.92764     1.64306  converged:  T
     TRS4 it   1 1.00000000   0.857E+00       0.000       16.128   0.100E-07
     TRS4 it   2 1.00000000   0.604E+00       0.001       32.256   0.100E-07
     TRS4 it   3 1.00000000   0.410E+00       0.001       32.256   0.100E-07
     TRS4 it   4 1.00000000   0.210E+00       0.001       32.256   0.100E-07
     TRS4 it   5 1.00000000   0.702E-01       0.001       32.256   0.100E-07
     TRS4 it   6 1.00000000   0.104E-01       0.001       32.256   0.100E-07
     TRS4 it   7 1.00000000   0.330E-03       0.001       32.256   0.100E-07
     TRS4 it   8 1.00000000   0.440E-06       0.001       32.256   0.100E-07
     TRS4 it   9 1.00000000   0.862E-12       0.001       32.256   0.100E-07
     Final TRS4 iteration    9 1.00000000   0.862E-12
     Chemical potential (mu):      -0.01217
 
 PAO| energy:  -7.7743536408916283      penalty:   1.5321526325962402E-005
 PAO|LS| adapt:  T T T
 PAO|LS| adapt: scan_steps:    0.0000000000000000       0.22935352202939310       0.45870704405878621     
 PAO|LS| adapt: energies:   -7.7707404430040556       -7.7758196557093706       -7.7743536408916283     
 PAO|LS| adapt: suggested step_size:   0.29265916407045528     
 PAO|LS| adapt: predicted energy  -7.7760689823929878     
 PAO| ======================= Iteration:        12 =============================

     Lanczos converged:  T threshold:   0.100E-02
     Est. extremal eigenvalues:    0.283E+01   0.184E+00
     Est. condition number :    0.154E+02
     NS sqrt iter    1 1.00000000   0.720E+00       0.001       64.512
     NS sqrt iter    2 1.00000000   0.339E+00       0.001      110.592
     NS sqrt iter    3 1.00000000   0.804E-01       0.001      110.592
     NS sqrt iter    4 1.00000000   0.215E-02       0.001      110.592
     NS sqrt iter    5 1.00000000   0.652E-07       0.001       72.576
     Final NS sqrt iter    5 1.00000000   0.521E-09

     Est. extremal eigenvalues     -0.92788     1.64481  converged:  T
     TRS4 it   1 1.00000000   0.858E+00       0.000       16.128   0.100E-07
     TRS4 it   2 1.00000000   0.604E+00       0.001       32.256   0.100E-07
     TRS4 it   3 1.00000000   0.411E+00       0.001       32.256   0.100E-07
     TRS4 it   4 1.00000000   0.212E+00       0.001       32.256   0.100E-07
     TRS4 it   5 1.00000000   0.716E-01       0.001       32.256   0.100E-07
     TRS4 it   6 1.00000000   0.109E-01       0.001       32.256   0.100E-07
     TRS4 it   7 1.00000000   0.362E-03       0.001       32.256   0.100E-07
     TRS4 it   8 1.00000000   0.529E-06       0.001       32.256   0.100E-07
     TRS4 it   9 1.00000000   0.124E-11       0.001       32.256   0.100E-07
     Final TRS4 iteration    9 1.00000000   0.124E-11
     Chemical potential (mu):      -0.01396
 
 PAO| energy:  -7.7760522200406506      penalty:   1.4376617942613684E-005
 PAO|CG| trace_G_new    1.1968672788218282E-002
 PAO|CG| trace_G_prev    3.7261862335821891E-002
 PAO|CG| trace_G_mix   -5.1945465964450366E-004
 PAO|CG| trace_D    4.5195691636603960E-002
 PAO|CG| trace_D_Gnew   2.2231753117497150E-004
 PAO|CG| beta:   0.33514501597675800     
 PAO| norm of gradient:  0.10940142955290065     
 PAO| energy improvement:  -5.3117770365949113E-003
 PAO| step     12                   -7.776052220  0.684E-02  0.293E+00     0.048
 PAO|LS| adapt:  T F F
 PAO|LS| adapt: scan_steps:    0.0000000000000000        0.0000000000000000        0.0000000000000000     
 PAO|LS| adapt: energies:   -7.7760522200406506        0.0000000000000000        0.0000000000000000     
 PAO| ======================= Iteration:        13 =============================

     Lanczos converged:  T threshold:   0.100E-02
     Est. extremal eigenvalues:    0.279E+01   0.188E+00
     Est. condition number :    0.149E+02
     NS sqrt iter    1 1.00000000   0.712E+00       0.001       64.512
     NS sqrt iter    2 1.00000000   0.332E+00       0.001      110.592
     NS sqrt iter    3 1.00000000   0.759E-01       0.001      110.592
     NS sqrt iter    4 1.00000000   0.182E-02       0.001      101.044
     NS sqrt iter    5 1.00000000   0.405E-07       0.001       67.200
     Final NS sqrt iter    5 1.00000000   0.353E-09

     Est. extremal eigenvalues     -0.92842     1.64019  converged:  T
     TRS4 it   1 1.00000000   0.858E+00       0.000       16.128   0.100E-07
     TRS4 it   2 1.00000000   0.602E+00       0.001       32.256   0.100E-07
     TRS4 it   3 1.00000000   0.408E+00       0.001       32.256   0.100E-07
     TRS4 it   4 1.00000000   0.207E+00       0.001       32.256   0.100E-07
     TRS4 it   5 1.00000000   0.683E-01       0.001       32.256   0.100E-07
     TRS4 it   6 1.00000000   0.989E-02       0.001       32.256   0.100E-07
     TRS4 it   7 1.00000000   0.298E-03       0.001       32.256   0.100E-07
     TRS4 it   8 1.00000000   0.358E-06       0.001       32.256   0.100E-07
     TRS4 it   9 1.00000000   0.569E-12       0.001       32.256   0.100E-07
     Final TRS4 iteration    9 1.00000000   0.569E-12
     Chemical potential (mu):      -0.01053
 
 PAO| energy:  -7.7781234327873463      penalty:   1.4690602979771901E-005
 PAO|LS| adapt:  T T F
 PAO|LS| adapt: scan_steps:    0.0000000000000000       0.29265916407045528        0.0000000000000000     
 PAO|LS| adapt: energies:   -7.7760522200406506       -7.7781234327873463        0.0000000000000000     
 PAO| ======================= Iteration:        14 =============================

     Lanczos converged:  T threshold:   0.100E-02
     Est. extremal eigenvalues:    0.275E+01   0.192E+00
     Est. condition number :    0.144E+02
     NS sqrt iter    1 1.00000000   0.704E+00       0.001       64.512
     NS sqrt iter    2 1.00000000   0.325E+00       0.001      110.592
     NS sqrt iter    3 1.00000000   0.716E-01       0.001      110.592
     NS sqrt iter    4 1.00000000   0.154E-02       0.001      110.592
     NS sqrt iter    5 1.00000000   0.246E-07       0.001       56.960
     Final NS sqrt iter    5 1.00000000   0.591E-08

     Est. extremal eigenvalues     -0.92836     1.63610  converged:  T
     TRS4 it   1 1.00000000   0.858E+00       0.000       16.128   0.100E-07
     TRS4 it   2 1.00000000   0.599E+00       0.001       32.256   0.100E-07
     TRS4 it   3 1.00000000   0.404E+00       0.001       32.256   0.100E-07
     TRS4 it   4 1.00000000   0.203E+00       0.001       32.256   0.100E-07
     TRS4 it   5 1.00000000   0.652E-01       0.001       32.256   0.100E-07
     TRS4 it   6 1.00000000   0.900E-02       0.001       32.256   0.100E-07
     TRS4 it   7 1.00000000   0.245E-03       0.001       32.256   0.100E-07
     TRS4 it   8 1.00000000   0.243E-06       0.001       32.256   0.100E-07
     TRS4 it   9 1.00000000   0.262E-12       0.001       32.256   0.100E-07
     Final TRS4 iteration    9 1.00000000   0.262E-12
     Chemical potential (mu):      -0.00720
 
 PAO| energy:  -7.7774270096177087      penalty:   1.5480204029372879E-005
 PAO|LS| adapt:  T T T
 PAO|LS| adapt: scan_steps:    0.0000000000000000       0.29265916407045528       0.58531832814091056     
 PAO|LS| adapt: energies:   -7.7760522200406506       -7.7781234327873463       -7.7774270096177087     
 PAO|LS| adapt: suggested step_size:   0.36534660934101287     
 PAO|LS| adapt: predicted energy  -7.7782087965435576     
 PAO| ======================= Iteration:        15 =============================

     Lanczos converged:  T threshold:   0.100E-02
     Est. extremal eigenvalues:    0.278E+01   0.189E+00
     Est. condition number :    0.147E+02
     NS sqrt iter    1 1.00000000   0.710E+00       0.001       64.512
     NS sqrt iter    2 1.00000000   0.330E+00       0.001      110.592
     NS sqrt iter    3 1.00000000   0.748E-01       0.001      110.592
     NS sqrt iter    4 1.00000000   0.174E-02       0.001      110.592
     NS sqrt iter    5 1.00000000   0.359E-07       0.001       65.920
     Final NS sqrt iter    5 1.00000000   0.636E-09

     Est. extremal eigenvalues     -0.92846     1.63912  converged:  T
     TRS4 it   1 1.00000000   0.858E+00       0.000       16.128   0.100E-07
     TRS4 it   2 1.00000000   0.601E+00       0.001       32.256   0.100E-07
     TRS4 it   3 1.00000000   0.407E+00       0.001       32.256   0.100E-07
     TRS4 it   4 1.00000000   0.206E+00       0.001       32.256   0.100E-07
     TRS4 it   5 1.00000000   0.675E-01       0.001       32.256   0.100E-07
     TRS4 it   6 1.00000000   0.966E-02       0.001       32.256   0.100E-07
     TRS4 it   7 1.00000000   0.284E-03       0.001       32.256   0.100E-07
     TRS4 it   8 1.00000000   0.325E-06       0.001       32.256   0.100E-07
     TRS4 it   9 1.00000000   0.469E-12       0.001       32.256   0.100E-07
     Final TRS4 iteration    9 1.00000000   0.469E-12
     Chemical potential (mu):      -0.00969
 
 PAO| energy:  -7.7782057602324537      penalty:   1.4839336082003412E-005
 PAO|CG| trace_G_new    2.8396680576034156E-003
 PAO|CG| trace_G_prev    1.1968672788218282E-002
 PAO|CG| trace_G_mix    6.7858910381567711E-005
 PAO|CG| trace_D    1.6896134252746411E-002
 PAO|CG| trace_D_Gnew   3.6383072229316190E-005
 PAO|CG| beta:   0.23158868124044302     
 PAO| norm of gradient:   5.3288535892848619E-002
 PAO| energy improvement:  -2.1535401918031383E-003
 PAO| step     15                   -7.778205760  0.333E-02  0.365E+00     0.049
 PAO|LS| adapt:  T F F
 PAO|LS| adapt: scan_steps:    0.0000000000000000        0.0000000000000000        0.0000000000000000     
 PAO|LS| adapt: energies:   -7.7782057602324537        0.0000000000000000        0.0000000000000000     
 PAO| ======================= Iteration:        16 =============================

     Lanczos converged:  T threshold:   0.100E-02
     Est. extremal eigenvalues:    0.277E+01   0.190E+00
     Est. condition number :    0.146E+02
     NS sqrt iter    1 1.00000000   0.708E+00       0.001       64.512
     NS sqrt iter    2 1.00000000   0.328E+00       0.001      110.592
     NS sqrt iter    3 1.00000000   0.738E-01       0.001      110.592
     NS sqrt iter    4 1.00000000   0.167E-02       0.001      110.592
     NS sqrt iter    5 1.00000000   0.316E-07       0.001       65.408
     Final NS sqrt iter    5 1.00000000   0.567E-09

     Est. extremal eigenvalues     -0.92850     1.63695  converged:  T
     TRS4 it   1 1.00000000   0.857E+00       0.000       16.128   0.100E-07
     TRS4 it   2 1.00000000   0.600E+00       0.001       32.256   0.100E-07
     TRS4 it   3 1.00000000   0.405E+00       0.001       32.256   0.100E-07
     TRS4 it   4 1.00000000   0.204E+00       0.001       32.256   0.100E-07
     TRS4 it   5 1.00000000   0.662E-01       0.001       32.256   0.100E-07
     TRS4 it   6 1.00000000   0.932E-02       0.001       32.256   0.100E-07
     TRS4 it   7 1.00000000   0.266E-03       0.001       32.256   0.100E-07
     TRS4 it   8 1.00000000   0.285E-06       0.001       32.256   0.100E-07
     TRS4 it   9 1.00000000   0.363E-12       0.001       32.256   0.100E-07
     Final TRS4 iteration    9 1.00000000   0.363E-12
     Chemical potential (mu):      -0.00890
 
 PAO| energy:  -7.7783472142201129      penalty:   1.4651763085654314E-005
 PAO|LS| adapt:  T T F
 PAO|LS| adapt: scan_steps:    0.0000000000000000       0.36534660934101287        0.0000000000000000     
 PAO|LS| adapt: energies:   -7.7782057602324537       -7.7783472142201129        0.0000000000000000     
 PAO| ======================= Iteration:        17 =============================

     Lanczos converged:  T threshold:   0.100E-02
     Est. extremal eigenvalues:    0.276E+01   0.190E+00
     Est. condition number :    0.145E+02
     NS sqrt iter    1 1.00000000   0.705E+00       0.001       64.512
     NS sqrt iter    2 1.00000000   0.327E+00       0.001      110.592
     NS sqrt iter    3 1.00000000   0.729E-01       0.001      110.592
     NS sqrt iter    4 1.00000000   0.161E-02       0.001      110.592
     NS sqrt iter    5 1.00000000   0.279E-07       0.001       62.720
     Final NS sqrt iter    5 1.00000000   0.315E-08

     Est. extremal eigenvalues     -0.92842     1.63485  converged:  T
     TRS4 it   1 1.00000000   0.857E+00       0.000       16.128   0.100E-07
     TRS4 it   2 1.00000000   0.599E+00       0.001       32.256   0.100E-07
     TRS4 it   3 1.00000000   0.403E+00       0.001       32.256   0.100E-07
     TRS4 it   4 1.00000000   0.202E+00       0.001       32.256   0.100E-07
     TRS4 it   5 1.00000000   0.649E-01       0.001       32.256   0.100E-07
     TRS4 it   6 1.00000000   0.899E-02       0.001       32.256   0.100E-07
     TRS4 it   7 1.00000000   0.249E-03       0.001       32.256   0.100E-07
     TRS4 it   8 1.00000000   0.251E-06       0.001       32.256   0.100E-07
     TRS4 it   9 1.00000000   0.281E-12       0.001       32.256   0.100E-07
     Final TRS4 iteration    9 1.00000000   0.281E-12
     Chemical potential (mu):      -0.00811
 
 PAO| energy:  -7.7766988028971102      penalty:   1.4596533541614598E-005
 PAO|LS| adapt:  T T T
 PAO|LS| adapt: scan_steps:    0.0000000000000000       0.36534660934101287       0.73069321868202575     
 PAO|LS| adapt: energies:   -7.7782057602324537       -7.7783472142201129       -7.7766988028971102     
 PAO|LS| adapt: suggested step_size:   0.21154683747836966     
 PAO|LS| adapt: predicted energy  -7.7785058099812723     
 PAO| ======================= Iteration:        18 =============================

     Lanczos converged:  T threshold:   0.100E-02
     Est. extremal eigenvalues:    0.278E+01   0.189E+00
     Est. condition number :    0.147E+02
     NS sqrt iter    1 1.00000000   0.709E+00       0.001       64.512
     NS sqrt iter    2 1.00000000   0.329E+00       0.001      110.592
     NS sqrt iter    3 1.00000000   0.742E-01       0.001      110.592
     NS sqrt iter    4 1.00000000   0.170E-02       0.001      110.592
     NS sqrt iter    5 1.00000000   0.334E-07       0.001       65.792
     Final NS sqrt iter    5 1.00000000   0.592E-09

     Est. extremal eigenvalues     -0.92849     1.63786  converged:  T
     TRS4 it   1 1.00000000   0.857E+00       0.000       16.128   0.100E-07
     TRS4 it   2 1.00000000   0.600E+00       0.001       32.256   0.100E-07
     TRS4 it   3 1.00000000   0.406E+00       0.001       32.256   0.100E-07
     TRS4 it   4 1.00000000   0.205E+00       0.001       32.256   0.100E-07
     TRS4 it   5 1.00000000   0.667E-01       0.001       32.256   0.100E-07
     TRS4 it   6 1.00000000   0.946E-02       0.001       32.256   0.100E-07
     TRS4 it   7 1.00000000   0.273E-03       0.001       32.256   0.100E-07
     TRS4 it   8 1.00000000   0.301E-06       0.001       32.256   0.100E-07
     TRS4 it   9 1.00000000   0.404E-12       0.001       32.256   0.100E-07
     Final TRS4 iteration    9 1.00000000   0.404E-12
     Chemical potential (mu):      -0.00923
 
 PAO| energy:  -7.7785054892852443      penalty:   1.4714951674330978E-005
 PAO|CG| trace_G_new    6.9996462202997784E-004
 PAO|CG| trace_G_prev    2.8396680576034156E-003
 PAO|CG| trace_G_mix    6.5112325476413518E-007
 PAO|CG| trace_D    3.7290119713301378E-003
 PAO|CG| trace_D_Gnew  -1.3081976929257910E-006
 PAO|CG| beta:   0.24626593129529753     
 PAO| norm of gradient:   2.6456844521408403E-002
 PAO| energy improvement:  -2.9972905279063156E-004
 PAO| step     18                   -7.778505489  0.165E-02  0.212E+00     0.050
 PAO|LS| adapt:  T F F
 PAO|LS| adapt: scan_steps:    0.0000000000000000        0.0000000000000000        0.0000000000000000     
 PAO|LS| adapt: energies:   -7.7785054892852443        0.0000000000000000        0.0000000000000000     
 PAO| ======================= Iteration:        19 =============================

     Lanczos converged:  T threshold:   0.100E-02
     Est. extremal eigenvalues:    0.277E+01   0.189E+00
     Est. condition number :    0.147E+02
     NS sqrt iter    1 1.00000000   0.708E+00       0.001       64.512
     NS sqrt iter    2 1.00000000   0.329E+00       0.001      110.592
     NS sqrt iter    3 1.00000000   0.744E-01       0.001      110.592
     NS sqrt iter    4 1.00000000   0.171E-02       0.001      110.592
     NS sqrt iter    5 1.00000000   0.339E-07       0.001       65.792
     Final NS sqrt iter    5 1.00000000   0.601E-09

     Est. extremal eigenvalues     -0.92849     1.63849  converged:  T
     TRS4 it   1 1.00000000   0.858E+00       0.000       16.128   0.100E-07
     TRS4 it   2 1.00000000   0.601E+00       0.001       32.256   0.100E-07
     TRS4 it   3 1.00000000   0.406E+00       0.001       32.256   0.100E-07
     TRS4 it   4 1.00000000   0.205E+00       0.001       32.256   0.100E-07
     TRS4 it   5 1.00000000   0.667E-01       0.001       32.256   0.100E-07
     TRS4 it   6 1.00000000   0.947E-02       0.001       32.256   0.100E-07
     TRS4 it   7 1.00000000   0.275E-03       0.001       32.256   0.100E-07
     TRS4 it   8 1.00000000   0.306E-06       0.001       32.256   0.100E-07
     TRS4 it   9 1.00000000   0.416E-12       0.001       32.256   0.100E-07
     Final TRS4 iteration    9 1.00000000   0.416E-12
     Chemical potential (mu):      -0.00939
 
 PAO| energy:  -7.7786191630457662      penalty:   1.4441444858957595E-005
 PAO|LS| adapt:  T T F
 PAO|LS| adapt: scan_steps:    0.0000000000000000       0.21154683747836966        0.0000000000000000     
 PAO|LS| adapt: energies:   -7.7785054892852443       -7.7786191630457662        0.0000000000000000     
 PAO| ======================= Iteration:        20 =============================

     Lanczos converged:  T threshold:   0.100E-02
     Est. extremal eigenvalues:    0.277E+01   0.189E+00
     Est. condition number :    0.147E+02
     NS sqrt iter    1 1.00000000   0.708E+00       0.001       64.512
     NS sqrt iter    2 1.00000000   0.329E+00       0.001      110.592
     NS sqrt iter    3 1.00000000   0.746E-01       0.001      110.592
     NS sqrt iter    4 1.00000000   0.172E-02       0.001      110.592
     NS sqrt iter    5 1.00000000   0.344E-07       0.001       65.792
     Final NS sqrt iter    5 1.00000000   0.611E-09

     Est. extremal eigenvalues     -0.92849     1.63913  converged:  T
     TRS4 it   1 1.00000000   0.858E+00       0.000       16.128   0.100E-07
     TRS4 it   2 1.00000000   0.601E+00       0.001       32.256   0.100E-07
     TRS4 it   3 1.00000000   0.406E+00       0.001       32.256   0.100E-07
     TRS4 it   4 1.00000000   0.205E+00       0.001       32.256   0.100E-07
     TRS4 it   5 1.00000000   0.667E-01       0.001       32.256   0.100E-07
     TRS4 it   6 1.00000000   0.949E-02       0.001       32.256   0.100E-07
     TRS4 it   7 1.00000000   0.277E-03       0.001       32.256   0.100E-07
     TRS4 it   8 1.00000000   0.310E-06       0.001       32.256   0.100E-07
     TRS4 it   9 1.00000000   0.428E-12       0.001       32.256   0.100E-07
     Final TRS4 iteration    9 1.00000000   0.428E-12
     Chemical potential (mu):      -0.00956
 
 PAO| energy:  -7.7786635742527617      penalty:   1.4179438936498963E-005
 PAO|LS| adapt:  T T F
 PAO|LS| adapt: scan_steps:    0.0000000000000000       0.42309367495673933        0.0000000000000000     
 PAO|LS| adapt: energies:   -7.7785054892852443       -7.7786635742527617        0.0000000000000000     
 PAO| ======================= Iteration:        21 =============================

     Lanczos converged:  T threshold:   0.100E-02
     Est. extremal eigenvalues:    0.277E+01   0.188E+00
     Est. condition number :    0.147E+02
     NS sqrt iter    1 1.00000000   0.708E+00       0.001       64.512
     NS sqrt iter    2 1.00000000   0.330E+00       0.001      110.592
     NS sqrt iter    3 1.00000000   0.749E-01       0.001      110.592
     NS sqrt iter    4 1.00000000   0.174E-02       0.001      110.592
     NS sqrt iter    5 1.00000000   0.357E-07       0.001       65.920
     Final NS sqrt iter    5 1.00000000   0.632E-09

     Est. extremal eigenvalues     -0.92849     1.64044  converged:  T
     TRS4 it   1 1.00000000   0.858E+00       0.000       16.128   0.100E-07
     TRS4 it   2 1.00000000   0.601E+00       0.001       32.256   0.100E-07
     TRS4 it   3 1.00000000   0.406E+00       0.001       32.256   0.100E-07
     TRS4 it   4 1.00000000   0.205E+00       0.001       32.256   0.100E-07
     TRS4 it   5 1.00000000   0.667E-01       0.001       32.256   0.100E-07
     TRS4 it   6 1.00000000   0.952E-02       0.001       32.256   0.100E-07
     TRS4 it   7 1.00000000   0.280E-03       0.001       32.256   0.100E-07
     TRS4 it   8 1.00000000   0.319E-06       0.001       32.256   0.100E-07
     TRS4 it   9 1.00000000   0.453E-12       0.001       32.256   0.100E-07
     Final TRS4 iteration    9 1.00000000   0.453E-12
     Chemical potential (mu):      -0.00989
 
 PAO| energy:  -7.7785426693849358      penalty:   1.3689387621480510E-005
 PAO|LS| Need extra step
 PAO|LS| adapt:  T T T
 PAO|LS| adapt: scan_steps:    0.0000000000000000       0.42309367495673933       0.84618734991347866     
 PAO|LS| adapt: energies:   -7.7785054892852443       -7.7786635742527617       -7.7785426693849358     
 PAO|LS| adapt: suggested step_size:   0.45128585800591509     
 PAO|LS| adapt: predicted energy  -7.7786641936121610     
 PAO| ======================= Iteration:        22 =============================

     Lanczos converged:  T threshold:   0.100E-02
     Est. extremal eigenvalues:    0.277E+01   0.189E+00
     Est. condition number :    0.147E+02
     NS sqrt iter    1 1.00000000   0.708E+00       0.001       64.512
     NS sqrt iter    2 1.00000000   0.329E+00       0.001      110.592
     NS sqrt iter    3 1.00000000   0.746E-01       0.001      110.592
     NS sqrt iter    4 1.00000000   0.172E-02       0.001      110.592
     NS sqrt iter    5 1.00000000   0.345E-07       0.001       65.792
     Final NS sqrt iter    5 1.00000000   0.612E-09

     Est. extremal eigenvalues     -0.92849     1.63922  converged:  T
     TRS4 it   1 1.00000000   0.858E+00       0.000       16.128   0.100E-07
     TRS4 it   2 1.00000000   0.601E+00       0.001       32.256   0.100E-07
     TRS4 it   3 1.00000000   0.406E+00       0.001       32.256   0.100E-07
     TRS4 it   4 1.00000000   0.205E+00       0.001       32.256   0.100E-07
     TRS4 it   5 1.00000000   0.667E-01       0.001       32.256   0.100E-07
     TRS4 it   6 1.00000000   0.949E-02       0.001       32.256   0.100E-07
     TRS4 it   7 1.00000000   0.277E-03       0.001       32.256   0.100E-07
     TRS4 it   8 1.00000000   0.311E-06       0.001       32.256   0.100E-07
     TRS4 it   9 1.00000000   0.429E-12       0.001       32.256   0.100E-07
     Final TRS4 iteration    9 1.00000000   0.429E-12
     Chemical potential (mu):      -0.00958
 
 PAO| energy:  -7.7786642365123013      penalty:   1.4145382013711496E-005
 PAO|CG| trace_G_new    2.2884496520795763E-004
 PAO|CG| trace_G_prev    6.9996462202997784E-004
 PAO|CG| trace_G_mix    2.2734538390738103E-006
 PAO|CG| trace_D    9.2676200045100406E-004
 PAO|CG| trace_D_Gnew  -1.5073621819678394E-006
 PAO|CG| beta:   0.32368994694589048     
 PAO| norm of gradient:   1.5127622589420906E-002
 PAO| energy improvement:  -1.5874722705699895E-004
 PAO| step     22                   -7.778664237  0.945E-03  0.451E+00     0.062
 PAO|LS| adapt:  T F F
 PAO|LS| adapt: scan_steps:    0.0000000000000000        0.0000000000000000        0.0000000000000000     
 PAO|LS| adapt: energies:   -7.7786642365123013        0.0000000000000000        0.0000000000000000     
 PAO| ======================= Iteration:        23 =============================

     Lanczos converged:  T threshold:   0.100E-02
     Est. extremal eigenvalues:    0.277E+01   0.188E+00
     Est. condition number :    0.147E+02
     NS sqrt iter    1 1.00000000   0.708E+00       0.001       64.512
     NS sqrt iter    2 1.00000000   0.329E+00       0.001      110.592
     NS sqrt iter    3 1.00000000   0.746E-01       0.001      110.592
     NS sqrt iter    4 1.00000000   0.172E-02       0.001      110.592
     NS sqrt iter    5 1.00000000   0.348E-07       0.001       65.792
     Final NS sqrt iter    5 1.00000000   0.621E-09

     Est. extremal eigenvalues     -0.92849     1.63968  converged:  T
     TRS4 it   1 1.00000000   0.858E+00       0.000       16.128   0.100E-07
     TRS4 it   2 1.00000000   0.601E+00       0.001       32.256   0.100E-07
     TRS4 it   3 1.00000000   0.406E+00       0.001       32.256   0.100E-07
     TRS4 it   4 1.00000000   0.205E+00       0.001       32.256   0.100E-07
     TRS4 it   5 1.00000000   0.669E-01       0.001       32.256   0.100E-07
     TRS4 it   6 1.00000000   0.956E-02       0.001       32.256   0.100E-07
     TRS4 it   7 1.00000000   0.281E-03       0.001       32.256   0.100E-07
     TRS4 it   8 1.00000000   0.321E-06       0.001       32.256   0.100E-07
     TRS4 it   9 1.00000000   0.459E-12       0.001       32.256   0.100E-07
     Final TRS4 iteration    9 1.00000000   0.459E-12
     Chemical potential (mu):      -0.00988
 
 PAO| energy:  -7.7787091721719408      penalty:   1.3463692328403096E-005
 PAO|LS| adapt:  T T F
 PAO|LS| adapt: scan_steps:    0.0000000000000000       0.45128585800591509        0.0000000000000000     
 PAO|LS| adapt: energies:   -7.7786642365123013       -7.7787091721719408        0.0000000000000000     
 PAO| ======================= Iteration:        24 =============================

     Lanczos converged:  T threshold:   0.100E-02
     Est. extremal eigenvalues:    0.277E+01   0.188E+00
     Est. condition number :    0.147E+02
     NS sqrt iter    1 1.00000000   0.708E+00       0.001       64.512
     NS sqrt iter    2 1.00000000   0.329E+00       0.001      110.592
     NS sqrt iter    3 1.00000000   0.747E-01       0.001      110.592
     NS sqrt iter    4 1.00000000   0.173E-02       0.001      110.592
     NS sqrt iter    5 1.00000000   0.351E-07       0.001       65.920
     Final NS sqrt iter    5 1.00000000   0.628E-09

     Est. extremal eigenvalues     -0.92849     1.64013  converged:  T
     TRS4 it   1 1.00000000   0.858E+00       0.000       16.128   0.100E-07
     TRS4 it   2 1.00000000   0.601E+00       0.001       32.256   0.100E-07
     TRS4 it   3 1.00000000   0.406E+00       0.001       32.256   0.100E-07
     TRS4 it   4 1.00000000   0.205E+00       0.001       32.256   0.100E-07
     TRS4 it   5 1.00000000   0.672E-01       0.001       32.256   0.100E-07
     TRS4 it   6 1.00000000   0.964E-02       0.001       32.256   0.100E-07
     TRS4 it   7 1.00000000   0.286E-03       0.001       32.256   0.100E-07
     TRS4 it   8 1.00000000   0.332E-06       0.001       32.256   0.100E-07
     TRS4 it   9 1.00000000   0.490E-12       0.001       32.256   0.100E-07
     Final TRS4 iteration    9 1.00000000   0.490E-12
     Chemical potential (mu):      -0.01019
 
 PAO| energy:  -7.7786363471221325      penalty:   1.2811369534861878E-005
 PAO|LS| adapt:  T T T
 PAO|LS| adapt: scan_steps:    0.0000000000000000       0.45128585800591509       0.90257171601183017     
 PAO|LS| adapt: energies:   -7.7786642365123013       -7.7787091721719408       -7.7786363471221325     
 PAO|LS| adapt: suggested step_size:   0.39784661060910870     
 PAO|LS| adapt: predicted energy  -7.7787099978060672     
 PAO| ======================= Iteration:        25 =============================

     Lanczos converged:  T threshold:   0.100E-02
     Est. extremal eigenvalues:    0.277E+01   0.189E+00
     Est. condition number :    0.147E+02
     NS sqrt iter    1 1.00000000   0.708E+00       0.001       64.512
     NS sqrt iter    2 1.00000000   0.329E+00       0.001      110.592
     NS sqrt iter    3 1.00000000   0.746E-01       0.001      110.592
     NS sqrt iter    4 1.00000000   0.172E-02       0.001      110.592
     NS sqrt iter    5 1.00000000   0.348E-07       0.001       65.792
     Final NS sqrt iter    5 1.00000000   0.620E-09

     Est. extremal eigenvalues     -0.92849     1.63962  converged:  T
     TRS4 it   1 1.00000000   0.858E+00       0.000       16.128   0.100E-07
     TRS4 it   2 1.00000000   0.601E+00       0.001       32.256   0.100E-07
     TRS4 it   3 1.00000000   0.406E+00       0.001       32.256   0.100E-07
     TRS4 it   4 1.00000000   0.205E+00       0.001       32.256   0.100E-07
     TRS4 it   5 1.00000000   0.669E-01       0.001       32.256   0.100E-07
     TRS4 it   6 1.00000000   0.955E-02       0.001       32.256   0.100E-07
     TRS4 it   7 1.00000000   0.281E-03       0.001       32.256   0.100E-07
     TRS4 it   8 1.00000000   0.320E-06       0.001       32.256   0.100E-07
     TRS4 it   9 1.00000000   0.455E-12       0.001       32.256   0.100E-07
     Final TRS4 iteration    9 1.00000000   0.455E-12
     Chemical potential (mu):      -0.00985
 
 PAO| energy:  -7.7787099790675613      penalty:   1.3542869070754060E-005
 PAO|CG| trace_G_new    9.4196254286188166E-005
 PAO|CG| trace_G_prev    2.2884496520795763E-004
 PAO|CG| trace_G_mix    6.1088832462713001E-007
 PAO|CG| trace_D    3.2692245821717660E-004
 PAO|CG| trace_D_Gnew  -3.4089147230974213E-007
 PAO|CG| beta:   0.40894658039130327     
 PAO| norm of gradient:   9.7054754796551904E-003
 PAO| energy improvement:  -4.5742555260019913E-005
 PAO| step     25                   -7.778709979  0.607E-03  0.398E+00     0.049
 PAO|LS| adapt:  T F F
 PAO|LS| adapt: scan_steps:    0.0000000000000000        0.0000000000000000        0.0000000000000000     
 PAO|LS| adapt: energies:   -7.7787099790675613        0.0000000000000000        0.0000000000000000     
 PAO| ======================= Iteration:        26 =============================

     Lanczos converged:  T threshold:   0.100E-02
     Est. extremal eigenvalues:    0.277E+01   0.189E+00
     Est. condition number :    0.147E+02
     NS sqrt iter    1 1.00000000   0.708E+00       0.001       64.512
     NS sqrt iter    2 1.00000000   0.329E+00       0.001      110.592
     NS sqrt iter    3 1.00000000   0.745E-01       0.001      110.592
     NS sqrt iter    4 1.00000000   0.172E-02       0.001      110.592
     NS sqrt iter    5 1.00000000   0.345E-07       0.001       65.792
     Final NS sqrt iter    5 1.00000000   0.617E-09

     Est. extremal eigenvalues     -0.92849     1.63958  converged:  T
     TRS4 it   1 1.00000000   0.858E+00       0.000       16.128   0.100E-07
     TRS4 it   2 1.00000000   0.601E+00       0.001       32.256   0.100E-07
     TRS4 it   3 1.00000000   0.406E+00       0.001       32.256   0.100E-07
     TRS4 it   4 1.00000000   0.205E+00       0.001       32.256   0.100E-07
     TRS4 it   5 1.00000000   0.669E-01       0.001       32.256   0.100E-07
     TRS4 it   6 1.00000000   0.957E-02       0.001       32.256   0.100E-07
     TRS4 it   7 1.00000000   0.282E-03       0.001       32.256   0.100E-07
     TRS4 it   8 1.00000000   0.321E-06       0.001       32.256   0.100E-07
     TRS4 it   9 1.00000000   0.460E-12       0.001       32.256   0.100E-07
     Final TRS4 iteration    9 1.00000000   0.460E-12
     Chemical potential (mu):      -0.00990
 
 PAO| energy:  -7.7787170453089933      penalty:   1.2872599847927206E-005
 PAO|LS| adapt:  T T F
 PAO|LS| adapt: scan_steps:    0.0000000000000000       0.39784661060910870        0.0000000000000000     
 PAO|LS| adapt: energies:   -7.7787099790675613       -7.7787170453089933        0.0000000000000000     
 PAO| ======================= Iteration:        27 =============================

     Lanczos converged:  T threshold:   0.100E-02
     Est. extremal eigenvalues:    0.277E+01   0.189E+00
     Est. condition number :    0.147E+02
     NS sqrt iter    1 1.00000000   0.707E+00       0.001       64.512
     NS sqrt iter    2 1.00000000   0.329E+00       0.001      110.592
     NS sqrt iter    3 1.00000000   0.744E-01       0.001      110.592
     NS sqrt iter    4 1.00000000   0.171E-02       0.001      110.592
     NS sqrt iter    5 1.00000000   0.343E-07       0.001       65.792
     Final NS sqrt iter    5 1.00000000   0.614E-09

     Est. extremal eigenvalues     -0.92849     1.63953  converged:  T
     TRS4 it   1 1.00000000   0.858E+00       0.000       16.128   0.100E-07
     TRS4 it   2 1.00000000   0.601E+00       0.001       32.256   0.100E-07
     TRS4 it   3 1.00000000   0.406E+00       0.001       32.256   0.100E-07
     TRS4 it   4 1.00000000   0.205E+00       0.001       32.256   0.100E-07
     TRS4 it   5 1.00000000   0.670E-01       0.001       32.256   0.100E-07
     TRS4 it   6 1.00000000   0.958E-02       0.001       32.256   0.100E-07
     TRS4 it   7 1.00000000   0.282E-03       0.001       32.256   0.100E-07
     TRS4 it   8 1.00000000   0.323E-06       0.001       32.256   0.100E-07
     TRS4 it   9 1.00000000   0.464E-12       0.001       32.256   0.100E-07
     Final TRS4 iteration    9 1.00000000   0.464E-12
     Chemical potential (mu):      -0.00994
 
 PAO| energy:  -7.7786630730407991      penalty:   1.2223467333527399E-005
 PAO|LS| adapt:  T T T
 PAO|LS| adapt: scan_steps:    0.0000000000000000       0.39784661060910870       0.79569322121821739     
 PAO|LS| adapt: energies:   -7.7787099790675613       -7.7787170453089933       -7.7786630730407991     
 PAO|LS| adapt: suggested step_size:   0.24498078968081766     
 PAO|LS| adapt: predicted energy  -7.7787215510205510     
 PAO| ======================= Iteration:        28 =============================

     Lanczos converged:  T threshold:   0.100E-02
     Est. extremal eigenvalues:    0.277E+01   0.189E+00
     Est. condition number :    0.147E+02
     NS sqrt iter    1 1.00000000   0.708E+00       0.001       64.512
     NS sqrt iter    2 1.00000000   0.329E+00       0.001      110.592
     NS sqrt iter    3 1.00000000   0.745E-01       0.001      110.592
     NS sqrt iter    4 1.00000000   0.172E-02       0.001      110.592
     NS sqrt iter    5 1.00000000   0.346E-07       0.001       65.792
     Final NS sqrt iter    5 1.00000000   0.618E-09

     Est. extremal eigenvalues     -0.92849     1.63959  converged:  T
     TRS4 it   1 1.00000000   0.858E+00       0.000       16.128   0.100E-07
     TRS4 it   2 1.00000000   0.601E+00       0.001       32.256   0.100E-07
     TRS4 it   3 1.00000000   0.406E+00       0.001       32.256   0.100E-07
     TRS4 it   4 1.00000000   0.205E+00       0.001       32.256   0.100E-07
     TRS4 it   5 1.00000000   0.669E-01       0.001       32.256   0.100E-07
     TRS4 it   6 1.00000000   0.956E-02       0.001       32.256   0.100E-07
     TRS4 it   7 1.00000000   0.281E-03       0.001       32.256   0.100E-07
     TRS4 it   8 1.00000000   0.321E-06       0.001       32.256   0.100E-07
     TRS4 it   9 1.00000000   0.458E-12       0.001       32.256   0.100E-07
     Final TRS4 iteration    9 1.00000000   0.458E-12
     Chemical potential (mu):      -0.00988
 
 PAO| energy:  -7.7787215421454636      penalty:   1.3127623424090897E-005
 PAO|CG| trace_G_new    2.4884567662734840E-005
 PAO|CG| trace_G_prev    9.4196254286188166E-005
 PAO|CG| trace_G_mix    7.4355000403566207E-008
 PAO|CG| trace_D    1.4914869814682073E-004
 PAO|CG| trace_D_Gnew  -3.8110793793962290E-008
 PAO|CG| beta:   0.26338852696788340     
 PAO| norm of gradient:   4.9884434107980860E-003
 PAO| energy improvement:  -1.1563077902287944E-005
 PAO| step     28                   -7.778721542  0.312E-03  0.245E+00     0.048
 PAO|LS| adapt:  T F F
 PAO|LS| adapt: scan_steps:    0.0000000000000000        0.0000000000000000        0.0000000000000000     
 PAO|LS| adapt: energies:   -7.7787215421454636        0.0000000000000000        0.0000000000000000     
 PAO| ======================= Iteration:        29 =============================

     Lanczos converged:  T threshold:   0.100E-02
     Est. extremal eigenvalues:    0.277E+01   0.189E+00
     Est. condition number :    0.147E+02
     NS sqrt iter    1 1.00000000   0.708E+00       0.001       64.512
     NS sqrt iter    2 1.00000000   0.329E+00       0.001      110.592
     NS sqrt iter    3 1.00000000   0.745E-01       0.001      110.592
     NS sqrt iter    4 1.00000000   0.172E-02       0.001      110.592
     NS sqrt iter    5 1.00000000   0.345E-07       0.001       65.792
     Final NS sqrt iter    5 1.00000000   0.616E-09

     Est. extremal eigenvalues     -0.92850     1.63948  converged:  T
     TRS4 it   1 1.00000000   0.858E+00       0.000       16.128   0.100E-07
     TRS4 it   2 1.00000000   0.601E+00       0.001       32.256   0.100E-07
     TRS4 it   3 1.00000000   0.406E+00       0.001       32.256   0.100E-07
     TRS4 it   4 1.00000000   0.205E+00       0.001       32.256   0.100E-07
     TRS4 it   5 1.00000000   0.669E-01       0.001       32.256   0.100E-07
     TRS4 it   6 1.00000000   0.955E-02       0.001       32.256   0.100E-07
     TRS4 it   7 1.00000000   0.281E-03       0.001       32.256   0.100E-07
     TRS4 it   8 1.00000000   0.319E-06       0.001       32.256   0.100E-07
     TRS4 it   9 1.00000000   0.454E-12       0.001       32.256   0.100E-07
     Final TRS4 iteration    9 1.00000000   0.454E-12
     Chemical potential (mu):      -0.00985
 
 PAO| energy:  -7.7787267619235987      penalty:   1.2760072557554811E-005
 PAO|LS| adapt:  T T F
 PAO|LS| adapt: scan_steps:    0.0000000000000000       0.24498078968081766        0.0000000000000000     
 PAO|LS| adapt: energies:   -7.7787215421454636       -7.7787267619235987        0.0000000000000000     
 PAO| ======================= Iteration:        30 =============================

     Lanczos converged:  T threshold:   0.100E-02
     Est. extremal eigenvalues:    0.277E+01   0.189E+00
     Est. condition number :    0.147E+02
     NS sqrt iter    1 1.00000000   0.707E+00       0.001       64.512
     NS sqrt iter    2 1.00000000   0.329E+00       0.001      110.592
     NS sqrt iter    3 1.00000000   0.744E-01       0.001      110.592
     NS sqrt iter    4 1.00000000   0.171E-02       0.001      110.592
     NS sqrt iter    5 1.00000000   0.343E-07       0.001       65.792
     Final NS sqrt iter    5 1.00000000   0.613E-09

     Est. extremal eigenvalues     -0.92850     1.63936  converged:  T
     TRS4 it   1 1.00000000   0.858E+00       0.000       16.128   0.100E-07
     TRS4 it   2 1.00000000   0.601E+00       0.001       32.256   0.100E-07
     TRS4 it   3 1.00000000   0.406E+00       0.001       32.256   0.100E-07
     TRS4 it   4 1.00000000   0.205E+00       0.001       32.256   0.100E-07
     TRS4 it   5 1.00000000   0.668E-01       0.001       32.256   0.100E-07
     TRS4 it   6 1.00000000   0.954E-02       0.001       32.256   0.100E-07
     TRS4 it   7 1.00000000   0.280E-03       0.001       32.256   0.100E-07
     TRS4 it   8 1.00000000   0.318E-06       0.001       32.256   0.100E-07
     TRS4 it   9 1.00000000   0.450E-12       0.001       32.256   0.100E-07
     Final TRS4 iteration    9 1.00000000   0.450E-12
     Chemical potential (mu):      -0.00983
 
 PAO| energy:  -7.7787302238294771      penalty:   1.2398222817404580E-005
 PAO|LS| adapt:  T T F
 PAO|LS| adapt: scan_steps:    0.0000000000000000       0.48996157936163531        0.0000000000000000     
 PAO|LS| adapt: energies:   -7.7787215421454636       -7.7787302238294771        0.0000000000000000     
 PAO| ======================= Iteration:        31 =============================

     Lanczos converged:  T threshold:   0.100E-02
     Est. extremal eigenvalues:    0.277E+01   0.189E+00
     Est. condition number :    0.147E+02
     NS sqrt iter    1 1.00000000   0.707E+00       0.001       64.512
     NS sqrt iter    2 1.00000000   0.329E+00       0.001      110.592
     NS sqrt iter    3 1.00000000   0.743E-01       0.001      110.592
     NS sqrt iter    4 1.00000000   0.171E-02       0.001      110.592
     NS sqrt iter    5 1.00000000   0.341E-07       0.001       65.792
     Final NS sqrt iter    5 1.00000000   0.608E-09

     Est. extremal eigenvalues     -0.92850     1.63912  converged:  T
     TRS4 it   1 1.00000000   0.858E+00       0.000       16.128   0.100E-07
     TRS4 it   2 1.00000000   0.601E+00       0.001       32.256   0.100E-07
     TRS4 it   3 1.00000000   0.406E+00       0.001       32.256   0.100E-07
     TRS4 it   4 1.00000000   0.205E+00       0.001       32.256   0.100E-07
     TRS4 it   5 1.00000000   0.667E-01       0.001       32.256   0.100E-07
     TRS4 it   6 1.00000000   0.951E-02       0.001       32.256   0.100E-07
     TRS4 it   7 1.00000000   0.279E-03       0.001       32.256   0.100E-07
     TRS4 it   8 1.00000000   0.315E-06       0.001       32.256   0.100E-07
     TRS4 it   9 1.00000000   0.441E-12       0.001       32.256   0.100E-07
     Final TRS4 iteration    9 1.00000000   0.441E-12
     Chemical potential (mu):      -0.00978
 
 PAO| energy:  -7.7787318738331699      penalty:   1.1691544362487603E-005
 PAO|LS| Need extra step
 PAO|LS| adapt:  T T F
 PAO|LS| adapt: scan_steps:    0.0000000000000000       0.97992315872327063        0.0000000000000000     
 PAO|LS| adapt: energies:   -7.7787215421454636       -7.7787318738331699        0.0000000000000000     
 PAO| ======================= Iteration:        32 =============================

     Lanczos converged:  T threshold:   0.100E-02
     Est. extremal eigenvalues:    0.277E+01   0.189E+00
     Est. condition number :    0.147E+02
     NS sqrt iter    1 1.00000000   0.706E+00       0.001       64.512
     NS sqrt iter    2 1.00000000   0.328E+00       0.001      110.592
     NS sqrt iter    3 1.00000000   0.740E-01       0.001      110.592
     NS sqrt iter    4 1.00000000   0.169E-02       0.001      110.592
     NS sqrt iter    5 1.00000000   0.336E-07       0.001       65.792
     Final NS sqrt iter    5 1.00000000   0.598E-09

     Est. extremal eigenvalues     -0.92851     1.63863  converged:  T
     TRS4 it   1 1.00000000   0.858E+00       0.000       16.128   0.100E-07
     TRS4 it   2 1.00000000   0.600E+00       0.001       32.256   0.100E-07
     TRS4 it   3 1.00000000   0.405E+00       0.001       32.256   0.100E-07
     TRS4 it   4 1.00000000   0.204E+00       0.001       32.256   0.100E-07
     TRS4 it   5 1.00000000   0.665E-01       0.001       32.256   0.100E-07
     TRS4 it   6 1.00000000   0.947E-02       0.001       32.256   0.100E-07
     TRS4 it   7 1.00000000   0.276E-03       0.001       32.256   0.100E-07
     TRS4 it   8 1.00000000   0.309E-06       0.001       32.256   0.100E-07
     TRS4 it   9 1.00000000   0.426E-12       0.001       32.256   0.100E-07
     Final TRS4 iteration    9 1.00000000   0.426E-12
     Chemical potential (mu):      -0.00968
 
 PAO| energy:  -7.7787140758506581      penalty:   1.0345699310161761E-005
 PAO|LS| Need extra step
 PAO|LS| adapt:  T T T
 PAO|LS| adapt: scan_steps:    0.0000000000000000       0.97992315872327063        1.9598463174465413     
 PAO|LS| adapt: energies:   -7.7787215421454636       -7.7787318738331699       -7.7787140758506581     
 PAO|LS| adapt: suggested step_size:   0.84987550560329039     
 PAO|LS| adapt: predicted energy  -7.7787321215500711     
 PAO| ======================= Iteration:        33 =============================

     Lanczos converged:  T threshold:   0.100E-02
     Est. extremal eigenvalues:    0.277E+01   0.189E+00
     Est. condition number :    0.147E+02
     NS sqrt iter    1 1.00000000   0.707E+00       0.001       64.512
     NS sqrt iter    2 1.00000000   0.329E+00       0.001      110.592
     NS sqrt iter    3 1.00000000   0.743E-01       0.001      110.592
     NS sqrt iter    4 1.00000000   0.171E-02       0.001      110.592
     NS sqrt iter    5 1.00000000   0.342E-07       0.001       65.792
     Final NS sqrt iter    5 1.00000000   0.609E-09

     Est. extremal eigenvalues     -0.92850     1.63918  converged:  T
     TRS4 it   1 1.00000000   0.858E+00       0.000       16.128   0.100E-07
     TRS4 it   2 1.00000000   0.601E+00       0.001       32.256   0.100E-07
     TRS4 it   3 1.00000000   0.406E+00       0.001       32.256   0.100E-07
     TRS4 it   4 1.00000000   0.205E+00       0.001       32.256   0.100E-07
     TRS4 it   5 1.00000000   0.668E-01       0.001       32.256   0.100E-07
     TRS4 it   6 1.00000000   0.952E-02       0.001       32.256   0.100E-07
     TRS4 it   7 1.00000000   0.279E-03       0.001       32.256   0.100E-07
     TRS4 it   8 1.00000000   0.316E-06       0.001       32.256   0.100E-07
     TRS4 it   9 1.00000000   0.444E-12       0.001       32.256   0.100E-07
     Final TRS4 iteration    9 1.00000000   0.444E-12
     Chemical potential (mu):      -0.00979
 
 PAO| energy:  -7.7787321214089866      penalty:   1.1876908062155035E-005
 PAO|CG| trace_G_new    6.6207517746752966E-005
[...]
     Est. condition number :    0.136E+02
     NS sqrt iter    1 1.00000000   0.627E+00       0.001       64.512
     NS sqrt iter    2 1.00000000   0.270E+00       0.001      110.592
     NS sqrt iter    3 1.00000000   0.489E-01       0.001      110.592
     NS sqrt iter    4 1.00000000   0.906E-03       0.001      110.592
     NS sqrt iter    5 1.00000000   0.100E-07       0.001       38.784
     Final NS sqrt iter    5 1.00000000   0.308E-08

     Est. extremal eigenvalues     -0.92832     1.70648  converged:  T
     TRS4 it   1 1.00000000   0.910E+00       0.000       16.128   0.100E-07
     TRS4 it   2 1.00000000   0.659E+00       0.001       32.256   0.100E-07
     TRS4 it   3 1.00000000   0.472E+00       0.001       32.256   0.100E-07
     TRS4 it   4 1.00000000   0.294E+00       0.001       32.256   0.100E-07
     TRS4 it   5 1.00000000   0.152E+00       0.001       32.256   0.100E-07
     TRS4 it   6 1.00000000   0.534E-01       0.001       32.256   0.100E-07
     TRS4 it   7 1.00000000   0.936E-02       0.001       32.256   0.100E-07
     TRS4 it   8 1.00000000   0.368E-03       0.001       32.256   0.100E-07
     TRS4 it   9 1.00000000   0.597E-06       0.001       32.256   0.100E-07
     TRS4 it  10 1.00000000   0.160E-11       0.001       32.256   0.100E-07
     Final TRS4 iteration   10 1.00000000   0.160E-11
     Chemical potential (mu):      -0.08550
 
 PAO| energy:  -7.7789687613748946      penalty:   2.2382205672288604E-011
 PAO|LS| Need extra step
 PAO|LS| adapt:  T T T
 PAO|LS| adapt: scan_steps:    0.0000000000000000       0.20000000000000001       0.40000000000000002     
 PAO|LS| adapt: energies:   -7.7789687613667828       -7.7789687613762739       -7.7789687613748946     
 PAO|LS| adapt: suggested step_size:   0.27462210964948125     
 PAO|LS| adapt: predicted energy  -7.7789687613770298     
 PAO| ======================= Iteration:       969 =============================

     Lanczos converged:  T threshold:   0.100E-02
     Est. extremal eigenvalues:    0.248E+01   0.182E+00
     Est. condition number :    0.136E+02
     NS sqrt iter    1 1.00000000   0.627E+00       0.001       64.512
     NS sqrt iter    2 1.00000000   0.270E+00       0.001      110.592
     NS sqrt iter    3 1.00000000   0.489E-01       0.001      110.592
     NS sqrt iter    4 1.00000000   0.906E-03       0.001      110.592
     NS sqrt iter    5 1.00000000   0.100E-07       0.001       38.784
     Final NS sqrt iter    5 1.00000000   0.308E-08

     Est. extremal eigenvalues     -0.92832     1.70648  converged:  T
     TRS4 it   1 1.00000000   0.910E+00       0.000       16.128   0.100E-07
     TRS4 it   2 1.00000000   0.659E+00       0.001       32.256   0.100E-07
     TRS4 it   3 1.00000000   0.472E+00       0.001       32.256   0.100E-07
     TRS4 it   4 1.00000000   0.294E+00       0.001       32.256   0.100E-07
     TRS4 it   5 1.00000000   0.152E+00       0.001       32.256   0.100E-07
     TRS4 it   6 1.00000000   0.534E-01       0.001       32.256   0.100E-07
     TRS4 it   7 1.00000000   0.936E-02       0.001       32.256   0.100E-07
     TRS4 it   8 1.00000000   0.368E-03       0.001       32.256   0.100E-07
     TRS4 it   9 1.00000000   0.597E-06       0.001       32.256   0.100E-07
     TRS4 it  10 1.00000000   0.160E-11       0.001       32.256   0.100E-07
     Final TRS4 iteration   10 1.00000000   0.160E-11
     Chemical potential (mu):      -0.08550
 
 PAO| energy:  -7.7789687613770342      penalty:   2.2525197145246510E-011
 PAO|CG| warming up with steepest descent
 PAO|CG| beta:    0.0000000000000000     
 PAO| norm of gradient:   7.3414254517228679E-006
 PAO| energy improvement:  -1.0251355320178845E-011
 PAO| step    969                   -7.778968761  0.459E-06  0.275E+00     0.066
 PAO| converged after          969  steps :-)
 PAO| Recalculating energy after mixing.

     Lanczos converged:  T threshold:   0.100E-02
     Est. extremal eigenvalues:    0.248E+01   0.182E+00
     Est. condition number :    0.136E+02
     NS sqrt iter    1 1.00000000   0.627E+00       0.001       64.512
     NS sqrt iter    2 1.00000000   0.270E+00       0.001      110.592
     NS sqrt iter    3 1.00000000   0.489E-01       0.001      110.592
     NS sqrt iter    4 1.00000000   0.906E-03       0.001      110.592
     NS sqrt iter    5 1.00000000   0.100E-07       0.001       38.784
     Final NS sqrt iter    5 1.00000000   0.308E-08

     Est. extremal eigenvalues     -0.92832     1.70648  converged:  T
     TRS4 it   1 1.00000000   0.910E+00       0.000       16.128   0.100E-07
     TRS4 it   2 1.00000000   0.659E+00       0.001       32.256   0.100E-07
     TRS4 it   3 1.00000000   0.472E+00       0.001       32.256   0.100E-07
     TRS4 it   4 1.00000000   0.294E+00       0.001       32.256   0.100E-07
     TRS4 it   5 1.00000000   0.152E+00       0.001       32.256   0.100E-07
     TRS4 it   6 1.00000000   0.534E-01       0.001       32.256   0.100E-07
     TRS4 it   7 1.00000000   0.936E-02       0.001       32.256   0.100E-07
     TRS4 it   8 1.00000000   0.368E-03       0.001       32.256   0.100E-07
     TRS4 it   9 1.00000000   0.597E-06       0.001       32.256   0.100E-07
     TRS4 it  10 1.00000000   0.160E-11       0.001       32.256   0.100E-07
     Final TRS4 iteration   10 1.00000000   0.160E-11
     Chemical potential (mu):      -0.08550
 
 PAO| energy:  -7.7789687613744691      penalty:   2.2682550325633298E-011
 PAO| Writing restart file.
     Est. extremal eigenvalues     -0.92832     1.70648  converged:  T
     TRS4 it   1 1.00000000   0.910E+00       0.000       16.128   0.100E-07
     TRS4 it   2 1.00000000   0.659E+00       0.001       32.256   0.100E-07
     TRS4 it   3 1.00000000   0.472E+00       0.001       32.256   0.100E-07
     TRS4 it   4 1.00000000   0.294E+00       0.001       32.256   0.100E-07
     TRS4 it   5 1.00000000   0.152E+00       0.001       32.256   0.100E-07
     TRS4 it   6 1.00000000   0.534E-01       0.001       32.256   0.100E-07
     TRS4 it   7 1.00000000   0.936E-02       0.001       32.256   0.100E-07
     TRS4 it   8 1.00000000   0.368E-03       0.001       32.256   0.100E-07
     TRS4 it   9 1.00000000   0.597E-06       0.001       32.256   0.100E-07
     TRS4 it  10 1.00000000   0.160E-11       0.001       32.256   0.100E-07
     Final TRS4 iteration   10 1.00000000   0.160E-11
     Chemical potential (mu):      -0.08550

 SCF     1       -34.445364062       -34.445364062    1.888616

*********************************************************
 Using MIXING_FRACTION=0.450 to mix KS matrix:  iscf=  2
 KS_nw=0.450*KS + 0.550*KS_old
*********************************************************
     Est. extremal eigenvalues     -0.92832     1.70648  converged:  T
     TRS4 it   1 1.00000000   0.910E+00       0.000       16.128   0.100E-07
     TRS4 it   2 1.00000000   0.659E+00       0.001       32.256   0.100E-07
     TRS4 it   3 1.00000000   0.472E+00       0.001       32.256   0.100E-07
     TRS4 it   4 1.00000000   0.294E+00       0.001       32.256   0.100E-07
     TRS4 it   5 1.00000000   0.152E+00       0.001       32.256   0.100E-07
     TRS4 it   6 1.00000000   0.534E-01       0.001       32.256   0.100E-07
     TRS4 it   7 1.00000000   0.936E-02       0.001       32.256   0.100E-07
     TRS4 it   8 1.00000000   0.368E-03       0.001       32.256   0.100E-07
     TRS4 it   9 1.00000000   0.597E-06       0.001       32.256   0.100E-07
     TRS4 it  10 1.00000000   0.160E-11       0.001       32.256   0.100E-07
     Final TRS4 iteration   10 1.00000000   0.160E-11
     Chemical potential (mu):      -0.08550

 SCF     2       -34.445364062        -0.000000000    1.889647

 PAO| Storing density matrix for ASPC guess in slot:           1

 ENERGY| Total FORCE_EVAL ( QS ) energy (a.u.):              -34.445364062431032


 -------------------------------------------------------------------------------
 -                                                                             -
 -                                DBCSR STATISTICS                             -
 -                                                                             -
 -------------------------------------------------------------------------------
 COUNTER                                    TOTAL       BLAS       SMM       ACC
 flops     5 x     5 x     4                36000       0.0%    100.0%      0.0%
 flops    13 x     5 x     4                37440       0.0%    100.0%      0.0%
 flops     5 x    13 x     4                37440       0.0%    100.0%      0.0%
 flops    13 x    13 x     4                73008       0.0%    100.0%      0.0%
 flops     4 x     4 x     5              7591680       0.0%    100.0%      0.0%
 flops     5 x     4 x     5              9273600       0.0%    100.0%      0.0%
 flops     4 x     4 x    13              9869184       0.0%    100.0%      0.0%
 flops    13 x     4 x     5             12055680       0.0%    100.0%      0.0%
 flops     5 x     4 x    13             12055680       0.0%    100.0%      0.0%
 flops     5 x     4 x     4             14726240       0.0%    100.0%      0.0%
 flops    13 x     4 x    13             15672384       0.0%    100.0%      0.0%
 flops    13 x     4 x     4             19726304       0.0%    100.0%      0.0%
 flops     4 x     4 x     4            992758400       0.0%    100.0%      0.0%
 flops inhomo. stacks                           0       0.0%      0.0%      0.0%
 flops total                         1.093913E+09       0.0%    100.0%      0.0%
 flops max/rank                      1.093913E+09       0.0%    100.0%      0.0%
 matmuls inhomo. stacks                         0       0.0%      0.0%      0.0%
 matmuls total                            8071261       0.0%    100.0%      0.0%
 number of processed stacks                 64692       0.0%    100.0%      0.0%
 average stack size                                     0.0     124.8       0.0
 marketing flops                     1.784068E+09
 -------------------------------------------------------------------------------
 # multiplications                          54056
 max memory usage/rank             320.929792E+06
 # max total images/rank                        1
 # max 3D layers                                1
 # MPI messages exchanged                       0
 MPI messages size (bytes):
  total size                         0.000000E+00
  min size                           0.000000E+00
  max size                           0.000000E+00
  average size                       0.000000E+00
 MPI breakdown and total messages size (bytes):
             size <=      128                   0                        0
       128 < size <=     8192                   0                        0
      8192 < size <=    32768                   0                        0
     32768 < size <=   131072                   0                        0
    131072 < size <=  4194304                   0                        0
   4194304 < size <= 16777216                   0                        0
  16777216 < size                               0                        0
 -------------------------------------------------------------------------------

 MEMORY| Estimated peak process memory [MiB]                                 307

 -------------------------------------------------------------------------------
 -                                                                             -
 -                           R E F E R E N C E S                               -
 -                                                                             -
 -------------------------------------------------------------------------------
 
 CP2K version 7.0 (Development Version), the CP2K developers group (2018).
 CP2K is freely available from https://www.cp2k.org/ .

 Schuett, O; VandeVondele, J. 
 Journal of Chemical Theory and Computation, 14, (2018). 
 Machine Learning Adaptive Basis Sets for Efficient Large Scale Density Functional Theory Simulation.
 https://dx.doi.org/10.1021/acs.jctc.8b00378


 Schuett, Ole; Messmer, Peter; Hutter, Juerg; VandeVondele, Joost. 
 Electronic Structure Calculations on Graphics Processing Units, John Wiley & Sons, Ltd, 173-190 (2016). 
 GPU-Accelerated Sparse Matrix-Matrix Multiplication for Linear Scaling Density Functional Theory.
 https://dx.doi.org/10.1002/9781118670712.ch8


 Borstnik, U; VandeVondele, J; Weber, V; Hutter, J. 
 PARALLEL COMPUTING, 40 (5-6), 47-58 (2014). 
 Sparse matrix multiplication: The distributed block-compressed sparse
 row library.
 https://dx.doi.org/10.1016/j.parco.2014.03.012


 Hutter, J; Iannuzzi, M; Schiffmann, F; VandeVondele, J. 
 WILEY INTERDISCIPLINARY REVIEWS-COMPUTATIONAL MOLECULAR SCIENCE, 4 (1), 15-25 (2014). 
 CP2K: atomistic simulations of condensed matter systems.
 https://dx.doi.org/10.1002/wcms.1159


 VandeVondele, J; Borstnik, U; Hutter, J. 
 JOURNAL OF CHEMICAL THEORY AND COMPUTATION, 8 (10), 3565-3573 (2012). 
 Linear Scaling Self-Consistent Field Calculations with Millions of Atoms
 in the Condensed Phase.
 https://dx.doi.org/10.1021/ct200897x


 VandeVondele, J; Hutter, J. 
 JOURNAL OF CHEMICAL PHYSICS, 127 (11), 114105 (2007). 
 Gaussian basis sets for accurate calculations on molecular systems in
 gas and condensed phases.
 https://dx.doi.org/10.1063/1.2770708


 Krack, M. 
 THEORETICAL CHEMISTRY ACCOUNTS, 114 (1-3), 145-152 (2005). 
 Pseudopotentials for H to Kr optimized for gradient-corrected
 exchange-correlation functionals.
 https://dx.doi.org/10.1007/s00214-005-0655-y


 VandeVondele, J; Krack, M; Mohamed, F; Parrinello, M; Chassaing, T;
 Hutter, J. COMPUTER PHYSICS COMMUNICATIONS, 167 (2), 103-128 (2005). 
 QUICKSTEP: Fast and accurate density functional calculations using a
 mixed Gaussian and plane waves approach.
 https://dx.doi.org/10.1016/j.cpc.2004.12.014


 Frigo, M; Johnson, SG. 
 PROCEEDINGS OF THE IEEE, 93 (2), 216-231 (2005). 
 The design and implementation of FFTW3.
 https://dx.doi.org/10.1109/JPROC.2004.840301


 Niklasson, AMN; Tymczak, CJ; Challacombe, M. 
 JOURNAL OF CHEMICAL PHYSICS, 118 (19), 8611-8620 (2003). 
 Trace resetting density matrix purification in O(N)
 self-consistent-field theory.
 https://dx.doi.org/10.1063/1.1559913


 Hartwigsen, C; Goedecker, S; Hutter, J. 
 PHYSICAL REVIEW B, 58 (7), 3641-3662 (1998). 
 Relativistic separable dual-space Gaussian pseudopotentials from H to Rn.
 https://dx.doi.org/10.1103/PhysRevB.58.3641


 Lippert, G; Hutter, J; Parrinello, M. 
 MOLECULAR PHYSICS, 92 (3), 477-487 (1997). 
 A hybrid Gaussian and plane wave density functional scheme.
 https://dx.doi.org/10.1080/002689797170220


 Perdew, JP; Burke, K; Ernzerhof, M. 
 PHYSICAL REVIEW LETTERS, 77 (18), 3865-3868 (1996). 
 Generalized gradient approximation made simple.
 https://dx.doi.org/10.1103/PhysRevLett.77.3865


 Goedecker, S; Teter, M; Hutter, J. 
 PHYSICAL REVIEW B, 54 (3), 1703-1710 (1996). 
 Separable dual-space Gaussian pseudopotentials.
 https://dx.doi.org/10.1103/PhysRevB.54.1703


 -------------------------------------------------------------------------------
 -                                                                             -
 -                                T I M I N G                                  -
 -                                                                             -
 -------------------------------------------------------------------------------
 SUBROUTINE                       CALLS  ASD         SELF TIME        TOTAL TIME
                                MAXIMUM       AVERAGE  MAXIMUM  AVERAGE  MAXIMUM
 CP2K                                 1  1.0    0.029    0.029   51.427   51.427
 qs_energies                          1  2.0    0.000    0.000   51.051   51.051
 ls_scf                               1  3.0    0.000    0.000   50.944   50.944
 ls_scf_main                          8  4.0    0.001    0.001   32.341   32.341
 ls_scf_dm_to_ks                     17  5.0    0.000    0.000   32.195   32.195
 qs_ks_update_qs_env                 18  6.0    0.000    0.000   24.125   24.125
 rebuild_ks_matrix                   18  7.0    0.000    0.000   24.124   24.124
 qs_ks_build_kohn_sham_matrix        18  8.0    0.002    0.002   24.124   24.124
 pao_update                           8  4.0    0.021    0.021   16.556   16.556
 pao_calc_energy                    976  5.0    0.008    0.008   15.018   15.018
 qs_vxc_create                       18  9.0    0.000    0.000   13.689   13.689
 xc_vxc_pw_create                    18 10.0    0.224    0.224   13.689   13.689
 dbcsr_multiply_generic           54056  8.4    0.943    0.943   12.173   12.173
 qs_rho_update_rho                   18  6.0    0.000    0.000   10.028   10.028
 calculate_rho_elec                  18  7.0    8.168    8.168   10.028   10.028
 xc_rho_set_and_dset_create          18 11.0    0.082    0.082   10.016   10.016
 sum_up_and_integrate                18  9.0    0.040    0.040    8.966    8.966
 integrate_v_rspace                  18 10.0    7.927    7.927    8.927    8.927
 pw_transfer                        343 10.6    0.022    0.022    8.608    8.608
 fft_wrap_pw1pw2                    307 11.7    0.003    0.003    8.421    8.421
 fft_wrap_pw1pw2_200                199 12.8    0.687    0.687    8.066    8.066
 pao_dm_trs4                        976  6.0    0.006    0.006    8.058    8.058
 density_matrix_trs4                993  7.0    0.436    0.436    7.736    7.736
 ls_scf_init_matrix_S               984  7.0    0.006    0.006    6.932    6.932
 xc_functional_eval                  18 12.0    0.000    0.000    6.905    6.905
 pbe_lda_eval                        18 13.0    6.905    6.905    6.905    6.905
 pao_rebuild_S                      976  6.0    0.005    0.005    6.878    6.878
 matrix_sqrt_Newton_Schulz          984  8.0    0.263    0.263    6.224    6.224
 fft3d_s                            308 13.7    4.700    4.700    4.712    4.712
 multiply_cannon                  54056  9.4    2.108    2.108    4.676    4.676
 make_m2s                        108112  9.4    0.324    0.324    4.499    4.499
 make_images                     108112 10.4    1.187    1.187    3.997    3.997
 pao_guess_initial_P                  1  4.0    0.000    0.000    1.966    1.966
 pao_read_preopt_dm                   1  5.0    0.000    0.000    1.966    1.966
 arnoldi_extremal                  1977  8.5    0.009    0.009    1.938    1.938
 arnoldi_normal_ev                 1977  9.5    0.022    0.022    1.929    1.929
 density_rs2pw                       18  8.0    0.001    0.001    1.829    1.829
 pw_scatter_s                       162 14.2    1.570    1.570    1.570    1.570
 pao_calc_AB                       1284  5.8    0.001    0.001    1.504    1.504
 pao_calc_AB_direct                1284  6.8    0.049    0.049    1.502    1.502
 build_subspace                    1977 10.5    0.118    0.118    1.430    1.430
 pw_gather_s                        145 13.1    1.421    1.421    1.421    1.421
 pao_calc_grad_lnv_wrt_AB           307  7.0    0.015    0.015    1.397    1.397
 dbcsr_create_new                413210 10.7    0.730    0.730    1.295    1.295
 dbcsr_finalize                  129694  9.6    0.242    0.242    1.289    1.289
 dbcsr_matrix_vector_mult         47444 11.5    0.233    0.233    1.261    1.261
 -------------------------------------------------------------------------------

 The number of warnings for this run is : 0
 
 -------------------------------------------------------------------------------
  **** **** ******  **  PROGRAM ENDED AT                 2019-02-14 11:21:22.314
 ***** ** ***  *** **   PROGRAM RAN ON                                      otto
 **    ****   ******    PROGRAM RAN BY                                       ole
 ***** **    ** ** **   PROGRAM PROCESS ID                                  8039
  **** **  *******  **  PROGRAM STOPPED IN /home/ole/git/pao_ml_equivar/2H2O_MD/
                                           frame_1950
