 DBCSR| CPU Multiplication driver                                           XSMM (U)
 DBCSR| Multrec recursion limit                                              512 (U)
 DBCSR| Multiplication stack size                                           1000 (D)
 DBCSR| Maximum elements for images                                    UNLIMITED (U)
 DBCSR| Multiplicative factor virtual images                                   1 (U)
 DBCSR| Use multiplication densification                                       T (D)
 DBCSR| Multiplication size stacks                                             3 (U)
 DBCSR| Use memory pool for CPU allocation                                     F (U)
 DBCSR| OMP: Current number of threads                                         1
 DBCSR| OMP: Max number of threads                                             1
 DBCSR| Split modifier for TAS multiplication algorithm                  1.0E+00 (U)


  **** **** ******  **  PROGRAM STARTED AT               2023-01-22 17:34:12.439
 ***** ** ***  *** **   PROGRAM STARTED ON                                moritz
 **    ****   ******    PROGRAM STARTED BY                                   ole
 ***** **    ** ** **   PROGRAM PROCESS ID                                116874
  **** **  *******  **  PROGRAM STARTED IN /home/ole/git/pao_ml_equivar/2H2O_MD/
                                           frame_1950

 CP2K| version string:                 CP2K version 2023.1 (Development Version)
 CP2K| source code revision number:                                  git:cb52c7f
 CP2K| cp2kflags: omp libint fftw3 libxc quip xsmm spglib libvori libbqb libtorc
 CP2K|            h
 CP2K| is freely available from                            https://www.cp2k.org/
 CP2K| Program compiled at                           Mi 18 Jan 2023 11:14:10 CET
 CP2K| Program compiled on                                                moritz
 CP2K| Program compiled for                                                local
 CP2K| Data directory path                               /home/ole/git/cp2k/data
 CP2K| Input file name                                              2H2O_ref.inp

 GLOBAL| Force Environment number                                              1
 GLOBAL| Basis set file name                                        BASIS_MOLOPT
 GLOBAL| Potential file name                                      GTH_POTENTIALS
 GLOBAL| MM Potential file name                                     MM_POTENTIAL
 GLOBAL| Coordinate file name                                         coords.xyz
 GLOBAL| Method name                                                        CP2K
 GLOBAL| Project name                                                   2H2O_ref
 GLOBAL| Run type                                                         ENERGY
 GLOBAL| FFT library                                                       FFTW3
 GLOBAL| Diagonalization library                                       ScaLAPACK
 GLOBAL| DGEMM library                                                      BLAS
 GLOBAL| Orthonormality check for eigenvectors                          DISABLED
 GLOBAL| Matrix multiplication library                                 ScaLAPACK
 GLOBAL| All-to-all communication in single precision                          F
 GLOBAL| FFTs using library dependent lengths                                  F
 GLOBAL| Grid backend                                                       AUTO
 GLOBAL| Global print level                                                  LOW
 GLOBAL| MPI I/O enabled                                                       T
 GLOBAL| Total number of message passing processes                             1
 GLOBAL| Number of threads for this process                                    1
 GLOBAL| This output is from process                                           0
 GLOBAL| Stack size for threads created by OpenMP (OMP_STACKSIZE)        default
 GLOBAL| CPU model name           AMD Ryzen Threadripper 3970X 32-Core Processor
 GLOBAL| CPUID                                                              1002
 GLOBAL| Compiled for CPUID                                                    0

 *** HINT in environment.F:884 :: The compiler target flags (generic) used ***
 *** to build this binary cannot exploit all extensions of this CPU model  ***
 *** (x86_avx2). Consider compiler target flags as part of FCFLAGS and     ***
 *** CFLAGS (ARCH file).                                                   ***


 MEMORY| system memory details [Kb]
 MEMORY|                        rank 0           min           max       average
 MEMORY| MemTotal            131773860     131773860     131773860     131773860
 MEMORY| MemFree             112637988     112637988     112637988     112637988
 MEMORY| Buffers                437868        437868        437868        437868
 MEMORY| Cached                6651724       6651724       6651724       6651724
 MEMORY| Slab                   840084        840084        840084        840084
 MEMORY| SReclaimable           381664        381664        381664        381664
 MEMORY| MemLikelyFree       120109244     120109244     120109244     120109244


 GENERATE|  Preliminary Number of Bonds generated:                             0
 GENERATE|  Achieved consistency in connectivity generation.

 *******************************************************************************
 *******************************************************************************
 **                                                                           **
 **     #####                         ##              ##                      **
 **    ##   ##            ##          ##              ##                      **
 **   ##     ##                       ##            ######                    **
 **   ##     ##  ##   ##  ##   #####  ##  ##   ####   ##    #####    #####    **
 **   ##     ##  ##   ##  ##  ##      ## ##   ##      ##   ##   ##  ##   ##   **
 **   ##  ## ##  ##   ##  ##  ##      ####     ###    ##   ######   ######    **
 **    ##  ###   ##   ##  ##  ##      ## ##      ##   ##   ##       ##        **
 **     #######   #####   ##   #####  ##  ##  ####    ##    #####   ##        **
 **           ##                                                    ##        **
 **                                                                           **
 **                                                ... make the atoms dance   **
 **                                                                           **
 **            Copyright (C) by CP2K developers group (2000-2023)             **
 **                      J. Chem. Phys. 152, 194103 (2020)                    **
 **                                                                           **
 *******************************************************************************


 TOTAL NUMBERS AND MAXIMUM NUMBERS

  Total number of            - Atomic kinds:                                   2
                             - Atoms:                                          6
                             - Shell sets:                                     6
                             - Shells:                                        22
                             - Primitive Cartesian functions:                 42
                             - Cartesian basis functions:                     48
                             - Spherical basis functions:                     46

  Maximum angular momentum of- Orbital basis functions:                        2
                             - Local part of the GTH pseudopotential:          2
                             - Non-local part of the GTH pseudopotential:      0

 ------------------------------ Linear scaling SCF -----------------------------
 eps_scf:                                                              0.100E-07
 eps_filter:                                                           0.100E-07
 mixing_fraction:                                                      0.450E+00
 max_scf:                                                                     25
 fixed chemical potential (mu)                                                 F
 has unit metric:                                                              F
 Computing inv(S):                                                             T
 Computing sqrt(S):                                                            T
 Computing S preconditioner                                                    F
 S sqrt method:                                                     NEWTONSCHULZ
 S sqrt order:                                                                 3
 Extrapolation order:                                                          4
 Use single precision matrices                                                 F
 S preconditioner type                                                      NONE
 Polarized Atomic Orbitals (PAO)                                               F
 Purification method                                   Trace resetting 4th order
 Cluster type                                                             ATOMIC
 Computing Chebyshev                                                       FALSE
 Using PAO                                                                     F
 -------------------------------------------------------------------------------


     Lanczos converged:  T threshold:   0.100E-02
     Est. extremal eigenvalues:    0.410E+01   0.105E-01
     Est. condition number :    0.390E+03

 Order=           3
     NS sqrt iter    1 1.00000000   0.106E+01       0.002      301.450
     NS sqrt iter    2 1.00000000   0.619E+00       0.017       44.826
     NS sqrt iter    3 1.00000000   0.343E+00       0.001      689.329
     NS sqrt iter    4 1.00000000   0.233E+00       0.001      709.923
     NS sqrt iter    5 1.00000000   0.117E+00       0.001      714.541
     NS sqrt iter    6 1.00000000   0.152E-01       0.001      696.699
     NS sqrt iter    7 1.00000000   0.532E-04       0.001      600.088
     Symmetrizing Results
     Final NS sqrt iter    7 1.00000000   0.784E-08



 Guess for atomic kind: O

 Electronic structure
    Total number of core electrons                                          2.00
    Total number of valence electrons                                       6.00
    Total number of electrons                                               8.00
    Multiplicity                                                   not specified
    S   [  2.00] 2.00
    P      4.00


 *******************************************************************************
                  Iteration          Convergence                     Energy [au]
 *******************************************************************************
                          1        0.708315                     -15.576645311500
                          2        0.608879                     -15.587933561584
                          3        0.102828E-01                 -15.656849565404
                          4        0.113889E-02                 -15.656866888140
                          5        0.434197E-03                 -15.656867072159
                          6        0.263771E-03                 -15.656867091904
                          7        0.478536E-06                 -15.656867103452

 Energy components [Hartree]           Total Energy ::          -15.656867103452
                                        Band Energy ::           -3.000198112285
                                     Kinetic Energy ::           11.759971203220
                                   Potential Energy ::          -27.416838306672
                                      Virial (-V/T) ::            2.331369510426
                                        Core Energy ::          -26.140716385623
                                          XC Energy ::           -3.154051012914
                                     Coulomb Energy ::           13.637900295084
                       Total Pseudopotential Energy ::          -37.935781716540
                       Local Pseudopotential Energy ::          -39.218907440693
                    Nonlocal Pseudopotential Energy ::            1.283125724153
                                        Confinement ::            0.350941276976

 Orbital energies  State     L     Occupation   Energy[a.u.]          Energy[eV]

                       1     0          2.000      -0.864471          -23.523463

                       1     1          4.000      -0.317814           -8.648154


 Total Electron Density at R=0:                                         0.000068

 Guess for atomic kind: H

 Electronic structure
    Total number of core electrons                                          0.00
    Total number of valence electrons                                       1.00
    Total number of electrons                                               1.00
    Multiplicity                                                   not specified
    S      1.00


 *******************************************************************************
                  Iteration          Convergence                     Energy [au]
 *******************************************************************************
                          1        0.437545E-02                  -0.424159432110
                          2        0.531356E-03                  -0.424178438213
                          3        0.259176E-06                  -0.424178722480

 Energy components [Hartree]           Total Energy ::           -0.424178722480
                                        Band Energy ::           -0.199015229016
                                     Kinetic Energy ::            0.464007633961
                                   Potential Energy ::           -0.888186356441
                                      Virial (-V/T) ::            1.914163240935
                                        Core Energy ::           -0.479160803564
                                          XC Energy ::           -0.244352904054
                                     Coulomb Energy ::            0.299334985138
                       Total Pseudopotential Energy ::           -0.962295316385
                       Local Pseudopotential Energy ::           -0.962295316385
                    Nonlocal Pseudopotential Energy ::            0.000000000000
                                        Confinement ::            0.191268788606

 Orbital energies  State     L     Occupation   Energy[a.u.]          Energy[eV]

                       1     0          1.000      -0.199015           -5.415480


 Total Electron Density at R=0:                                         0.242907
 Re-scaling the density matrix to get the right number of electrons
                  # Electrons              Trace(P)               Scaling factor
                           16                15.990                        1.001
 Energy with the initial guess:       -34.126196858

     Est. extremal eigenvalues     -1.07817     3.79113  converged:  T
     TRS4 it   1 1.00000000   0.180E+01       0.000      117.484   0.100E-07
     TRS4 it   2 1.00000000   0.158E+01       0.000      117.484   0.100E-07
     TRS4 it   3 1.00000000   0.900E+00       0.001      234.968   0.100E-07
     TRS4 it   4 1.00000000   0.560E+00       0.001      234.968   0.100E-07
     TRS4 it   5 1.00000000   0.336E+00       0.001      234.968   0.100E-07
     TRS4 it   6 1.00000000   0.155E+00       0.001      234.968   0.100E-07
     TRS4 it   7 1.00000000   0.436E-01       0.001      234.968   0.100E-07
     TRS4 it   8 1.00000000   0.446E-02       0.001      234.968   0.100E-07
     TRS4 it   9 1.00000000   0.595E-04       0.001      234.968   0.100E-07
     TRS4 it  10 1.00000000   0.115E-07       0.001      234.968   0.100E-07
     Final TRS4 iteration   10 1.00000000   0.115E-07
     Chemical potential (mu):      -0.22674

 SCF     1       -34.238742297       -34.238742297    5.805311

*********************************************************
 Using MIXING_FRACTION=0.450 to mix KS matrix:  iscf=  2
 KS_nw=0.450*KS + 0.550*KS_old
*********************************************************
     Est. extremal eigenvalues     -0.91792     3.92203  converged:  T
     TRS4 it   1 1.00000000   0.176E+01       0.001      117.484   0.100E-07
     TRS4 it   2 1.00000000   0.160E+01       0.000      117.484   0.100E-07
     TRS4 it   3 1.00000000   0.971E+00       0.001      234.968   0.100E-07
     TRS4 it   4 1.00000000   0.591E+00       0.001      234.968   0.100E-07
     TRS4 it   5 1.00000000   0.394E+00       0.001      234.968   0.100E-07
     TRS4 it   6 1.00000000   0.229E+00       0.001      234.968   0.100E-07
     TRS4 it   7 1.00000000   0.105E+00       0.001      234.968   0.100E-07
     TRS4 it   8 1.00000000   0.296E-01       0.001      234.968   0.100E-07
     TRS4 it   9 1.00000000   0.319E-02       0.001      234.968   0.100E-07
     TRS4 it  10 1.00000000   0.416E-04       0.001      234.968   0.100E-07
     TRS4 it  11 1.00000000   0.747E-08       0.001      234.968   0.100E-07
     Final TRS4 iteration   11 1.00000000   0.747E-08
     Chemical potential (mu):      -0.11691

 SCF     2       -34.434085870        -0.195343574    5.718168

*********************************************************
 Using MIXING_FRACTION=0.450 to mix KS matrix:  iscf=  3
 KS_nw=0.450*KS + 0.550*KS_old
*********************************************************
     Est. extremal eigenvalues     -0.94453     3.91076  converged:  T
     TRS4 it   1 1.00000000   0.176E+01       0.001      117.484   0.100E-07
     TRS4 it   2 1.00000000   0.160E+01       0.000      117.484   0.100E-07
     TRS4 it   3 1.00000000   0.959E+00       0.001      234.968   0.100E-07
     TRS4 it   4 1.00000000   0.589E+00       0.001      234.968   0.100E-07
     TRS4 it   5 1.00000000   0.389E+00       0.001      234.968   0.100E-07
     TRS4 it   6 1.00000000   0.220E+00       0.001      234.968   0.100E-07
     TRS4 it   7 1.00000000   0.968E-01       0.001      234.968   0.100E-07
     TRS4 it   8 1.00000000   0.254E-01       0.001      234.968   0.100E-07
     TRS4 it   9 1.00000000   0.250E-02       0.018       13.317   0.100E-07
     TRS4 it  10 1.00000000   0.280E-04       0.001      234.968   0.100E-07
     TRS4 it  11 1.00000000   0.353E-08       0.001      234.968   0.100E-07
     Final TRS4 iteration   11 1.00000000   0.353E-08
     Chemical potential (mu):      -0.12734

 SCF     3       -34.444781393        -0.010695523    5.310870

*********************************************************
 Using MIXING_FRACTION=0.450 to mix KS matrix:  iscf=  4
 KS_nw=0.450*KS + 0.550*KS_old
*********************************************************
     Est. extremal eigenvalues     -0.93028     3.92324  converged:  T
     TRS4 it   1 1.00000000   0.176E+01       0.000      117.484   0.100E-07
     TRS4 it   2 1.00000000   0.160E+01       0.002       60.974   0.100E-07
     TRS4 it   3 1.00000000   0.964E+00       0.003       88.262   0.100E-07
     TRS4 it   4 1.00000000   0.592E+00       0.002      116.842   0.100E-07
     TRS4 it   5 1.00000000   0.393E+00       0.001      234.968   0.100E-07
     TRS4 it   6 1.00000000   0.227E+00       0.001      234.968   0.100E-07
     TRS4 it   7 1.00000000   0.103E+00       0.001      234.968   0.100E-07
     TRS4 it   8 1.00000000   0.291E-01       0.001      234.968   0.100E-07
     TRS4 it   9 1.00000000   0.332E-02       0.001      234.968   0.100E-07
     TRS4 it  10 1.00000000   0.496E-04       0.001      234.968   0.100E-07
     TRS4 it  11 1.00000000   0.111E-07       0.001      234.968   0.100E-07
     Final TRS4 iteration   11 1.00000000   0.111E-07
     Chemical potential (mu):      -0.11745

 SCF     4       -34.445705137        -0.000923745    5.733808

*********************************************************
 Using MIXING_FRACTION=0.450 to mix KS matrix:  iscf=  5
 KS_nw=0.450*KS + 0.550*KS_old
*********************************************************
     Est. extremal eigenvalues     -0.93168     3.92498  converged:  T
     TRS4 it   1 1.00000000   0.176E+01       0.000      117.484   0.100E-07
     TRS4 it   2 1.00000000   0.160E+01       0.000      117.484   0.100E-07
     TRS4 it   3 1.00000000   0.963E+00       0.001      234.968   0.100E-07
     TRS4 it   4 1.00000000   0.593E+00       0.001      234.968   0.100E-07
     TRS4 it   5 1.00000000   0.394E+00       0.001      234.968   0.100E-07
     TRS4 it   6 1.00000000   0.227E+00       0.001      234.968   0.100E-07
     TRS4 it   7 1.00000000   0.104E+00       0.001      234.968   0.100E-07
     TRS4 it   8 1.00000000   0.297E-01       0.001      234.968   0.100E-07
     TRS4 it   9 1.00000000   0.355E-02       0.001      234.968   0.100E-07
     TRS4 it  10 1.00000000   0.581E-04       0.001      234.968   0.100E-07
     TRS4 it  11 1.00000000   0.153E-07       0.001      234.968   0.100E-07
     Final TRS4 iteration   11 1.00000000   0.153E-07
     Chemical potential (mu):      -0.11614

 SCF     5       -34.445793305        -0.000088168    5.500235

*********************************************************
 Using MIXING_FRACTION=0.450 to mix KS matrix:  iscf=  6
 KS_nw=0.450*KS + 0.550*KS_old
*********************************************************
     Est. extremal eigenvalues     -0.92957     3.92712  converged:  T
     TRS4 it   1 1.00000000   0.176E+01       0.001      117.484   0.100E-07
     TRS4 it   2 1.00000000   0.160E+01       0.000      117.484   0.100E-07
     TRS4 it   3 1.00000000   0.964E+00       0.001      234.968   0.100E-07
     TRS4 it   4 1.00000000   0.593E+00       0.001      234.968   0.100E-07
     TRS4 it   5 1.00000000   0.395E+00       0.001      234.968   0.100E-07
     TRS4 it   6 1.00000000   0.228E+00       0.001      234.968   0.100E-07
     TRS4 it   7 1.00000000   0.105E+00       0.001      234.968   0.100E-07
     TRS4 it   8 1.00000000   0.304E-01       0.001      234.968   0.100E-07
     TRS4 it   9 1.00000000   0.372E-02       0.001      234.968   0.100E-07
     TRS4 it  10 1.00000000   0.641E-04       0.001      234.968   0.100E-07
     TRS4 it  11 1.00000000   0.186E-07       0.001      234.968   0.100E-07
     Final TRS4 iteration   11 1.00000000   0.186E-07
     Chemical potential (mu):      -0.11449

 SCF     6       -34.445803913        -0.000010608    4.867255

*********************************************************
 Using MIXING_FRACTION=0.450 to mix KS matrix:  iscf=  7
 KS_nw=0.450*KS + 0.550*KS_old
*********************************************************
     Est. extremal eigenvalues     -0.92937     3.92791  converged:  T
     TRS4 it   1 1.00000000   0.176E+01       0.000      117.484   0.100E-07
     TRS4 it   2 1.00000000   0.160E+01       0.000      117.484   0.100E-07
     TRS4 it   3 1.00000000   0.964E+00       0.001      234.968   0.100E-07
     TRS4 it   4 1.00000000   0.593E+00       0.001      234.968   0.100E-07
     TRS4 it   5 1.00000000   0.395E+00       0.001      234.968   0.100E-07
     TRS4 it   6 1.00000000   0.229E+00       0.001      234.968   0.100E-07
     TRS4 it   7 1.00000000   0.106E+00       0.001      234.968   0.100E-07
     TRS4 it   8 1.00000000   0.307E-01       0.001      234.968   0.100E-07
     TRS4 it   9 1.00000000   0.381E-02       0.001      234.968   0.100E-07
     TRS4 it  10 1.00000000   0.677E-04       0.001      234.968   0.100E-07
     TRS4 it  11 1.00000000   0.208E-07       0.001      234.968   0.100E-07
     Final TRS4 iteration   11 1.00000000   0.208E-07
     Chemical potential (mu):      -0.11386

 SCF     7       -34.445805592        -0.000001679    3.612359

*********************************************************
 Using MIXING_FRACTION=0.450 to mix KS matrix:  iscf=  8
 KS_nw=0.450*KS + 0.550*KS_old
*********************************************************
     Est. extremal eigenvalues     -0.92897     3.92841  converged:  T
     TRS4 it   1 1.00000000   0.176E+01       0.001      117.046   0.100E-07
     TRS4 it   2 1.00000000   0.160E+01       0.001      117.484   0.100E-07
     TRS4 it   3 1.00000000   0.964E+00       0.001      234.968   0.100E-07
     TRS4 it   4 1.00000000   0.593E+00       0.001      234.968   0.100E-07
     TRS4 it   5 1.00000000   0.395E+00       0.001      234.968   0.100E-07
     TRS4 it   6 1.00000000   0.229E+00       0.001      234.968   0.100E-07
     TRS4 it   7 1.00000000   0.106E+00       0.001      234.968   0.100E-07
     TRS4 it   8 1.00000000   0.309E-01       0.001      234.968   0.100E-07
     TRS4 it   9 1.00000000   0.386E-02       0.001      234.968   0.100E-07
     TRS4 it  10 1.00000000   0.694E-04       0.001      234.968   0.100E-07
     TRS4 it  11 1.00000000   0.219E-07       0.001      234.968   0.100E-07
     Final TRS4 iteration   11 1.00000000   0.219E-07
     Chemical potential (mu):      -0.11347

 SCF     8       -34.445805938        -0.000000346    3.313546

*********************************************************
 Using MIXING_FRACTION=0.450 to mix KS matrix:  iscf=  9
 KS_nw=0.450*KS + 0.550*KS_old
*********************************************************
     Est. extremal eigenvalues     -0.92886     3.92865  converged:  T
     TRS4 it   1 1.00000000   0.176E+01       0.002       68.060   0.100E-07
     TRS4 it   2 1.00000000   0.160E+01       0.001      117.484   0.100E-07
     TRS4 it   3 1.00000000   0.964E+00       0.001      215.317   0.100E-07
     TRS4 it   4 1.00000000   0.593E+00       0.001      200.288   0.100E-07
     TRS4 it   5 1.00000000   0.395E+00       0.001      191.127   0.100E-07
     TRS4 it   6 1.00000000   0.229E+00       0.001      189.172   0.100E-07
     TRS4 it   7 1.00000000   0.106E+00       0.001      177.567   0.100E-07
     TRS4 it   8 1.00000000   0.310E-01       0.001      197.794   0.100E-07
     TRS4 it   9 1.00000000   0.389E-02       0.001      207.356   0.100E-07
     TRS4 it  10 1.00000000   0.705E-04       0.001      226.734   0.100E-07
     TRS4 it  11 1.00000000   0.226E-07       0.001      234.968   0.100E-07
     Final TRS4 iteration   11 1.00000000   0.226E-07
     Chemical potential (mu):      -0.11327

 SCF     9       -34.445806022        -0.000000084    1.992815


 SCF run converged in     9 steps.

 Writing restart DM 2H2O_ref_LS_DM_SPIN_1_RESTART.dm with checksum:       0.55541130E+02

 ENERGY| Total FORCE_EVAL ( QS ) energy [a.u.]:              -34.445806022118319

 -------------------------------------------------------------------------------
 -                                                                             -
 -                                DBCSR STATISTICS                             -
 -                                                                             -
 -------------------------------------------------------------------------------
 COUNTER                                    TOTAL       BLAS       SMM       ACC
 flops     5 x     5 x     5              2779750       0.0%    100.0%      0.0%
 flops     5 x    13 x     5              3121950       0.0%    100.0%      0.0%
 flops    13 x     5 x     5              3121950       0.0%    100.0%      0.0%
 flops     5 x     5 x    13              3601650       0.0%    100.0%      0.0%
 flops    13 x     5 x    13              4066140       0.0%    100.0%      0.0%
 flops     5 x    13 x    13              4066140       0.0%    100.0%      0.0%
 flops    13 x    13 x     5              5318430       0.0%    100.0%      0.0%
 flops    13 x    13 x    13              6946914       0.0%    100.0%      0.0%
 flops inhomo. stacks                           0       0.0%      0.0%      0.0%
 flops total                        33.022924E+06       0.0%    100.0%      0.0%
 flops max/rank                     33.022924E+06       0.0%    100.0%      0.0%
 matmuls inhomo. stacks                         0       0.0%      0.0%      0.0%
 matmuls total                              35806       0.0%    100.0%      0.0%
 number of processed stacks                  1960       0.0%    100.0%      0.0%
 average stack size                                     0.0      18.3       0.0
 marketing flops                    47.889312E+06
 -------------------------------------------------------------------------------
 # multiplications                            246
 max memory usage/rank             419.143680E+06
 # max total images/rank                        1
 # max 3D layers                                1
 # MPI messages exchanged                       0
 -------------------------------------------------------------------------------

 -------------------------------------------------------------------------------
 -                                                                             -
 -                                DBM STATISTICS                               -
 -                                                                             -
 -------------------------------------------------------------------------------
    M  x    N  x    K                                          COUNT     PERCENT
 -------------------------------------------------------------------------------

 -------------------------------------------------------------------------------
 -                                                                             -
 -                                GRID STATISTICS                              -
 -                                                                             -
 -------------------------------------------------------------------------------
 LP    KERNEL             BACKEND                              COUNT     PERCENT
 2     collocate ortho    REF                                  38060      30.70%
 2     integrate ortho    REF                                  38060      30.70%
 3     collocate ortho    REF                                  19700      15.89%
 3     integrate ortho    REF                                  19700      15.89%
 4     collocate ortho    REF                                   4220       3.40%
 4     integrate ortho    REF                                   4220       3.40%
 0     collocate general  REF                                      6       0.00%
 -------------------------------------------------------------------------------

 MEMORY| Estimated peak process memory [MiB]                                 400

 -------------------------------------------------------------------------------
 -                                                                             -
 -                           R E F E R E N C E S                               -
 -                                                                             -
 -------------------------------------------------------------------------------
 
 CP2K version 2023.1 (Development Version), the CP2K developers group (2023).
 CP2K is freely available from https://www.cp2k.org/ .

 Kuehne,Thomas D.; Iannuzzi,Marcella; Del Ben,Mauro;
 Rybkin,Vladimir V.; Seewald,Patrick; Stein,Frederick; Laino,Teodoro;
 Khaliullin,Rustam Z.; Schuett,Ole; Schiffmann,Florian; Golze,Dorothea;
 Wilhelm,Jan; Chulkov,Sergey; Bani-Hashemian,Mohammad Hossein;
 Weber,Valery; Borstnik,Urban; Taillefumier,Mathieu;
 Jakobovits,Alice Shoshana; Lazzaro,Alfio; Pabst,Hans; Mueller,Tiziano;
 Schade,Robert; Guidon,Manuel; Andermatt,Samuel; Holmberg,Nico;
 Schenter,Gregory K.; Hehn,Anna; Bussy,Augustin; Belleflamme,Fabian;
 Tabacchi,Gloria; Gloess,Andreas; Lass,Michael; Bethune,Iain;
 Mundy,Christopher J.; Plessl,Christian; Watkins,Matt;
 VandeVondele,Joost; Krack,Matthias; Hutter,Juerg. 
 The Journal of Chemical Physics, 152 (19), (2020). 
 CP2K: An electronic structure and molecular dynamics software package -
 Quickstep: Efficient and accurate electronic structure calculations.
 https://doi.org/10.1063/5.0007045

 Schuett, Ole; Messmer, Peter; Hutter, Juerg; VandeVondele, Joost. 
 Electronic Structure Calculations on Graphics Processing Units, John
 Wiley & Sons, Ltd, 173-190 (2016). 
 GPU-Accelerated Sparse Matrix-Matrix Multiplication for
 Linear Scaling Density Functional Theory.
 https://doi.org/10.1002/9781118670712.ch8

 Heinecke, A; Henry, G; Hutchinson, M; Pabst, H. 
 Proceedings of Intl. Supercomputing Conference, 981-991 (2016). 
 LIBXSMM: Accelerating Small Matrix Multiplications
 by Runtime Code Generation.
 https://doi.org/10.1109/SC.2016.83

 Borstnik, U; VandeVondele, J; Weber, V; Hutter, J. 
 PARALLEL COMPUTING, 40 (5-6), 47-58 (2014). 
 Sparse matrix multiplication: The distributed block-compressed sparse
 row library.
 https://doi.org/10.1016/j.parco.2014.03.012

 Hutter, J; Iannuzzi, M; Schiffmann, F; VandeVondele, J. 
 WIREs Comput Mol Sci., 4 (1), 15-25 (2014). 
 CP2K: atomistic simulations of condensed matter systems.
 https://doi.org/10.1002/wcms.1159

 VandeVondele, J; Borstnik, U; Hutter, J. 
 JOURNAL OF CHEMICAL THEORY AND COMPUTATION, 8 (10), 3565-3573 (2012). 
 Linear Scaling Self-Consistent Field Calculations with Millions of Atoms
 in the Condensed Phase.
 https://doi.org/10.1021/ct200897x

 VandeVondele, J; Hutter, J. 
 JOURNAL OF CHEMICAL PHYSICS, 127 (11), 114105 (2007). 
 Gaussian basis sets for accurate calculations on molecular systems in
 gas and condensed phases.
 https://doi.org/10.1063/1.2770708

 Krack, M. 
 THEORETICAL CHEMISTRY ACCOUNTS, 114 (1-3), 145-152 (2005). 
 Pseudopotentials for H to Kr optimized for gradient-corrected
 exchange-correlation functionals.
 https://doi.org/10.1007/s00214-005-0655-y

 VandeVondele, J; Krack, M; Mohamed, F; Parrinello, M; Chassaing, T;
 Hutter, J. COMPUTER PHYSICS COMMUNICATIONS, 167 (2), 103-128 (2005). 
 QUICKSTEP: Fast and accurate density functional calculations using a
 mixed Gaussian and plane waves approach.
 https://doi.org/10.1016/j.cpc.2004.12.014

 Frigo, M; Johnson, SG. 
 PROCEEDINGS OF THE IEEE, 93 (2), 216-231 (2005). 
 The design and implementation of FFTW3.
 https://doi.org/10.1109/JPROC.2004.840301

 Niklasson, AMN; Tymczak, CJ; Challacombe, M. 
 JOURNAL OF CHEMICAL PHYSICS, 118 (19), 8611-8620 (2003). 
 Trace resetting density matrix purification in O(N)
 self-consistent-field theory.
 https://doi.org/10.1063/1.1559913

 Hartwigsen, C; Goedecker, S; Hutter, J. 
 PHYSICAL REVIEW B, 58 (7), 3641-3662 (1998). 
 Relativistic separable dual-space Gaussian pseudopotentials from H to Rn.
 https://doi.org/10.1103/PhysRevB.58.3641

 Lippert, G; Hutter, J; Parrinello, M. 
 MOLECULAR PHYSICS, 92 (3), 477-487 (1997). 
 A hybrid Gaussian and plane wave density functional scheme.
 https://doi.org/10.1080/002689797170220

 Perdew, JP; Burke, K; Ernzerhof, M. 
 PHYSICAL REVIEW LETTERS, 77 (18), 3865-3868 (1996). 
 Generalized gradient approximation made simple.
 https://doi.org/10.1103/PhysRevLett.77.3865

 Goedecker, S; Teter, M; Hutter, J. 
 PHYSICAL REVIEW B, 54 (3), 1703-1710 (1996). 
 Separable dual-space Gaussian pseudopotentials.
 https://doi.org/10.1103/PhysRevB.54.1703


 -------------------------------------------------------------------------------
 -                                                                             -
 -                                T I M I N G                                  -
 -                                                                             -
 -------------------------------------------------------------------------------
 SUBROUTINE                       CALLS  ASD         SELF TIME        TOTAL TIME
                                MAXIMUM       AVERAGE  MAXIMUM  AVERAGE  MAXIMUM
 CP2K                                 1  1.0    0.028    0.028   48.668   48.668
 qs_energies                          1  2.0    0.000    0.000   47.807   47.807
 ls_scf                               1  3.0    0.000    0.000   47.601   47.601
 ls_scf_main                          1  4.0    0.001    0.001   41.856   41.856
 ls_scf_dm_to_ks                      9  5.0    0.000    0.000   41.682   41.682
 qs_ks_update_qs_env                 10  6.1    0.000    0.000   36.420   36.420
 rebuild_ks_matrix                   10  7.1    0.000    0.000   36.419   36.419
 qs_ks_build_kohn_sham_matrix        10  8.1    0.004    0.004   36.419   36.419
 qs_vxc_create                       10  9.1    0.000    0.000   22.588   22.588
 xc_vxc_pw_create                    10 10.1    0.418    0.418   22.587   22.587
 pw_transfer                        191 11.2    0.054    0.054   21.076   21.076
 fft_wrap_pw1pw2                    171 12.4    0.006    0.006   20.412   20.412
 fft_wrap_pw1pw2_200                111 13.8    1.974    1.974   19.743   19.743
 xc_pw_derive                        60 12.1    0.002    0.002   14.563   14.563
 xc_rho_set_and_dset_create          10 11.1    0.517    0.517   13.129   13.129
 qs_rho_update_rho_low               10  6.1    0.000    0.000   10.972   10.972
 calculate_rho_elec                  10  7.1    0.101    0.101   10.972   10.972
 sum_up_and_integrate                10  9.1    0.225    0.225    9.329    9.329
 integrate_v_rspace                  10 10.1    0.001    0.001    9.105    9.105
 fft3d_s                            172 14.3    8.749    8.749    8.784    8.784
 xc_pw_divergence                    10 11.1    0.001    0.001    8.750    8.750
 grid_integrate_task_list            10 11.1    7.200    7.200    7.200    7.200
 grid_collocate_task_list            10  8.1    5.984    5.984    5.984    5.984
 ls_scf_init_scf                      1  4.0    0.000    0.000    5.745    5.745
 ls_scf_initial_guess                 1  5.0    0.000    0.000    5.712    5.712
 ls_scf_qs_atomic_guess               1  6.0    0.000    0.000    5.712    5.712
 pw_scatter_s                        90 14.8    5.425    5.425    5.425    5.425
 density_rs2pw                       10  8.1    0.002    0.002    4.887    4.887
 pw_gather_s                         81 13.9    4.139    4.139    4.139    4.139
 xc_functional_eval                  10 12.1    0.000    0.000    4.067    4.067
 pbe_lda_eval                        10 13.1    4.067    4.067    4.067    4.067
 pw_derive                           60 13.1    2.807    2.807    2.807    2.807
 pw_copy                            120 11.9    2.118    2.118    2.118    2.118
 potential_pw2rs                     10 11.1    0.005    0.005    1.903    1.903
 pw_poisson_solve                    10  9.1    0.333    0.333    1.694    1.694
 pw_axpy                             90 10.4    1.476    1.476    1.476    1.476
 -------------------------------------------------------------------------------

 The number of warnings for this run is : 0
 
 -------------------------------------------------------------------------------
  **** **** ******  **  PROGRAM ENDED AT                 2023-01-22 17:35:01.467
 ***** ** ***  *** **   PROGRAM RAN ON                                    moritz
 **    ****   ******    PROGRAM RAN BY                                       ole
 ***** **    ** ** **   PROGRAM PROCESS ID                                116874
  **** **  *******  **  PROGRAM STOPPED IN /home/ole/git/pao_ml_equivar/2H2O_MD/
                                           frame_1950
