 DBCSR| CPU Multiplication driver                                           XSMM (U)
 DBCSR| Multrec recursion limit                                              512 (U)
 DBCSR| Multiplication stack size                                           1000 (D)
 DBCSR| Maximum elements for images                                    UNLIMITED (U)
 DBCSR| Multiplicative factor virtual images                                   1 (U)
 DBCSR| Use multiplication densification                                       T (D)
 DBCSR| Multiplication size stacks                                             3 (U)
 DBCSR| Use memory pool for CPU allocation                                     F (U)
 DBCSR| OMP: Current number of threads                                         1
 DBCSR| OMP: Max number of threads                                             1
 DBCSR| Split modifier for TAS multiplication algorithm                  1.0E+00 (U)


  **** **** ******  **  PROGRAM STARTED AT               2023-02-01 10:45:19.731
 ***** ** ***  *** **   PROGRAM STARTED ON                                moritz
 **    ****   ******    PROGRAM STARTED BY                                   ole
 ***** **    ** ** **   PROGRAM PROCESS ID                                148602
  **** **  *******  **  PROGRAM STARTED IN /home/ole/git/pao_ml_equivar/2H2O_rot
                                           ations/phi_25

 CP2K| version string:                 CP2K version 2023.1 (Development Version)
 CP2K| source code revision number:                                  git:03b4147
 CP2K| cp2kflags: omp libint fftw3 libxc quip xsmm spglib libvori libbqb libtorc
 CP2K|            h
 CP2K| is freely available from                            https://www.cp2k.org/
 CP2K| Program compiled at                           Mi 01 Feb 2023 10:36:52 CET
 CP2K| Program compiled on                                                moritz
 CP2K| Program compiled for                                                local
 CP2K| Data directory path                               /home/ole/git/cp2k/data
 CP2K| Input file name                                            2H2O_pao44.inp

 GLOBAL| Force Environment number                                              1
 GLOBAL| Basis set file name                                        BASIS_MOLOPT
 GLOBAL| Potential file name                                      GTH_POTENTIALS
 GLOBAL| MM Potential file name                                     MM_POTENTIAL
 GLOBAL| Coordinate file name                                         coords.xyz
 GLOBAL| Method name                                                        CP2K
 GLOBAL| Project name                                                 2H2O_pao44
 GLOBAL| Run type                                                         ENERGY
 GLOBAL| FFT library                                                       FFTW3
 GLOBAL| Diagonalization library                                       ScaLAPACK
 GLOBAL| DGEMM library                                                      BLAS
 GLOBAL| Orthonormality check for eigenvectors                          DISABLED
 GLOBAL| Matrix multiplication library                                 ScaLAPACK
 GLOBAL| All-to-all communication in single precision                          F
 GLOBAL| FFTs using library dependent lengths                                  F
 GLOBAL| Grid backend                                                       AUTO
 GLOBAL| Global print level                                                  LOW
 GLOBAL| MPI I/O enabled                                                       T
 GLOBAL| Total number of message passing processes                             1
 GLOBAL| Number of threads for this process                                    1
 GLOBAL| This output is from process                                           0
 GLOBAL| Stack size for threads created by OpenMP (OMP_STACKSIZE)        default
 GLOBAL| CPU model name           AMD Ryzen Threadripper 3970X 32-Core Processor
 GLOBAL| CPUID                                                              1002
 GLOBAL| Compiled for CPUID                                                    0

 *** HINT in environment.F:884 :: The compiler target flags (generic) used ***
 *** to build this binary cannot exploit all extensions of this CPU model  ***
 *** (x86_avx2). Consider compiler target flags as part of FCFLAGS and     ***
 *** CFLAGS (ARCH file).                                                   ***


 MEMORY| system memory details [Kb]
 MEMORY|                        rank 0           min           max       average
 MEMORY| MemTotal            131773860     131773860     131773860     131773860
 MEMORY| MemFree             117002404     117002404     117002404     117002404
 MEMORY| Buffers                301580        301580        301580        301580
 MEMORY| Cached                7018548       7018548       7018548       7018548
 MEMORY| Slab                   776140        776140        776140        776140
 MEMORY| SReclaimable           331304        331304        331304        331304
 MEMORY| MemLikelyFree       124653836     124653836     124653836     124653836


 GENERATE|  Preliminary Number of Bonds generated:                             0
 GENERATE|  Achieved consistency in connectivity generation.

 *******************************************************************************
 *******************************************************************************
 **                                                                           **
 **     #####                         ##              ##                      **
 **    ##   ##            ##          ##              ##                      **
 **   ##     ##                       ##            ######                    **
 **   ##     ##  ##   ##  ##   #####  ##  ##   ####   ##    #####    #####    **
 **   ##     ##  ##   ##  ##  ##      ## ##   ##      ##   ##   ##  ##   ##   **
 **   ##  ## ##  ##   ##  ##  ##      ####     ###    ##   ######   ######    **
 **    ##  ###   ##   ##  ##  ##      ## ##      ##   ##   ##       ##        **
 **     #######   #####   ##   #####  ##  ##  ####    ##    #####   ##        **
 **           ##                                                    ##        **
 **                                                                           **
 **                                                ... make the atoms dance   **
 **                                                                           **
 **            Copyright (C) by CP2K developers group (2000-2023)             **
 **                      J. Chem. Phys. 152, 194103 (2020)                    **
 **                                                                           **
 *******************************************************************************


 TOTAL NUMBERS AND MAXIMUM NUMBERS

  Total number of            - Atomic kinds:                                   2
                             - Atoms:                                          6
                             - Shell sets:                                     6
                             - Shells:                                        22
                             - Primitive Cartesian functions:                 42
                             - Cartesian basis functions:                     48
                             - Spherical basis functions:                     46

  Maximum angular momentum of- Orbital basis functions:                        2
                             - Local part of the GTH pseudopotential:          2
                             - Non-local part of the GTH pseudopotential:      0

 ------------------------------ Linear scaling SCF -----------------------------
 eps_scf:                                                              0.100E-07
 eps_filter:                                                           0.100E-07
 mixing_fraction:                                                      0.450E+00
 max_scf:                                                                     25
 fixed chemical potential (mu)                                                 F
 has unit metric:                                                              F
 Computing inv(S):                                                             T
 Computing sqrt(S):                                                            T
 Computing S preconditioner                                                    F
 S sqrt method:                                                     NEWTONSCHULZ
 S sqrt order:                                                                 3
 Extrapolation order:                                                          1
 Use single precision matrices                                                 F
 S preconditioner type                                                      NONE
 Polarized Atomic Orbitals (PAO)                                               T
 Purification method                                   Trace resetting 4th order
 Cluster type                                                             ATOMIC
 Computing Chebyshev                                                       FALSE
 Using PAO                                                                     T
 -------------------------------------------------------------------------------

 
 PAO|                                  EPS_PAO                           0.1E-04
 PAO|                                  MIXING                            0.5E+00
 PAO|                                  MAX_PAO                              1000
 PAO|                                  MAX_CYCLES                           1000
 PAO|                                  PARAMETERIZATION              EQUIVARIANT
 PAO|                                  PRECONDITION                            F
 PAO|                                  REGULARIZATION                    0.0E+00
 PAO|                                  EPS_PGF                           0.1E-09
 PAO|                                  PENALTY_DISTANCE                  0.1E+00
 PAO|                                  PENALTY_STRENGTH                  0.5E-02
 PAO|                                  LINPOT_PRECONDITION_DELTA         0.0E+00
 PAO|                                  LINPOT_INITGUESS_DELT             0.0E+00
 PAO|                                  LINPOT_REGULARIZATION_DELTA       0.0E+00
 PAO|                                  LINPOT_REGULARIZATION_STRENGTH    0.0E+00
 PAO|                                  OPTIMIZER                              CG
 PAO|                                  CG_INIT_STEPS                           2
 PAO|                                  CG_RESET_LIMIT                    0.1E+00
 PAO|                                  CHECK_UNITARY_TOL                -0.1E+01
 PAO|                                  CHECK_GRADIENT_TOL               -0.1E+01
 PAO|                                  NUM_GRADIENT_ORDER                      2
 PAO|                                  NUM_GRADIENT_EPS                  0.1E-07
 PAO|                                  PRINT%RESTART%WRITE_CYCLES            100
 PAO|                                  RESTART_FILE 
 PAO|                                  PREOPT_DM_FILE 2H2O_ref_LS_DM_SPIN_1_RESTART.dm
 PAO|                                  MACHINE_LEARNING%METHOD       GAUSSIAN_PR
 PAO|                                  MACHINE_LEARNING%PRIOR               ZERO
 PAO|                                  MACHINE_LEARNING%DESCRIPTOR     POTENTIAL
 PAO|                                  MACHINE_LEARNING%TOLERANCE        0.1E-01
 PAO|                                  MACHINE_LEARNING%GP_NOISE_VAR     0.1E+00
 PAO|                                  MACHINE_LEARNING%GP_SCALE         0.5E-01
 

 Calculating atomic Fock matrix for atomic kind: O

 Electronic structure
    Total number of core electrons                                          2.00
    Total number of valence electrons                                       6.00
    Total number of electrons                                               8.00
    Multiplicity                                                   not specified
    S   [  2.00] 2.00
    P      4.00


 *******************************************************************************
                  Iteration          Convergence                     Energy [au]
 *******************************************************************************
                          1        0.708315                     -15.576645311500
                          2        0.608879                     -15.587933561584
                          3        0.102828E-01                 -15.656849565404
                          4        0.113889E-02                 -15.656866888140
                          5        0.434197E-03                 -15.656867072159
                          6        0.263771E-03                 -15.656867091904
                          7        0.478536E-06                 -15.656867103452

 Energy components [Hartree]           Total Energy ::          -15.656867103452
                                        Band Energy ::           -3.000198112285
                                     Kinetic Energy ::           11.759971203220
                                   Potential Energy ::          -27.416838306672
                                      Virial (-V/T) ::            2.331369510426
                                        Core Energy ::          -26.140716385623
                                          XC Energy ::           -3.154051012914
                                     Coulomb Energy ::           13.637900295084
                       Total Pseudopotential Energy ::          -37.935781716540
                       Local Pseudopotential Energy ::          -39.218907440693
                    Nonlocal Pseudopotential Energy ::            1.283125724153
                                        Confinement ::            0.350941276976

 Orbital energies  State     L     Occupation   Energy[a.u.]          Energy[eV]

                       1     0          2.000      -0.864471          -23.523463

                       1     1          4.000      -0.317814           -8.648154


 Total Electron Density at R=0:                                         0.000068

 Calculating atomic Fock matrix for atomic kind: H

 Electronic structure
    Total number of core electrons                                          0.00
    Total number of valence electrons                                       1.00
    Total number of electrons                                               1.00
    Multiplicity                                                   not specified
    S      1.00


 *******************************************************************************
                  Iteration          Convergence                     Energy [au]
 *******************************************************************************
                          1        0.437545E-02                  -0.424159432110
                          2        0.531356E-03                  -0.424178438213
                          3        0.259176E-06                  -0.424178722480

 Energy components [Hartree]           Total Energy ::           -0.424178722480
                                        Band Energy ::           -0.199015229016
                                     Kinetic Energy ::            0.464007633961
                                   Potential Energy ::           -0.888186356441
                                      Virial (-V/T) ::            1.914163240935
                                        Core Energy ::           -0.479160803564
                                          XC Energy ::           -0.244352904054
                                     Coulomb Energy ::            0.299334985138
                       Total Pseudopotential Energy ::           -0.962295316385
                       Local Pseudopotential Energy ::           -0.962295316385
                    Nonlocal Pseudopotential Energy ::            0.000000000000
                                        Confinement ::            0.191268788606

 Orbital energies  State     L     Occupation   Energy[a.u.]          Energy[eV]

                       1     0          1.000      -0.199015           -5.415480


 Total Electron Density at R=0:                                         0.242907
 PAO| Made initial guess for matrix_X with norm:   4.8989794855663558     

     Lanczos converged:  T threshold:   0.100E-02
     Est. extremal eigenvalues:    0.336E+01   0.114E+00
     Est. condition number :    0.294E+02

 Order=           3
     NS sqrt iter    1 1.00000000   0.821E+00       0.001       58.113
     NS sqrt iter    2 1.00000000   0.440E+00       0.001      100.381
     NS sqrt iter    3 1.00000000   0.170E+00       0.001       99.162
     NS sqrt iter    4 1.00000000   0.206E-01       0.001      100.497
     NS sqrt iter    5 1.00000000   0.538E-04       0.001       83.430
     Symmetrizing Results
     Final NS sqrt iter    5 1.00000000   0.417E-08

 PAO| Read restart DM 2H2O_ref_LS_DM_SPIN_1_RESTART.dm with checksum:    65.252179457385225     
 PAO| Quickstep energy from restart density:  -34.450617890598480     
 PAO| ======================= Iteration:         1 =============================

     Lanczos converged:  T threshold:   0.100E-02
     Est. extremal eigenvalues:    0.336E+01   0.114E+00
     Est. condition number :    0.294E+02

 Order=           3
     NS sqrt iter    1 1.00000000   0.821E+00       0.001       64.512
     NS sqrt iter    2 1.00000000   0.440E+00       0.001      110.592
     NS sqrt iter    3 1.00000000   0.170E+00       0.001      110.592
     NS sqrt iter    4 1.00000000   0.206E-01       0.001      110.592
     NS sqrt iter    5 1.00000000   0.538E-04       0.001       91.520
     Symmetrizing Results
     Final NS sqrt iter    5 1.00000000   0.417E-08

     Est. extremal eigenvalues     -0.91932     1.88742  converged:  T
     TRS4 it   1 1.00000000   0.885E+00       0.000       16.128   0.100E-07
     TRS4 it   2 1.00000000   0.692E+00       0.001       32.256   0.100E-07
     TRS4 it   3 1.00000000   0.499E+00       0.001       32.256   0.100E-07
     TRS4 it   4 1.00000000   0.312E+00       0.001       32.256   0.100E-07
     TRS4 it   5 1.00000000   0.154E+00       0.001       32.256   0.100E-07
     TRS4 it   6 1.00000000   0.483E-01       0.001       32.256   0.100E-07
     TRS4 it   7 1.00000000   0.657E-02       0.001       32.256   0.100E-07
     TRS4 it   8 1.00000000   0.171E-03       0.001       32.256   0.100E-07
     TRS4 it   9 1.00000000   0.129E-06       0.001       32.256   0.100E-07
     TRS4 it  10 1.00000000   0.758E-13       0.001       32.256   0.100E-07
     Final TRS4 iteration   10 1.00000000   0.758E-13
     Chemical potential (mu):      -0.06444
 
 PAO| energy:  -7.6170065110512342      penalty:   4.0059342843254514E-033
 PAO|CG| warming up with steepest descent
 PAO|CG| beta:    0.0000000000000000     
 PAO| norm of gradient:  0.78344160107956373     
 PAO|LS| adapt:  T F F
 PAO|LS| adapt: scan_steps:    0.0000000000000000        0.0000000000000000        0.0000000000000000     
 PAO|LS| adapt: energies:   -7.6170065110512342        0.0000000000000000        0.0000000000000000     
 PAO| ======================= Iteration:         2 =============================

     Lanczos converged:  T threshold:   0.100E-02
     Est. extremal eigenvalues:    0.327E+01   0.127E+00
     Est. condition number :    0.258E+02

 Order=           3
     NS sqrt iter    1 1.00000000   0.805E+00       0.001       61.350
     NS sqrt iter    2 1.00000000   0.425E+00       0.001      101.963
     NS sqrt iter    3 1.00000000   0.153E+00       0.001      102.970
     NS sqrt iter    4 1.00000000   0.143E-01       0.001      101.606
     NS sqrt iter    5 1.00000000   0.172E-04       0.001       79.607
     Symmetrizing Results
     Final NS sqrt iter    5 1.00000000   0.449E-09

     Est. extremal eigenvalues     -0.92299     1.83399  converged:  T
     TRS4 it   1 1.00000000   0.882E+00       0.000       16.128   0.100E-07
     TRS4 it   2 1.00000000   0.674E+00       0.001       32.256   0.100E-07
     TRS4 it   3 1.00000000   0.483E+00       0.001       32.256   0.100E-07
     TRS4 it   4 1.00000000   0.292E+00       0.001       32.256   0.100E-07
     TRS4 it   5 1.00000000   0.135E+00       0.001       32.256   0.100E-07
     TRS4 it   6 1.00000000   0.372E-01       0.001       32.256   0.100E-07
     TRS4 it   7 1.00000000   0.394E-02       0.001       32.256   0.100E-07
     TRS4 it   8 1.00000000   0.618E-04       0.001       32.256   0.100E-07
     TRS4 it   9 1.00000000   0.170E-07       0.001       32.256   0.100E-07
     Final TRS4 iteration    9 1.00000000   0.170E-07
     Chemical potential (mu):      -0.05243
 
 PAO| energy:  -7.6725070511644571      penalty:   2.2486733286473778E-008
 PAO|LS| adapt:  T T F
 PAO|LS| adapt: scan_steps:    0.0000000000000000       0.10000000000000001        0.0000000000000000     
 PAO|LS| adapt: energies:   -7.6170065110512342       -7.6725070511644571        0.0000000000000000     
 PAO| ======================= Iteration:         3 =============================

     Lanczos converged:  T threshold:   0.100E-02
     Est. extremal eigenvalues:    0.318E+01   0.138E+00
     Est. condition number :    0.230E+02

 Order=           3
     NS sqrt iter    1 1.00000000   0.787E+00       0.001       59.831
     NS sqrt iter    2 1.00000000   0.408E+00       0.001      101.355
     NS sqrt iter    3 1.00000000   0.136E+00       0.001      101.141
     NS sqrt iter    4 1.00000000   0.984E-02       0.001      102.103
     NS sqrt iter    5 1.00000000   0.581E-05       0.001       81.206
     Symmetrizing Results
     Final NS sqrt iter    5 1.00000000   0.519E-10

     Est. extremal eigenvalues     -0.92642     1.79098  converged:  T
     TRS4 it   1 1.00000000   0.879E+00       0.000       16.128   0.100E-07
     TRS4 it   2 1.00000000   0.658E+00       0.001       32.256   0.100E-07
     TRS4 it   3 1.00000000   0.468E+00       0.001       32.256   0.100E-07
     TRS4 it   4 1.00000000   0.272E+00       0.001       32.256   0.100E-07
     TRS4 it   5 1.00000000   0.117E+00       0.001       32.256   0.100E-07
     TRS4 it   6 1.00000000   0.277E-01       0.001       32.256   0.100E-07
     TRS4 it   7 1.00000000   0.219E-02       0.001       32.256   0.100E-07
     TRS4 it   8 1.00000000   0.191E-04       0.001       32.256   0.100E-07
     TRS4 it   9 1.00000000   0.163E-08       0.001       32.256   0.100E-07
     Final TRS4 iteration    9 1.00000000   0.163E-08
     Chemical potential (mu):      -0.03945
 
 PAO| energy:  -7.7155909425817315      penalty:   3.5978745001849982E-007
 PAO|LS| adapt:  T T F
 PAO|LS| adapt: scan_steps:    0.0000000000000000       0.20000000000000001        0.0000000000000000     
 PAO|LS| adapt: energies:   -7.6170065110512342       -7.7155909425817315        0.0000000000000000     
 PAO| ======================= Iteration:         4 =============================

     Lanczos converged:  T threshold:   0.100E-02
     Est. extremal eigenvalues:    0.299E+01   0.156E+00
     Est. condition number :    0.191E+02

 Order=           3
     NS sqrt iter    1 1.00000000   0.750E+00       0.001       61.379
     NS sqrt iter    2 1.00000000   0.374E+00       0.001      102.434
     NS sqrt iter    3 1.00000000   0.106E+00       0.001      101.636
     NS sqrt iter    4 1.00000000   0.482E-02       0.001      104.180
     NS sqrt iter    5 1.00000000   0.846E-06       0.001       82.108
     Symmetrizing Results
     Final NS sqrt iter    5 1.00000000   0.122E-11

     Est. extremal eigenvalues     -0.93175     1.72851  converged:  T
     TRS4 it   1 1.00000000   0.875E+00       0.000       16.128   0.100E-07
     TRS4 it   2 1.00000000   0.631E+00       0.001       32.256   0.100E-07
     TRS4 it   3 1.00000000   0.439E+00       0.001       32.256   0.100E-07
     TRS4 it   4 1.00000000   0.236E+00       0.001       32.256   0.100E-07
     TRS4 it   5 1.00000000   0.856E-01       0.001       32.256   0.100E-07
     TRS4 it   6 1.00000000   0.143E-01       0.001       32.256   0.100E-07
     TRS4 it   7 1.00000000   0.557E-03       0.001       32.256   0.100E-07
     TRS4 it   8 1.00000000   0.121E-05       0.001       32.256   0.100E-07
     TRS4 it   9 1.00000000   0.647E-11       0.001       32.256   0.100E-07
     Final TRS4 iteration    9 1.00000000   0.647E-11
     Chemical potential (mu):      -0.01089
 
 PAO| energy:  -7.7628812517372534      penalty:   5.7565969397842518E-006
 PAO|LS| Need extra step
 PAO|LS| adapt:  T T F
 PAO|LS| adapt: scan_steps:    0.0000000000000000       0.40000000000000002        0.0000000000000000     
 PAO|LS| adapt: energies:   -7.6170065110512342       -7.7628812517372534        0.0000000000000000     
 PAO| ======================= Iteration:         5 =============================

     Lanczos converged:  T threshold:   0.100E-02
     Est. extremal eigenvalues:    0.263E+01   0.183E+00
     Est. condition number :    0.144E+02

 Order=           3
     NS sqrt iter    1 1.00000000   0.686E+00       0.001       61.966
     NS sqrt iter    2 1.00000000   0.312E+00       0.001      101.354
     NS sqrt iter    3 1.00000000   0.655E-01       0.001      102.480
     NS sqrt iter    4 1.00000000   0.134E-02       0.001      104.125
     NS sqrt iter    5 1.00000000   0.240E-07       0.001       54.798
     Symmetrizing Results
     Final NS sqrt iter    5 1.00000000   0.237E-08

     Est. extremal eigenvalues     -0.93300     1.65872  converged:  T
     TRS4 it   1 1.00000000   0.871E+00       0.000       16.128   0.100E-07
     TRS4 it   2 1.00000000   0.595E+00       0.001       32.256   0.100E-07
     TRS4 it   3 1.00000000   0.391E+00       0.001       32.256   0.100E-07
     TRS4 it   4 1.00000000   0.180E+00       0.001       32.256   0.100E-07
     TRS4 it   5 1.00000000   0.461E-01       0.001       32.256   0.100E-07
     TRS4 it   6 1.00000000   0.377E-02       0.001       32.256   0.100E-07
     TRS4 it   7 1.00000000   0.325E-04       0.001       32.256   0.100E-07
     TRS4 it   8 1.00000000   0.306E-08       0.001       32.256   0.100E-07
     Final TRS4 iteration    8 1.00000000   0.306E-08
     Chemical potential (mu):       0.03806
 
 PAO| energy:  -7.7082189605529052      penalty:   9.2105532952491397E-005
 PAO|LS| Need extra step
 PAO|LS| adapt:  T T T
 PAO|LS| adapt: scan_steps:    0.0000000000000000       0.40000000000000002       0.80000000000000004     
 PAO|LS| adapt: energies:   -7.6170065110512342       -7.7628812517372534       -7.7082189605529052     
 PAO|LS| adapt: suggested step_size:   0.49096818542784976     
 PAO|LS| adapt: predicted energy  -7.7680671461245012     
 PAO| ======================= Iteration:         6 =============================

     Lanczos converged:  T threshold:   0.100E-02
     Est. extremal eigenvalues:    0.290E+01   0.163E+00
     Est. condition number :    0.178E+02

 Order=           3
     NS sqrt iter    1 1.00000000   0.734E+00       0.001       61.020
     NS sqrt iter    2 1.00000000   0.359E+00       0.001      101.831
     NS sqrt iter    3 1.00000000   0.947E-01       0.001      102.893
     NS sqrt iter    4 1.00000000   0.355E-02       0.001      102.786
     NS sqrt iter    5 1.00000000   0.372E-06       0.001       79.953
     Symmetrizing Results
     Final NS sqrt iter    5 1.00000000   0.163E-09

     Est. extremal eigenvalues     -0.93324     1.70765  converged:  T
     TRS4 it   1 1.00000000   0.874E+00       0.000       16.128   0.100E-07
     TRS4 it   2 1.00000000   0.621E+00       0.001       32.256   0.100E-07
     TRS4 it   3 1.00000000   0.426E+00       0.001       32.256   0.100E-07
     TRS4 it   4 1.00000000   0.221E+00       0.001       32.256   0.100E-07
     TRS4 it   5 1.00000000   0.739E-01       0.001       32.256   0.100E-07
     TRS4 it   6 1.00000000   0.104E-01       0.001       32.256   0.100E-07
     TRS4 it   7 1.00000000   0.282E-03       0.001       32.256   0.100E-07
     TRS4 it   8 1.00000000   0.295E-06       0.001       32.256   0.100E-07
     TRS4 it   9 1.00000000   0.385E-12       0.001       32.256   0.100E-07
     Final TRS4 iteration    9 1.00000000   0.385E-12
     Chemical potential (mu):       0.00291
 
 PAO| energy:  -7.7673454928060419      penalty:   1.3065896966747047E-005
 PAO|CG| warming up with steepest descent
 PAO|CG| beta:    0.0000000000000000     
 PAO| norm of gradient:  0.41770711482412626     
 PAO| energy improvement: -0.15033898175480775     
 PAO| step      6                   -7.767345493  0.261E-01  0.491E+00     0.089
 PAO|LS| adapt:  T F F
 PAO|LS| adapt: scan_steps:    0.0000000000000000        0.0000000000000000        0.0000000000000000     
 PAO|LS| adapt: energies:   -7.7673454928060419        0.0000000000000000        0.0000000000000000     
 PAO| ======================= Iteration:         7 =============================

     Lanczos converged:  T threshold:   0.100E-02
     Est. extremal eigenvalues:    0.281E+01   0.177E+00
     Est. condition number :    0.159E+02

 Order=           3
     NS sqrt iter    1 1.00000000   0.716E+00       0.001       61.171
     NS sqrt iter    2 1.00000000   0.338E+00       0.001      102.852
     NS sqrt iter    3 1.00000000   0.792E-01       0.001      103.186
     NS sqrt iter    4 1.00000000   0.215E-02       0.001      103.416
     NS sqrt iter    5 1.00000000   0.926E-07       0.001       74.156
     Symmetrizing Results
     Final NS sqrt iter    5 1.00000000   0.743E-09

     Est. extremal eigenvalues     -0.93496     1.69499  converged:  T
     TRS4 it   1 1.00000000   0.873E+00       0.000       16.128   0.100E-07
     TRS4 it   2 1.00000000   0.619E+00       0.001       32.256   0.100E-07
     TRS4 it   3 1.00000000   0.426E+00       0.001       32.256   0.100E-07
     TRS4 it   4 1.00000000   0.222E+00       0.001       32.256   0.100E-07
     TRS4 it   5 1.00000000   0.746E-01       0.001       32.256   0.100E-07
     TRS4 it   6 1.00000000   0.104E-01       0.001       32.256   0.100E-07
     TRS4 it   7 1.00000000   0.263E-03       0.001       32.256   0.100E-07
     TRS4 it   8 1.00000000   0.242E-06       0.001       32.256   0.100E-07
     TRS4 it   9 1.00000000   0.254E-12       0.001       32.256   0.100E-07
     Final TRS4 iteration    9 1.00000000   0.254E-12
     Chemical potential (mu):       0.00508
 
 PAO| energy:  -7.7613486223066905      penalty:   1.9807416936542476E-005
 PAO|LS| adapt:  T F T
 PAO|LS| adapt: scan_steps:    0.0000000000000000        0.0000000000000000       0.49096818542784976     
 PAO|LS| adapt: energies:   -7.7673454928060419        0.0000000000000000       -7.7613486223066905     
 PAO| ======================= Iteration:         8 =============================

     Lanczos converged:  T threshold:   0.100E-02
     Est. extremal eigenvalues:    0.286E+01   0.170E+00
     Est. condition number :    0.168E+02

 Order=           3
     NS sqrt iter    1 1.00000000   0.725E+00       0.001       60.966
     NS sqrt iter    2 1.00000000   0.348E+00       0.001      102.547
     NS sqrt iter    3 1.00000000   0.868E-01       0.001      102.838
     NS sqrt iter    4 1.00000000   0.278E-02       0.001      104.660
     NS sqrt iter    5 1.00000000   0.189E-06       0.001       79.038
     Symmetrizing Results
     Final NS sqrt iter    5 1.00000000   0.867E-09

     Est. extremal eigenvalues     -0.93505     1.70069  converged:  T
     TRS4 it   1 1.00000000   0.873E+00       0.000       16.128   0.100E-07
     TRS4 it   2 1.00000000   0.620E+00       0.001       32.256   0.100E-07
     TRS4 it   3 1.00000000   0.426E+00       0.001       32.256   0.100E-07
     TRS4 it   4 1.00000000   0.221E+00       0.001       32.256   0.100E-07
     TRS4 it   5 1.00000000   0.740E-01       0.001       32.256   0.100E-07
     TRS4 it   6 1.00000000   0.104E-01       0.001       32.256   0.100E-07
     TRS4 it   7 1.00000000   0.279E-03       0.001       32.256   0.100E-07
     TRS4 it   8 1.00000000   0.284E-06       0.001       32.256   0.100E-07
     TRS4 it   9 1.00000000   0.353E-12       0.001       32.256   0.100E-07
     Final TRS4 iteration    9 1.00000000   0.353E-12
     Chemical potential (mu):       0.00355
 
 PAO| energy:  -7.7870198441907457      penalty:   1.4173692313403769E-005
 PAO|LS| adapt:  T T T
 PAO|LS| adapt: scan_steps:    0.0000000000000000       0.24548409271392488       0.49096818542784976     
 PAO|LS| adapt: energies:   -7.7673454928060419       -7.7870198441907457       -7.7613486223066905     
 PAO|LS| adapt: suggested step_size:   0.22925167786572165     
 PAO|LS| adapt: predicted energy  -7.7871189786078281     
 PAO| ======================= Iteration:         9 =============================

     Lanczos converged:  T threshold:   0.100E-02
     Est. extremal eigenvalues:    0.286E+01   0.169E+00
     Est. condition number :    0.169E+02

 Order=           3
     NS sqrt iter    1 1.00000000   0.726E+00       0.001       61.265
     NS sqrt iter    2 1.00000000   0.349E+00       0.001      101.869
     NS sqrt iter    3 1.00000000   0.873E-01       0.001      102.544
     NS sqrt iter    4 1.00000000   0.283E-02       0.001      103.519
     NS sqrt iter    5 1.00000000   0.198E-06       0.001       77.680
     Symmetrizing Results
     Final NS sqrt iter    5 1.00000000   0.847E-09

     Est. extremal eigenvalues     -0.93499     1.70111  converged:  T
     TRS4 it   1 1.00000000   0.873E+00       0.000       16.128   0.100E-07
     TRS4 it   2 1.00000000   0.620E+00       0.001       32.256   0.100E-07
     TRS4 it   3 1.00000000   0.426E+00       0.001       32.256   0.100E-07
     TRS4 it   4 1.00000000   0.221E+00       0.001       32.256   0.100E-07
     TRS4 it   5 1.00000000   0.740E-01       0.001       32.256   0.100E-07
     TRS4 it   6 1.00000000   0.104E-01       0.001       32.256   0.100E-07
     TRS4 it   7 1.00000000   0.280E-03       0.001       32.256   0.100E-07
     TRS4 it   8 1.00000000   0.286E-06       0.001       32.256   0.100E-07
     TRS4 it   9 1.00000000   0.357E-12       0.001       32.256   0.100E-07
     Final TRS4 iteration    9 1.00000000   0.357E-12
     Chemical potential (mu):       0.00347
 
 PAO| energy:  -7.7871433967802579      penalty:   1.3999508881526272E-005
 PAO|CG| trace_G_new    3.6920264588628175E-002
 PAO|CG| trace_G_prev   0.17447923377469582     
 PAO|CG| trace_G_mix   -1.4559459981768651E-003
 PAO|CG| trace_D   0.17447923377469582     
 PAO|CG| trace_D_Gnew   1.4559459981768651E-003
 PAO|CG| beta:   0.21994715220012975     
 PAO| norm of gradient:  0.19214646650050105     
 PAO| energy improvement:  -1.9797903974215991E-002
 PAO| step      9                   -7.787143397  0.120E-01  0.229E+00     0.056
 PAO|LS| adapt:  T F F
 PAO|LS| adapt: scan_steps:    0.0000000000000000        0.0000000000000000        0.0000000000000000     
 PAO|LS| adapt: energies:   -7.7871433967802579        0.0000000000000000        0.0000000000000000     
 PAO| ======================= Iteration:        10 =============================

     Lanczos converged:  T threshold:   0.100E-02
     Est. extremal eigenvalues:    0.282E+01   0.175E+00
     Est. condition number :    0.161E+02

 Order=           3
     NS sqrt iter    1 1.00000000   0.718E+00       0.001       61.218
     NS sqrt iter    2 1.00000000   0.341E+00       0.001      103.273
     NS sqrt iter    3 1.00000000   0.817E-01       0.001      101.969
     NS sqrt iter    4 1.00000000   0.232E-02       0.001      103.480
     NS sqrt iter    5 1.00000000   0.111E-06       0.001       74.299
     Symmetrizing Results
     Final NS sqrt iter    5 1.00000000   0.113E-08

     Est. extremal eigenvalues     -0.93588     1.69797  converged:  T
     TRS4 it   1 1.00000000   0.871E+00       0.000       16.128   0.100E-07
     TRS4 it   2 1.00000000   0.619E+00       0.001       32.256   0.100E-07
     TRS4 it   3 1.00000000   0.424E+00       0.001       32.256   0.100E-07
     TRS4 it   4 1.00000000   0.218E+00       0.001       32.256   0.100E-07
     TRS4 it   5 1.00000000   0.721E-01       0.001       32.256   0.100E-07
     TRS4 it   6 1.00000000   0.986E-02       0.001       32.256   0.100E-07
     TRS4 it   7 1.00000000   0.245E-03       0.001       32.256   0.100E-07
     TRS4 it   8 1.00000000   0.214E-06       0.001       32.256   0.100E-07
     TRS4 it   9 1.00000000   0.198E-12       0.001       32.256   0.100E-07
     Final TRS4 iteration    9 1.00000000   0.198E-12
     Chemical potential (mu):       0.00662
 
 PAO| energy:  -7.7921912937233833      penalty:   1.4540662645918148E-005
 PAO|LS| adapt:  T T F
 PAO|LS| adapt: scan_steps:    0.0000000000000000       0.22925167786572165        0.0000000000000000     
 PAO|LS| adapt: energies:   -7.7871433967802579       -7.7921912937233833        0.0000000000000000     
 PAO| ======================= Iteration:        11 =============================

     Lanczos converged:  T threshold:   0.100E-02
     Est. extremal eigenvalues:    0.278E+01   0.181E+00
     Est. condition number :    0.154E+02

 Order=           3
     NS sqrt iter    1 1.00000000   0.710E+00       0.001       61.477
     NS sqrt iter    2 1.00000000   0.332E+00       0.001      103.132
     NS sqrt iter    3 1.00000000   0.763E-01       0.001      102.841
     NS sqrt iter    4 1.00000000   0.190E-02       0.001      103.681
     NS sqrt iter    5 1.00000000   0.612E-07       0.001       71.716
     Symmetrizing Results
     Final NS sqrt iter    5 1.00000000   0.567E-09

     Est. extremal eigenvalues     -0.93580     1.69618  converged:  T
     TRS4 it   1 1.00000000   0.871E+00       0.000       16.128   0.100E-07
     TRS4 it   2 1.00000000   0.618E+00       0.001       32.256   0.100E-07
     TRS4 it   3 1.00000000   0.423E+00       0.001       32.256   0.100E-07
     TRS4 it   4 1.00000000   0.216E+00       0.001       32.256   0.100E-07
     TRS4 it   5 1.00000000   0.704E-01       0.001       32.256   0.100E-07
     TRS4 it   6 1.00000000   0.931E-02       0.001       32.256   0.100E-07
     TRS4 it   7 1.00000000   0.215E-03       0.001       32.256   0.100E-07
     TRS4 it   8 1.00000000   0.159E-06       0.001       32.256   0.100E-07
     TRS4 it   9 1.00000000   0.108E-12       0.001       32.256   0.100E-07
     Final TRS4 iteration    9 1.00000000   0.108E-12
     Chemical potential (mu):       0.00987
 
 PAO| energy:  -7.7907961674584385      penalty:   1.5753308539285768E-005
 PAO|LS| adapt:  T T T
 PAO|LS| adapt: scan_steps:    0.0000000000000000       0.22925167786572165       0.45850335573144330     
 PAO|LS| adapt: energies:   -7.7871433967802579       -7.7921912937233833       -7.7907961674584385     
 PAO|LS| adapt: suggested step_size:   0.29423699452442420     
 PAO|LS| adapt: predicted energy  -7.7924501538344773     
 PAO| ======================= Iteration:        12 =============================

     Lanczos converged:  T threshold:   0.100E-02
     Est. extremal eigenvalues:    0.281E+01   0.177E+00
     Est. condition number :    0.159E+02

 Order=           3
     NS sqrt iter    1 1.00000000   0.716E+00       0.001       60.208
     NS sqrt iter    2 1.00000000   0.338E+00       0.001      101.373
     NS sqrt iter    3 1.00000000   0.801E-01       0.001      102.652
     NS sqrt iter    4 1.00000000   0.220E-02       0.001      103.178
     NS sqrt iter    5 1.00000000   0.938E-07       0.001       74.860
     Symmetrizing Results
     Final NS sqrt iter    5 1.00000000   0.105E-08

     Est. extremal eigenvalues     -0.93596     1.69733  converged:  T
     TRS4 it   1 1.00000000   0.871E+00       0.000       16.128   0.100E-07
     TRS4 it   2 1.00000000   0.618E+00       0.001       32.256   0.100E-07
     TRS4 it   3 1.00000000   0.424E+00       0.001       32.256   0.100E-07
     TRS4 it   4 1.00000000   0.218E+00       0.001       32.256   0.100E-07
     TRS4 it   5 1.00000000   0.716E-01       0.001       32.256   0.100E-07
     TRS4 it   6 1.00000000   0.970E-02       0.001       32.256   0.100E-07
     TRS4 it   7 1.00000000   0.236E-03       0.001       32.256   0.100E-07
     TRS4 it   8 1.00000000   0.196E-06       0.001       32.256   0.100E-07
     TRS4 it   9 1.00000000   0.166E-12       0.001       32.256   0.100E-07
     Final TRS4 iteration    9 1.00000000   0.166E-12
     Chemical potential (mu):       0.00753
 
 PAO| energy:  -7.7924339311011748      penalty:   1.4808511799126262E-005
 PAO|CG| trace_G_new    1.1852402844147375E-002
 PAO|CG| trace_G_prev    3.6920264588628175E-002
 PAO|CG| trace_G_mix   -4.5533470303653410E-004
 PAO|CG| trace_D    4.4720540467316057E-002
 PAO|CG| trace_D_Gnew   2.0716274141113137E-004
 PAO|CG| beta:   0.33335994972730559     
 PAO| norm of gradient:  0.10886874135465779     
 PAO| energy improvement:  -5.2905343209168620E-003
 PAO| step     12                   -7.792433931  0.680E-02  0.294E+00     0.056
 PAO|LS| adapt:  T F F
 PAO|LS| adapt: scan_steps:    0.0000000000000000        0.0000000000000000        0.0000000000000000     
 PAO|LS| adapt: energies:   -7.7924339311011748        0.0000000000000000        0.0000000000000000     
 PAO| ======================= Iteration:        13 =============================

     Lanczos converged:  T threshold:   0.100E-02
     Est. extremal eigenvalues:    0.278E+01   0.181E+00
     Est. condition number :    0.154E+02

 Order=           3
     NS sqrt iter    1 1.00000000   0.708E+00       0.001       60.318
     NS sqrt iter    2 1.00000000   0.331E+00       0.001      102.758
     NS sqrt iter    3 1.00000000   0.758E-01       0.001      101.931
     NS sqrt iter    4 1.00000000   0.187E-02       0.001      100.945
     NS sqrt iter    5 1.00000000   0.589E-07       0.001       68.611
     Symmetrizing Results
     Final NS sqrt iter    5 1.00000000   0.561E-09

     Est. extremal eigenvalues     -0.93644     1.69145  converged:  T
     TRS4 it   1 1.00000000   0.871E+00       0.000       16.128   0.100E-07
     TRS4 it   2 1.00000000   0.615E+00       0.001       32.256   0.100E-07
     TRS4 it   3 1.00000000   0.420E+00       0.001       32.256   0.100E-07
     TRS4 it   4 1.00000000   0.213E+00       0.001       32.256   0.100E-07
     TRS4 it   5 1.00000000   0.681E-01       0.001       32.256   0.100E-07
     TRS4 it   6 1.00000000   0.872E-02       0.001       32.256   0.100E-07
     TRS4 it   7 1.00000000   0.188E-03       0.001       32.256   0.100E-07
     TRS4 it   8 1.00000000   0.122E-06       0.001       32.256   0.100E-07
     TRS4 it   9 1.00000000   0.633E-13       0.001       32.256   0.100E-07
     Final TRS4 iteration    9 1.00000000   0.633E-13
     Chemical potential (mu):       0.01207
 
 PAO| energy:  -7.7945094985095418      penalty:   1.5120572531456282E-005
 PAO|LS| adapt:  T T F
 PAO|LS| adapt: scan_steps:    0.0000000000000000       0.29423699452442420        0.0000000000000000     
 PAO|LS| adapt: energies:   -7.7924339311011748       -7.7945094985095418        0.0000000000000000     
 PAO| ======================= Iteration:        14 =============================

     Lanczos converged:  T threshold:   0.100E-02
     Est. extremal eigenvalues:    0.274E+01   0.185E+00
     Est. condition number :    0.148E+02

 Order=           3
     NS sqrt iter    1 1.00000000   0.701E+00       0.001       61.224
     NS sqrt iter    2 1.00000000   0.324E+00       0.001      103.699
     NS sqrt iter    3 1.00000000   0.717E-01       0.001      102.158
     NS sqrt iter    4 1.00000000   0.159E-02       0.001      103.645
     NS sqrt iter    5 1.00000000   0.368E-07       0.001       65.115
     Symmetrizing Results
     Final NS sqrt iter    5 1.00000000   0.312E-08

     Est. extremal eigenvalues     -0.93642     1.68588  converged:  T
     TRS4 it   1 1.00000000   0.870E+00       0.000       16.128   0.100E-07
     TRS4 it   2 1.00000000   0.613E+00       0.001       32.256   0.100E-07
     TRS4 it   3 1.00000000   0.416E+00       0.001       32.256   0.100E-07
     TRS4 it   4 1.00000000   0.208E+00       0.001       32.256   0.100E-07
     TRS4 it   5 1.00000000   0.648E-01       0.001       32.256   0.100E-07
     TRS4 it   6 1.00000000   0.785E-02       0.001       32.256   0.100E-07
     TRS4 it   7 1.00000000   0.150E-03       0.001       32.256   0.100E-07
     TRS4 it   8 1.00000000   0.756E-07       0.001       32.256   0.100E-07
     Final TRS4 iteration    8 1.00000000   0.756E-07
     Chemical potential (mu):       0.01378
 
 PAO| energy:  -7.7938520352621952      penalty:   1.5917320955722693E-005
 PAO|LS| adapt:  T T T
 PAO|LS| adapt: scan_steps:    0.0000000000000000       0.29423699452442420       0.58847398904884840     
 PAO|LS| adapt: energies:   -7.7924339311011748       -7.7945094985095418       -7.7938520352621952     
 PAO|LS| adapt: suggested step_size:   0.37057325979625866     
 PAO|LS| adapt: predicted energy  -7.7946014760458766     
 PAO| ======================= Iteration:        15 =============================

     Lanczos converged:  T threshold:   0.100E-02
     Est. extremal eigenvalues:    0.277E+01   0.182E+00
     Est. condition number :    0.152E+02

 Order=           3
     NS sqrt iter    1 1.00000000   0.707E+00       0.001       61.332
     NS sqrt iter    2 1.00000000   0.330E+00       0.001      103.828
     NS sqrt iter    3 1.00000000   0.747E-01       0.001      102.419
     NS sqrt iter    4 1.00000000   0.179E-02       0.001      102.436
     NS sqrt iter    5 1.00000000   0.521E-07       0.001       69.210
     Symmetrizing Results
     Final NS sqrt iter    5 1.00000000   0.448E-09

     Est. extremal eigenvalues     -0.93648     1.68997  converged:  T
     TRS4 it   1 1.00000000   0.871E+00       0.000       16.128   0.100E-07
     TRS4 it   2 1.00000000   0.615E+00       0.001       32.256   0.100E-07
     TRS4 it   3 1.00000000   0.419E+00       0.001       32.256   0.100E-07
     TRS4 it   4 1.00000000   0.212E+00       0.001       32.256   0.100E-07
     TRS4 it   5 1.00000000   0.673E-01       0.001       32.256   0.100E-07
     TRS4 it   6 1.00000000   0.849E-02       0.001       32.256   0.100E-07
     TRS4 it   7 1.00000000   0.178E-03       0.001       32.256   0.100E-07
     TRS4 it   8 1.00000000   0.108E-06       0.001       32.256   0.100E-07
     TRS4 it   9 1.00000000   0.492E-13       0.001       32.256   0.100E-07
     Final TRS4 iteration    9 1.00000000   0.492E-13
     Chemical potential (mu):       0.01323
 
 PAO| energy:  -7.7945984310888523      penalty:   1.5277661457305242E-005
 PAO|CG| trace_G_new    2.6238289219336652E-003
 PAO|CG| trace_G_prev    1.1852402844147375E-002
 PAO|CG| trace_G_mix    6.3842342944997531E-005
 PAO|CG| trace_D    1.6684025827533207E-002
 PAO|CG| trace_D_Gnew   3.4117627299136638E-005
 PAO|CG| beta:   0.21598882628704855     
 PAO| norm of gradient:   5.1223324003169347E-002
 PAO| energy improvement:  -2.1644999876775373E-003
 PAO| step     15                   -7.794598431  0.320E-02  0.371E+00     0.055
 PAO|LS| adapt:  T F F
 PAO|LS| adapt: scan_steps:    0.0000000000000000        0.0000000000000000        0.0000000000000000     
 PAO|LS| adapt: energies:   -7.7945984310888523        0.0000000000000000        0.0000000000000000     
 PAO| ======================= Iteration:        16 =============================

     Lanczos converged:  T threshold:   0.100E-02
     Est. extremal eigenvalues:    0.276E+01   0.183E+00
     Est. condition number :    0.151E+02

 Order=           3
     NS sqrt iter    1 1.00000000   0.705E+00       0.001       62.012
     NS sqrt iter    2 1.00000000   0.328E+00       0.001      101.927
     NS sqrt iter    3 1.00000000   0.740E-01       0.001      102.442
     NS sqrt iter    4 1.00000000   0.174E-02       0.001      102.535
     NS sqrt iter    5 1.00000000   0.475E-07       0.001       66.356
     Symmetrizing Results
     Final NS sqrt iter    5 1.00000000   0.353E-09

     Est. extremal eigenvalues     -0.93651     1.68973  converged:  T
     TRS4 it   1 1.00000000   0.871E+00       0.000       16.128   0.100E-07
     TRS4 it   2 1.00000000   0.614E+00       0.001       32.256   0.100E-07
     TRS4 it   3 1.00000000   0.417E+00       0.001       32.256   0.100E-07
     TRS4 it   4 1.00000000   0.210E+00       0.001       32.256   0.100E-07
     TRS4 it   5 1.00000000   0.662E-01       0.001       32.256   0.100E-07
     TRS4 it   6 1.00000000   0.822E-02       0.001       32.256   0.100E-07
     TRS4 it   7 1.00000000   0.167E-03       0.001       32.256   0.100E-07
     TRS4 it   8 1.00000000   0.966E-07       0.001       32.256   0.100E-07
     TRS4 it   9 1.00000000   0.404E-13       0.001       32.256   0.100E-07
     Final TRS4 iteration    9 1.00000000   0.404E-13
     Chemical potential (mu):       0.01407
 
 PAO| energy:  -7.7947245316451630      penalty:   1.5059322503515525E-005
 PAO|LS| adapt:  T T F
 PAO|LS| adapt: scan_steps:    0.0000000000000000       0.37057325979625866        0.0000000000000000     
 PAO|LS| adapt: energies:   -7.7945984310888523       -7.7947245316451630        0.0000000000000000     
 PAO| ======================= Iteration:        17 =============================

     Lanczos converged:  T threshold:   0.100E-02
     Est. extremal eigenvalues:    0.275E+01   0.183E+00
     Est. condition number :    0.150E+02

 Order=           3
     NS sqrt iter    1 1.00000000   0.703E+00       0.001       61.169
     NS sqrt iter    2 1.00000000   0.327E+00       0.001      102.645
     NS sqrt iter    3 1.00000000   0.734E-01       0.001      103.641
     NS sqrt iter    4 1.00000000   0.169E-02       0.001      101.679
     NS sqrt iter    5 1.00000000   0.433E-07       0.001       68.676
     Symmetrizing Results
     Final NS sqrt iter    5 1.00000000   0.355E-09

     Est. extremal eigenvalues     -0.93641     1.68956  converged:  T
     TRS4 it   1 1.00000000   0.871E+00       0.000       16.128   0.100E-07
     TRS4 it   2 1.00000000   0.613E+00       0.001       32.256   0.100E-07
     TRS4 it   3 1.00000000   0.416E+00       0.001       32.256   0.100E-07
     TRS4 it   4 1.00000000   0.209E+00       0.001       32.256   0.100E-07
     TRS4 it   5 1.00000000   0.651E-01       0.001       32.256   0.100E-07
     TRS4 it   6 1.00000000   0.796E-02       0.001       32.256   0.100E-07
     TRS4 it   7 1.00000000   0.158E-03       0.001       32.256   0.100E-07
     TRS4 it   8 1.00000000   0.868E-07       0.001       32.256   0.100E-07
     TRS4 it   9 1.00000000   0.324E-13       0.001       32.256   0.100E-07
     Final TRS4 iteration    9 1.00000000   0.324E-13
     Chemical potential (mu):       0.01488
 
 PAO| energy:  -7.7931579187758651      penalty:   1.4967085519461527E-005
 PAO|LS| adapt:  T T T
 PAO|LS| adapt: scan_steps:    0.0000000000000000       0.37057325979625866       0.74114651959251732     
 PAO|LS| adapt: energies:   -7.7945984310888523       -7.7947245316451630       -7.7931579187758651     
 PAO|LS| adapt: suggested step_size:   0.21289289419970153     
 PAO|LS| adapt: predicted energy  -7.7948777675453211     
 PAO| ======================= Iteration:        18 =============================

     Lanczos converged:  T threshold:   0.100E-02
     Est. extremal eigenvalues:    0.276E+01   0.182E+00
     Est. condition number :    0.152E+02

 Order=           3
     NS sqrt iter    1 1.00000000   0.706E+00       0.001       60.921
     NS sqrt iter    2 1.00000000   0.329E+00       0.001      101.746
     NS sqrt iter    3 1.00000000   0.743E-01       0.001      102.186
     NS sqrt iter    4 1.00000000   0.176E-02       0.001      103.163
     NS sqrt iter    5 1.00000000   0.494E-07       0.001       70.117
     Symmetrizing Results
     Final NS sqrt iter    5 1.00000000   0.435E-09

     Est. extremal eigenvalues     -0.93651     1.68982  converged:  T
     TRS4 it   1 1.00000000   0.871E+00       0.000       16.128   0.100E-07
     TRS4 it   2 1.00000000   0.614E+00       0.001       32.256   0.100E-07
     TRS4 it   3 1.00000000   0.418E+00       0.001       32.256   0.100E-07
     TRS4 it   4 1.00000000   0.211E+00       0.001       32.256   0.100E-07
     TRS4 it   5 1.00000000   0.666E-01       0.001       32.256   0.100E-07
     TRS4 it   6 1.00000000   0.833E-02       0.001       32.256   0.100E-07
     TRS4 it   7 1.00000000   0.172E-03       0.001       32.256   0.100E-07
     TRS4 it   8 1.00000000   0.101E-06       0.001       32.256   0.100E-07
     TRS4 it   9 1.00000000   0.436E-13       0.001       32.256   0.100E-07
     Final TRS4 iteration    9 1.00000000   0.436E-13
     Chemical potential (mu):       0.01372
 
 PAO| energy:  -7.7948772971633655      penalty:   1.5137086478742542E-005
 PAO|CG| trace_G_new    7.3218510362409747E-004
 PAO|CG| trace_G_prev    2.6238289219336652E-003
 PAO|CG| trace_G_mix    1.7176496034211222E-006
 PAO|CG| trace_D    3.3874202459473236E-003
 PAO|CG| trace_D_Gnew  -1.8084401135532646E-006
 PAO|CG| beta:   0.27839751590296091     
 PAO| norm of gradient:   2.7058919114112772E-002
 PAO| energy improvement:  -2.7886607451321765E-004
 PAO| step     18                   -7.794877297  0.169E-02  0.213E+00     0.056
 PAO|LS| adapt:  T F F
 PAO|LS| adapt: scan_steps:    0.0000000000000000        0.0000000000000000        0.0000000000000000     
 PAO|LS| adapt: energies:   -7.7948772971633655        0.0000000000000000        0.0000000000000000     
 PAO| ======================= Iteration:        19 =============================

     Lanczos converged:  T threshold:   0.100E-02
     Est. extremal eigenvalues:    0.276E+01   0.182E+00
     Est. condition number :    0.152E+02

 Order=           3
     NS sqrt iter    1 1.00000000   0.706E+00       0.001       59.860
     NS sqrt iter    2 1.00000000   0.329E+00       0.001      102.984
     NS sqrt iter    3 1.00000000   0.745E-01       0.001      102.976
     NS sqrt iter    4 1.00000000   0.177E-02       0.001      103.196
     NS sqrt iter    5 1.00000000   0.499E-07       0.001       67.363
     Symmetrizing Results
     Final NS sqrt iter    5 1.00000000   0.443E-09

     Est. extremal eigenvalues     -0.93651     1.69012  converged:  T
     TRS4 it   1 1.00000000   0.871E+00       0.000       16.128   0.100E-07
     TRS4 it   2 1.00000000   0.614E+00       0.001       32.256   0.100E-07
     TRS4 it   3 1.00000000   0.418E+00       0.001       32.256   0.100E-07
     TRS4 it   4 1.00000000   0.211E+00       0.001       32.256   0.100E-07
     TRS4 it   5 1.00000000   0.665E-01       0.001       32.256   0.100E-07
     TRS4 it   6 1.00000000   0.832E-02       0.001       32.256   0.100E-07
     TRS4 it   7 1.00000000   0.172E-03       0.001       32.256   0.100E-07
     TRS4 it   8 1.00000000   0.103E-06       0.001       32.256   0.100E-07
     TRS4 it   9 1.00000000   0.451E-13       0.001       32.256   0.100E-07
     Final TRS4 iteration    9 1.00000000   0.451E-13
     Chemical potential (mu):       0.01345
 
 PAO| energy:  -7.7949962342038841      penalty:   1.4846925709310960E-005
 PAO|LS| adapt:  T T F
 PAO|LS| adapt: scan_steps:    0.0000000000000000       0.21289289419970153        0.0000000000000000     
 PAO|LS| adapt: energies:   -7.7948772971633655       -7.7949962342038841        0.0000000000000000     
 PAO| ======================= Iteration:        20 =============================

     Lanczos converged:  T threshold:   0.100E-02
     Est. extremal eigenvalues:    0.276E+01   0.182E+00
     Est. condition number :    0.152E+02

 Order=           3
     NS sqrt iter    1 1.00000000   0.705E+00       0.001       61.154
     NS sqrt iter    2 1.00000000   0.329E+00       0.001      103.099
     NS sqrt iter    3 1.00000000   0.747E-01       0.001      102.770
     NS sqrt iter    4 1.00000000   0.178E-02       0.001      103.212
     NS sqrt iter    5 1.00000000   0.504E-07       0.001       68.719
     Symmetrizing Results
     Final NS sqrt iter    5 1.00000000   0.447E-09

     Est. extremal eigenvalues     -0.93651     1.69041  converged:  T
     TRS4 it   1 1.00000000   0.871E+00       0.000       16.128   0.100E-07
     TRS4 it   2 1.00000000   0.614E+00       0.001       32.256   0.100E-07
     TRS4 it   3 1.00000000   0.418E+00       0.001       32.256   0.100E-07
     TRS4 it   4 1.00000000   0.210E+00       0.001       32.256   0.100E-07
     TRS4 it   5 1.00000000   0.664E-01       0.001       32.256   0.100E-07
     TRS4 it   6 1.00000000   0.832E-02       0.001       32.256   0.100E-07
     TRS4 it   7 1.00000000   0.173E-03       0.001       32.256   0.100E-07
     TRS4 it   8 1.00000000   0.104E-06       0.001       32.256   0.100E-07
     TRS4 it   9 1.00000000   0.466E-13       0.001       32.256   0.100E-07
     Final TRS4 iteration    9 1.00000000   0.466E-13
     Chemical potential (mu):       0.01317
 
 PAO| energy:  -7.7950406695655410      penalty:   1.4569293822348285E-005
 PAO|LS| adapt:  T T F
 PAO|LS| adapt: scan_steps:    0.0000000000000000       0.42578578839940306        0.0000000000000000     
 PAO|LS| adapt: energies:   -7.7948772971633655       -7.7950406695655410        0.0000000000000000     
 PAO| ======================= Iteration:        21 =============================

     Lanczos converged:  T threshold:   0.100E-02
     Est. extremal eigenvalues:    0.276E+01   0.182E+00
     Est. condition number :    0.152E+02

 Order=           3
     NS sqrt iter    1 1.00000000   0.705E+00       0.001       60.670
     NS sqrt iter    2 1.00000000   0.330E+00       0.001      101.154
     NS sqrt iter    3 1.00000000   0.752E-01       0.001      100.602
     NS sqrt iter    4 1.00000000   0.180E-02       0.001      104.852
     NS sqrt iter    5 1.00000000   0.515E-07       0.001       68.099
     Symmetrizing Results
     Final NS sqrt iter    5 1.00000000   0.524E-09

     Est. extremal eigenvalues     -0.93650     1.69102  converged:  T
     TRS4 it   1 1.00000000   0.871E+00       0.000       16.128   0.100E-07
     TRS4 it   2 1.00000000   0.614E+00       0.001       32.256   0.100E-07
     TRS4 it   3 1.00000000   0.417E+00       0.001       32.256   0.100E-07
     TRS4 it   4 1.00000000   0.210E+00       0.001       32.256   0.100E-07
     TRS4 it   5 1.00000000   0.662E-01       0.001       32.256   0.100E-07
     TRS4 it   6 1.00000000   0.830E-02       0.001       32.256   0.100E-07
     TRS4 it   7 1.00000000   0.174E-03       0.001       32.256   0.100E-07
     TRS4 it   8 1.00000000   0.107E-06       0.001       32.256   0.100E-07
     TRS4 it   9 1.00000000   0.510E-13       0.001       32.256   0.100E-07
     Final TRS4 iteration    9 1.00000000   0.510E-13
     Chemical potential (mu):       0.01263
 
 PAO| energy:  -7.7949035918109795      penalty:   1.4051041586216116E-005
 PAO|LS| Need extra step
 PAO|LS| adapt:  T T T
 PAO|LS| adapt: scan_steps:    0.0000000000000000       0.42578578839940306       0.85157157679880613     
 PAO|LS| adapt: energies:   -7.7948772971633655       -7.7950406695655410       -7.7949035918109795     
 PAO|LS| adapt: suggested step_size:   0.44441764299149372     
 PAO|LS| adapt: predicted energy  -7.7950409572207802     
 PAO| ======================= Iteration:        22 =============================

     Lanczos converged:  T threshold:   0.100E-02
     Est. extremal eigenvalues:    0.276E+01   0.182E+00
     Est. condition number :    0.152E+02

 Order=           3
     NS sqrt iter    1 1.00000000   0.705E+00       0.001       61.164
     NS sqrt iter    2 1.00000000   0.329E+00       0.001      102.361
     NS sqrt iter    3 1.00000000   0.748E-01       0.001      102.851
     NS sqrt iter    4 1.00000000   0.178E-02       0.001      105.794
     NS sqrt iter    5 1.00000000   0.504E-07       0.001       67.811
     Symmetrizing Results
     Final NS sqrt iter    5 1.00000000   0.447E-09

     Est. extremal eigenvalues     -0.93651     1.69044  converged:  T
     TRS4 it   1 1.00000000   0.871E+00       0.000       16.128   0.100E-07
     TRS4 it   2 1.00000000   0.614E+00       0.001       32.256   0.100E-07
     TRS4 it   3 1.00000000   0.418E+00       0.001       32.256   0.100E-07
     TRS4 it   4 1.00000000   0.210E+00       0.001       32.256   0.100E-07
     TRS4 it   5 1.00000000   0.664E-01       0.001       32.256   0.100E-07
     TRS4 it   6 1.00000000   0.832E-02       0.001       32.256   0.100E-07
     TRS4 it   7 1.00000000   0.173E-03       0.001       32.256   0.100E-07
     TRS4 it   8 1.00000000   0.104E-06       0.001       32.256   0.100E-07
     TRS4 it   9 1.00000000   0.473E-13       0.001       32.256   0.100E-07
     Final TRS4 iteration    9 1.00000000   0.473E-13
     Chemical potential (mu):       0.01315
 
 PAO| energy:  -7.7950409928433269      penalty:   1.4545586538967286E-005
 PAO|CG| trace_G_new    2.2537872775746029E-004
 PAO|CG| trace_G_prev    7.3218510362409747E-004
 PAO|CG| trace_G_mix    3.1021339782646412E-006
 PAO|CG| trace_D    9.9573463935911650E-004
 PAO|CG| trace_D_Gnew  -1.9049998469611258E-006
 PAO|CG| beta:   0.30357978150469456     
 PAO| norm of gradient:   1.5012618950651492E-002
 PAO| energy improvement:  -1.6369567996132872E-004
 PAO| step     22                   -7.795040993  0.938E-03  0.444E+00     0.073
 PAO|LS| adapt:  T F F
 PAO|LS| adapt: scan_steps:    0.0000000000000000        0.0000000000000000        0.0000000000000000     
 PAO|LS| adapt: energies:   -7.7950409928433269        0.0000000000000000        0.0000000000000000     
 PAO| ======================= Iteration:        23 =============================

     Lanczos converged:  T threshold:   0.100E-02
     Est. extremal eigenvalues:    0.276E+01   0.182E+00
     Est. condition number :    0.152E+02

 Order=           3
     NS sqrt iter    1 1.00000000   0.705E+00       0.001       60.757
     NS sqrt iter    2 1.00000000   0.329E+00       0.001      102.978
     NS sqrt iter    3 1.00000000   0.748E-01       0.001      103.002
     NS sqrt iter    4 1.00000000   0.179E-02       0.001      101.828
     NS sqrt iter    5 1.00000000   0.505E-07       0.001       68.119
     Symmetrizing Results
     Final NS sqrt iter    5 1.00000000   0.453E-09

     Est. extremal eigenvalues     -0.93651     1.69027  converged:  T
     TRS4 it   1 1.00000000   0.871E+00       0.000       16.128   0.100E-07
     TRS4 it   2 1.00000000   0.614E+00       0.001       32.256   0.100E-07
     TRS4 it   3 1.00000000   0.418E+00       0.001       32.256   0.100E-07
     TRS4 it   4 1.00000000   0.210E+00       0.001       32.256   0.100E-07
     TRS4 it   5 1.00000000   0.665E-01       0.001       32.256   0.100E-07
     TRS4 it   6 1.00000000   0.835E-02       0.001       32.256   0.100E-07
     TRS4 it   7 1.00000000   0.175E-03       0.001       32.256   0.100E-07
     TRS4 it   8 1.00000000   0.107E-06       0.001       32.256   0.100E-07
     TRS4 it   9 1.00000000   0.491E-13       0.001       32.256   0.100E-07
     Final TRS4 iteration    9 1.00000000   0.491E-13
     Chemical potential (mu):       0.01286
 
 PAO| energy:  -7.7950910335716381      penalty:   1.3861380578426437E-005
 PAO|LS| adapt:  T T F
 PAO|LS| adapt: scan_steps:    0.0000000000000000       0.44441764299149372        0.0000000000000000     
 PAO|LS| adapt: energies:   -7.7950409928433269       -7.7950910335716381        0.0000000000000000     
 PAO| ======================= Iteration:        24 =============================

     Lanczos converged:  T threshold:   0.100E-02
     Est. extremal eigenvalues:    0.276E+01   0.182E+00
     Est. condition number :    0.152E+02

 Order=           3
     NS sqrt iter    1 1.00000000   0.705E+00       0.001       60.911
     NS sqrt iter    2 1.00000000   0.329E+00       0.001      102.246
     NS sqrt iter    3 1.00000000   0.749E-01       0.001      101.749
     NS sqrt iter    4 1.00000000   0.179E-02       0.001      105.912
     NS sqrt iter    5 1.00000000   0.505E-07       0.001       68.491
     Symmetrizing Results
     Final NS sqrt iter    5 1.00000000   0.458E-09

     Est. extremal eigenvalues     -0.93651     1.69009  converged:  T
     TRS4 it   1 1.00000000   0.871E+00       0.000       16.128   0.100E-07
     TRS4 it   2 1.00000000   0.614E+00       0.001       32.256   0.100E-07
     TRS4 it   3 1.00000000   0.418E+00       0.001       32.256   0.100E-07
     TRS4 it   4 1.00000000   0.211E+00       0.001       32.256   0.100E-07
     TRS4 it   5 1.00000000   0.666E-01       0.001       32.256   0.100E-07
     TRS4 it   6 1.00000000   0.838E-02       0.001       32.256   0.100E-07
     TRS4 it   7 1.00000000   0.176E-03       0.001       32.256   0.100E-07
     TRS4 it   8 1.00000000   0.109E-06       0.001       32.256   0.100E-07
     TRS4 it   9 1.00000000   0.513E-13       0.001       32.256   0.100E-07
     Final TRS4 iteration    9 1.00000000   0.513E-13
     Chemical potential (mu):       0.01256
 
 PAO| energy:  -7.7950396632724015      penalty:   1.3205752037423606E-005
 PAO|LS| adapt:  T T T
 PAO|LS| adapt: scan_steps:    0.0000000000000000       0.44441764299149372       0.88883528598298744     
 PAO|LS| adapt: energies:   -7.7950409928433269       -7.7950910335716381       -7.7950396632724015     
 PAO|LS| adapt: suggested step_size:   0.44150432680130908     
 PAO|LS| adapt: predicted energy  -7.7950910357505911     
 PAO| ======================= Iteration:        25 =============================

     Lanczos converged:  T threshold:   0.100E-02
     Est. extremal eigenvalues:    0.276E+01   0.182E+00
     Est. condition number :    0.152E+02

 Order=           3
     NS sqrt iter    1 1.00000000   0.705E+00       0.001       60.961
     NS sqrt iter    2 1.00000000   0.329E+00       0.001      102.614
     NS sqrt iter    3 1.00000000   0.748E-01       0.001      102.072
     NS sqrt iter    4 1.00000000   0.179E-02       0.001      105.684
     NS sqrt iter    5 1.00000000   0.505E-07       0.001       67.697
     Symmetrizing Results
     Final NS sqrt iter    5 1.00000000   0.453E-09

     Est. extremal eigenvalues     -0.93651     1.69027  converged:  T
     TRS4 it   1 1.00000000   0.871E+00       0.000       16.128   0.100E-07
     TRS4 it   2 1.00000000   0.614E+00       0.001       32.256   0.100E-07
     TRS4 it   3 1.00000000   0.418E+00       0.001       32.256   0.100E-07
     TRS4 it   4 1.00000000   0.210E+00       0.001       32.256   0.100E-07
     TRS4 it   5 1.00000000   0.665E-01       0.001       32.256   0.100E-07
     TRS4 it   6 1.00000000   0.835E-02       0.001       32.256   0.100E-07
     TRS4 it   7 1.00000000   0.175E-03       0.001       32.256   0.100E-07
     TRS4 it   8 1.00000000   0.107E-06       0.001       32.256   0.100E-07
     TRS4 it   9 1.00000000   0.492E-13       0.001       32.256   0.100E-07
     Final TRS4 iteration    9 1.00000000   0.492E-13
     Chemical potential (mu):       0.01286
 
 PAO| energy:  -7.7950910346788378      penalty:   1.3865772068183933E-005
 PAO|CG| trace_G_new    8.1428735488952626E-005
 PAO|CG| trace_G_prev    2.2537872775746029E-004
 PAO|CG| trace_G_mix    7.3568307454148594E-007
 PAO|CG| trace_D    3.1830295181745744E-004
 PAO|CG| trace_D_Gnew  -3.6786598496369370E-007
 PAO|CG| beta:   0.35803313479188859     
 PAO| norm of gradient:   9.0237872032175401E-003
 PAO| energy improvement:  -5.0041835510938881E-005
 PAO| step     25                   -7.795091035  0.564E-03  0.442E+00     0.056
 PAO|LS| adapt:  T F F
 PAO|LS| adapt: scan_steps:    0.0000000000000000        0.0000000000000000        0.0000000000000000     
 PAO|LS| adapt: energies:   -7.7950910346788378        0.0000000000000000        0.0000000000000000     
 PAO| ======================= Iteration:        26 =============================

     Lanczos converged:  T threshold:   0.100E-02
     Est. extremal eigenvalues:    0.276E+01   0.182E+00
     Est. condition number :    0.152E+02

 Order=           3
     NS sqrt iter    1 1.00000000   0.705E+00       0.001       60.908
     NS sqrt iter    2 1.00000000   0.329E+00       0.001      103.433
     NS sqrt iter    3 1.00000000   0.747E-01       0.001      104.318
     NS sqrt iter    4 1.00000000   0.178E-02       0.001      103.557
     NS sqrt iter    5 1.00000000   0.501E-07       0.001       67.454
     Symmetrizing Results
     Final NS sqrt iter    5 1.00000000   0.456E-09

     Est. extremal eigenvalues     -0.93652     1.68994  converged:  T
     TRS4 it   1 1.00000000   0.871E+00       0.000       16.128   0.100E-07
     TRS4 it   2 1.00000000   0.614E+00       0.001       32.256   0.100E-07
     TRS4 it   3 1.00000000   0.418E+00       0.001       32.256   0.100E-07
     TRS4 it   4 1.00000000   0.210E+00       0.001       32.256   0.100E-07
     TRS4 it   5 1.00000000   0.664E-01       0.001       32.256   0.100E-07
     TRS4 it   6 1.00000000   0.833E-02       0.001       32.256   0.100E-07
     TRS4 it   7 1.00000000   0.173E-03       0.001       32.256   0.100E-07
     TRS4 it   8 1.00000000   0.105E-06       0.001       32.256   0.100E-07
     TRS4 it   9 1.00000000   0.473E-13       0.001       32.256   0.100E-07
     Final TRS4 iteration    9 1.00000000   0.473E-13
     Chemical potential (mu):       0.01299
 
 PAO| energy:  -7.7950954134578812      penalty:   1.3140325097288260E-005
 PAO|LS| adapt:  T T F
 PAO|LS| adapt: scan_steps:    0.0000000000000000       0.44150432680130908        0.0000000000000000     
 PAO|LS| adapt: energies:   -7.7950910346788378       -7.7950954134578812        0.0000000000000000     
 PAO| ======================= Iteration:        27 =============================

     Lanczos converged:  T threshold:   0.100E-02
     Est. extremal eigenvalues:    0.276E+01   0.182E+00
     Est. condition number :    0.152E+02

 Order=           3
     NS sqrt iter    1 1.00000000   0.705E+00       0.001       60.699
     NS sqrt iter    2 1.00000000   0.329E+00       0.001      102.328
     NS sqrt iter    3 1.00000000   0.746E-01       0.001      103.967
     NS sqrt iter    4 1.00000000   0.177E-02       0.001      102.106
     NS sqrt iter    5 1.00000000   0.498E-07       0.001       67.706
     Symmetrizing Results
     Final NS sqrt iter    5 1.00000000   0.454E-09

     Est. extremal eigenvalues     -0.93652     1.68961  converged:  T
     TRS4 it   1 1.00000000   0.871E+00       0.000       16.128   0.100E-07
     TRS4 it   2 1.00000000   0.614E+00       0.001       32.256   0.100E-07
     TRS4 it   3 1.00000000   0.417E+00       0.001       32.256   0.100E-07
     TRS4 it   4 1.00000000   0.210E+00       0.001       32.256   0.100E-07
     TRS4 it   5 1.00000000   0.663E-01       0.001       32.256   0.100E-07
     TRS4 it   6 1.00000000   0.831E-02       0.001       32.256   0.100E-07
     TRS4 it   7 1.00000000   0.172E-03       0.001       32.256   0.100E-07
     TRS4 it   8 1.00000000   0.104E-06       0.001       32.256   0.100E-07
     TRS4 it   9 1.00000000   0.466E-13       0.001       32.256   0.100E-07
     Final TRS4 iteration    9 1.00000000   0.466E-13
     Chemical potential (mu):       0.01312
 
 PAO| energy:  -7.7950364207143608      penalty:   1.2438779544720095E-005
 PAO|LS| adapt:  T T T
 PAO|LS| adapt: scan_steps:    0.0000000000000000       0.44150432680130908       0.88300865360261815     
 PAO|LS| adapt: energies:   -7.7950910346788378       -7.7950954134578812       -7.7950364207143608     
 PAO|LS| adapt: suggested step_size:   0.25125876661196639     
 PAO|LS| adapt: predicted energy  -7.7951012967888227     
 PAO| ======================= Iteration:        28 =============================

     Lanczos converged:  T threshold:   0.100E-02
     Est. extremal eigenvalues:    0.276E+01   0.182E+00
     Est. condition number :    0.152E+02

 Order=           3
     NS sqrt iter    1 1.00000000   0.705E+00       0.001       61.169
     NS sqrt iter    2 1.00000000   0.329E+00       0.001      102.511
     NS sqrt iter    3 1.00000000   0.747E-01       0.001      103.042
     NS sqrt iter    4 1.00000000   0.178E-02       0.001      104.370
     NS sqrt iter    5 1.00000000   0.503E-07       0.001       68.156
     Symmetrizing Results
     Final NS sqrt iter    5 1.00000000   0.451E-09

     Est. extremal eigenvalues     -0.93651     1.69008  converged:  T
     TRS4 it   1 1.00000000   0.871E+00       0.000       16.128   0.100E-07
     TRS4 it   2 1.00000000   0.614E+00       0.001       32.256   0.100E-07
     TRS4 it   3 1.00000000   0.418E+00       0.001       32.256   0.100E-07
     TRS4 it   4 1.00000000   0.210E+00       0.001       32.256   0.100E-07
     TRS4 it   5 1.00000000   0.665E-01       0.001       32.256   0.100E-07
     TRS4 it   6 1.00000000   0.834E-02       0.001       32.256   0.100E-07
     TRS4 it   7 1.00000000   0.174E-03       0.001       32.256   0.100E-07
     TRS4 it   8 1.00000000   0.106E-06       0.001       32.256   0.100E-07
     TRS4 it   9 1.00000000   0.480E-13       0.001       32.256   0.100E-07
     Final TRS4 iteration    9 1.00000000   0.480E-13
     Chemical potential (mu):       0.01293
 
 PAO| energy:  -7.7951012869218310      penalty:   1.3449972336403196E-005
 PAO|CG| trace_G_new    3.2800350924536565E-005
 PAO|CG| trace_G_prev    8.1428735488952626E-005
 PAO|CG| trace_G_mix    5.4763606152716864E-008
 PAO|CG| trace_D    1.2249468336059357E-004
 PAO|CG| trace_D_Gnew  -2.6028014826049001E-008
 PAO|CG| beta:   0.40213798141107587     
 PAO| norm of gradient:   5.7271590622695791E-003
 PAO| energy improvement:  -1.0252242993225025E-005
 PAO| step     28                   -7.795101287  0.358E-03  0.251E+00     0.056
 PAO|LS| adapt:  T F F
 PAO|LS| adapt: scan_steps:    0.0000000000000000        0.0000000000000000        0.0000000000000000     
 PAO|LS| adapt: energies:   -7.7951012869218310        0.0000000000000000        0.0000000000000000     
 PAO| ======================= Iteration:        29 =============================

     Lanczos converged:  T threshold:   0.100E-02
     Est. extremal eigenvalues:    0.276E+01   0.182E+00
     Est. condition number :    0.152E+02

 Order=           3
     NS sqrt iter    1 1.00000000   0.705E+00       0.001       61.160
     NS sqrt iter    2 1.00000000   0.329E+00       0.001      102.739
     NS sqrt iter    3 1.00000000   0.747E-01       0.001      103.395
     NS sqrt iter    4 1.00000000   0.178E-02       0.001      103.737
     NS sqrt iter    5 1.00000000   0.502E-07       0.001       67.666
     Symmetrizing Results
     Final NS sqrt iter    5 1.00000000   0.456E-09

     Est. extremal eigenvalues     -0.93652     1.69002  converged:  T
     TRS4 it   1 1.00000000   0.871E+00       0.000       16.128   0.100E-07
     TRS4 it   2 1.00000000   0.614E+00       0.001       32.256   0.100E-07
     TRS4 it   3 1.00000000   0.418E+00       0.001       32.256   0.100E-07
     TRS4 it   4 1.00000000   0.210E+00       0.001       32.256   0.100E-07
     TRS4 it   5 1.00000000   0.664E-01       0.001       32.256   0.100E-07
     TRS4 it   6 1.00000000   0.831E-02       0.001       32.256   0.100E-07
     TRS4 it   7 1.00000000   0.173E-03       0.001       32.256   0.100E-07
     TRS4 it   8 1.00000000   0.105E-06       0.001       32.256   0.100E-07
     TRS4 it   9 1.00000000   0.471E-13       0.001       32.256   0.100E-07
     Final TRS4 iteration    9 1.00000000   0.471E-13
     Chemical potential (mu):       0.01307
 
 PAO| energy:  -7.7951085473298170      penalty:   1.3012897323860259E-005
 PAO|LS| adapt:  T T F
 PAO|LS| adapt: scan_steps:    0.0000000000000000       0.25125876661196639        0.0000000000000000     
 PAO|LS| adapt: energies:   -7.7951012869218310       -7.7951085473298170        0.0000000000000000     
 PAO| ======================= Iteration:        30 =============================

     Lanczos converged:  T threshold:   0.100E-02
     Est. extremal eigenvalues:    0.276E+01   0.182E+00
     Est. condition number :    0.152E+02

 Order=           3
     NS sqrt iter    1 1.00000000   0.705E+00       0.001       60.692
     NS sqrt iter    2 1.00000000   0.329E+00       0.001      102.257
     NS sqrt iter    3 1.00000000   0.746E-01       0.001      104.622
     NS sqrt iter    4 1.00000000   0.178E-02       0.001      103.359
     NS sqrt iter    5 1.00000000   0.501E-07       0.001       67.303
     Symmetrizing Results
     Final NS sqrt iter    5 1.00000000   0.456E-09

     Est. extremal eigenvalues     -0.93652     1.68995  converged:  T
     TRS4 it   1 1.00000000   0.871E+00       0.000       16.128   0.100E-07
     TRS4 it   2 1.00000000   0.614E+00       0.001       32.256   0.100E-07
     TRS4 it   3 1.00000000   0.417E+00       0.001       32.256   0.100E-07
     TRS4 it   4 1.00000000   0.210E+00       0.001       32.256   0.100E-07
     TRS4 it   5 1.00000000   0.663E-01       0.001       32.256   0.100E-07
     TRS4 it   6 1.00000000   0.829E-02       0.001       32.256   0.100E-07
     TRS4 it   7 1.00000000   0.172E-03       0.001       32.256   0.100E-07
     TRS4 it   8 1.00000000   0.103E-06       0.001       32.256   0.100E-07
     TRS4 it   9 1.00000000   0.455E-13       0.001       32.256   0.100E-07
     Final TRS4 iteration    9 1.00000000   0.455E-13
     Chemical potential (mu):       0.01322
 
 PAO| energy:  -7.7951138393478372      penalty:   1.2583905685493226E-005
 PAO|LS| adapt:  T T F
 PAO|LS| adapt: scan_steps:    0.0000000000000000       0.50251753322393278        0.0000000000000000     
 PAO|LS| adapt: energies:   -7.7951012869218310       -7.7951138393478372        0.0000000000000000     
 PAO| ======================= Iteration:        31 =============================

     Lanczos converged:  T threshold:   0.100E-02
     Est. extremal eigenvalues:    0.276E+01   0.182E+00
     Est. condition number :    0.152E+02

 Order=           3
     NS sqrt iter    1 1.00000000   0.704E+00       0.001       60.259
     NS sqrt iter    2 1.00000000   0.329E+00       0.001      102.043
     NS sqrt iter    3 1.00000000   0.745E-01       0.001      104.334
     NS sqrt iter    4 1.00000000   0.177E-02       0.001      103.345
     NS sqrt iter    5 1.00000000   0.500E-07       0.001       68.253
     Symmetrizing Results
     Final NS sqrt iter    5 1.00000000   0.455E-09

     Est. extremal eigenvalues     -0.93652     1.68980  converged:  T
     TRS4 it   1 1.00000000   0.871E+00       0.000       16.128   0.100E-07
     TRS4 it   2 1.00000000   0.614E+00       0.001       32.256   0.100E-07
     TRS4 it   3 1.00000000   0.417E+00       0.001       32.256   0.100E-07
     TRS4 it   4 1.00000000   0.210E+00       0.001       32.256   0.100E-07
     TRS4 it   5 1.00000000   0.661E-01       0.001       32.256   0.100E-07
     TRS4 it   6 1.00000000   0.825E-02       0.001       32.256   0.100E-07
     TRS4 it   7 1.00000000   0.170E-03       0.001       32.256   0.100E-07
     TRS4 it   8 1.00000000   0.100E-06       0.001       32.256   0.100E-07
     TRS4 it   9 1.00000000   0.424E-13       0.001       32.256   0.100E-07
     Final TRS4 iteration    9 1.00000000   0.424E-13
     Chemical potential (mu):       0.01350
 
 PAO| energy:  -7.7951185215177068      penalty:   1.1750000684695011E-005
 PAO|LS| Need extra step
 PAO|LS| adapt:  T T F
 PAO|LS| adapt: scan_steps:    0.0000000000000000        1.0050350664478656        0.0000000000000000     
 PAO|LS| adapt: energies:   -7.7951012869218310       -7.7951185215177068        0.0000000000000000     
 PAO| ======================= Iteration:        32 =============================

     Lanczos converged:  T threshold:   0.100E-02
     Est. extremal eigenvalues:    0.276E+01   0.182E+00
     Est. condition number :    0.152E+02

 Order=           3
     NS sqrt iter    1 1.00000000   0.704E+00       0.001       60.582
[...]
     Final NS sqrt iter    5 1.00000000   0.382E-09

     Est. extremal eigenvalues     -0.93621     1.63230  converged:  T
     TRS4 it   1 1.00000000   0.879E+00       0.000       16.128   0.100E-07
     TRS4 it   2 1.00000000   0.632E+00       0.000       32.256   0.100E-07
     TRS4 it   3 1.00000000   0.455E+00       0.000       32.256   0.100E-07
     TRS4 it   4 1.00000000   0.277E+00       0.000       32.256   0.100E-07
     TRS4 it   5 1.00000000   0.137E+00       0.000       32.256   0.100E-07
     TRS4 it   6 1.00000000   0.424E-01       0.000       32.256   0.100E-07
     TRS4 it   7 1.00000000   0.567E-02       0.001       32.256   0.100E-07
     TRS4 it   8 1.00000000   0.136E-03       0.001       32.256   0.100E-07
     TRS4 it   9 1.00000000   0.825E-07       0.001       32.256   0.100E-07
     TRS4 it  10 1.00000000   0.303E-13       0.001       32.256   0.100E-07
     Final TRS4 iteration   10 1.00000000   0.303E-13
     Chemical potential (mu):      -0.07404
 
 PAO| energy:  -7.7943525694276596      penalty:   3.1170014399977929E-008
 PAO|CG| warming up with steepest descent
 PAO|CG| beta:    0.0000000000000000     
 PAO| norm of gradient:   1.4303730423626356E-004
 PAO| energy improvement:  -5.9806204433243693E-009
 PAO| step    406                   -7.794352569  0.894E-05  0.256E+00     0.057
 PAO| converged after          406  steps :-)
 PAO| Recalculating energy after mixing.

     Lanczos converged:  T threshold:   0.100E-02
     Est. extremal eigenvalues:    0.251E+01   0.190E+00
     Est. condition number :    0.132E+02

 Order=           3
     NS sqrt iter    1 1.00000000   0.636E+00       0.001       64.512
     NS sqrt iter    2 1.00000000   0.277E+00       0.001      110.592
     NS sqrt iter    3 1.00000000   0.492E-01       0.001      110.592
     NS sqrt iter    4 1.00000000   0.789E-03       0.001      110.592
     NS sqrt iter    5 1.00000000   0.646E-08       0.001       38.272
     Symmetrizing Results
     Final NS sqrt iter    5 1.00000000   0.382E-09

     Est. extremal eigenvalues     -0.93621     1.63230  converged:  T
     TRS4 it   1 1.00000000   0.879E+00       0.000       16.128   0.100E-07
     TRS4 it   2 1.00000000   0.632E+00       0.000       32.256   0.100E-07
     TRS4 it   3 1.00000000   0.455E+00       0.000       32.256   0.100E-07
     TRS4 it   4 1.00000000   0.277E+00       0.000       32.256   0.100E-07
     TRS4 it   5 1.00000000   0.137E+00       0.000       32.256   0.100E-07
     TRS4 it   6 1.00000000   0.424E-01       0.000       32.256   0.100E-07
     TRS4 it   7 1.00000000   0.567E-02       0.000       32.256   0.100E-07
     TRS4 it   8 1.00000000   0.136E-03       0.000       32.256   0.100E-07
     TRS4 it   9 1.00000000   0.825E-07       0.000       32.256   0.100E-07
     TRS4 it  10 1.00000000   0.309E-13       0.000       32.256   0.100E-07
     Final TRS4 iteration   10 1.00000000   0.309E-13
     Chemical potential (mu):      -0.07404
 
 PAO| energy:  -7.7943525679324877      penalty:   3.1493733405203802E-008
 PAO| Writing restart file.
     Est. extremal eigenvalues     -0.93621     1.63230  converged:  T
     TRS4 it   1 1.00000000   0.879E+00       0.000       16.128   0.100E-07
     TRS4 it   2 1.00000000   0.632E+00       0.000       32.256   0.100E-07
     TRS4 it   3 1.00000000   0.455E+00       0.000       32.256   0.100E-07
     TRS4 it   4 1.00000000   0.277E+00       0.000       32.256   0.100E-07
     TRS4 it   5 1.00000000   0.137E+00       0.000       32.256   0.100E-07
     TRS4 it   6 1.00000000   0.424E-01       0.000       32.256   0.100E-07
     TRS4 it   7 1.00000000   0.567E-02       0.000       32.256   0.100E-07
     TRS4 it   8 1.00000000   0.136E-03       0.000       32.256   0.100E-07
     TRS4 it   9 1.00000000   0.825E-07       0.000       32.256   0.100E-07
     TRS4 it  10 1.00000000   0.309E-13       0.000       32.256   0.100E-07
     Final TRS4 iteration   10 1.00000000   0.309E-13
     Chemical potential (mu):      -0.07404

 SCF     1       -34.450076500       -34.450076500    1.631125

*********************************************************
 Using MIXING_FRACTION=0.450 to mix KS matrix:  iscf=  2
 KS_nw=0.450*KS + 0.550*KS_old
*********************************************************
     Est. extremal eigenvalues     -0.93621     1.63231  converged:  T
     TRS4 it   1 1.00000000   0.879E+00       0.000       16.128   0.100E-07
     TRS4 it   2 1.00000000   0.632E+00       0.000       32.256   0.100E-07
     TRS4 it   3 1.00000000   0.455E+00       0.000       32.256   0.100E-07
     TRS4 it   4 1.00000000   0.277E+00       0.000       32.256   0.100E-07
     TRS4 it   5 1.00000000   0.137E+00       0.000       32.256   0.100E-07
     TRS4 it   6 1.00000000   0.424E-01       0.000       32.256   0.100E-07
     TRS4 it   7 1.00000000   0.567E-02       0.000       32.256   0.100E-07
     TRS4 it   8 1.00000000   0.136E-03       0.000       32.256   0.100E-07
     TRS4 it   9 1.00000000   0.825E-07       0.000       32.256   0.100E-07
     TRS4 it  10 1.00000000   0.306E-13       0.000       32.256   0.100E-07
     Final TRS4 iteration   10 1.00000000   0.306E-13
     Chemical potential (mu):      -0.07404

 SCF     2       -34.450076500        -0.000000000    1.499983


 SCF run converged in     2 steps.

 PAO| Storing density matrix for ASPC guess in slot:           1

 ENERGY| Total FORCE_EVAL ( QS ) energy [a.u.]:              -34.450076500237401

 -------------------------------------------------------------------------------
 -                                                                             -
 -                                DBCSR STATISTICS                             -
 -                                                                             -
 -------------------------------------------------------------------------------
 COUNTER                                    TOTAL       BLAS       SMM       ACC
 flops     5 x     5 x     4                20000       0.0%    100.0%      0.0%
 flops    13 x     5 x     4                20800       0.0%    100.0%      0.0%
 flops     5 x    13 x     4                20800       0.0%    100.0%      0.0%
 flops    13 x    13 x     4                40560       0.0%    100.0%      0.0%
 flops     4 x     4 x     5              3191040       0.0%    100.0%      0.0%
 flops     5 x     4 x     5              3907200       0.0%    100.0%      0.0%
 flops     4 x     4 x    13              4148352       0.0%    100.0%      0.0%
 flops    13 x     4 x     5              5079360       0.0%    100.0%      0.0%
 flops     5 x     4 x    13              5079360       0.0%    100.0%      0.0%
 flops     5 x     4 x     4              6371680       0.0%    100.0%      0.0%
 flops    13 x     4 x    13              6603168       0.0%    100.0%      0.0%
 flops    13 x     4 x     4              8523008       0.0%    100.0%      0.0%
 flops     4 x     4 x     4            410013824       0.0%    100.0%      0.0%
 flops inhomo. stacks                           0       0.0%      0.0%      0.0%
 flops total                       453.019152E+06       0.0%    100.0%      0.0%
 flops max/rank                    453.019152E+06       0.0%    100.0%      0.0%
 matmuls inhomo. stacks                         0       0.0%      0.0%      0.0%
 matmuls total                            3337626       0.0%    100.0%      0.0%
 number of processed stacks                 26625       0.0%    100.0%      0.0%
 average stack size                                     0.0     125.4       0.0
 marketing flops                   736.034880E+06
 -------------------------------------------------------------------------------
 # multiplications                          22202
 max memory usage/rank             506.757120E+06
 # max total images/rank                        1
 # max 3D layers                                1
 # MPI messages exchanged                       0
 -------------------------------------------------------------------------------

 -------------------------------------------------------------------------------
 -                                                                             -
 -                                DBM STATISTICS                               -
 -                                                                             -
 -------------------------------------------------------------------------------
    M  x    N  x    K                                          COUNT     PERCENT
 -------------------------------------------------------------------------------

 -------------------------------------------------------------------------------
 -                                                                             -
 -                                GRID STATISTICS                              -
 -                                                                             -
 -------------------------------------------------------------------------------
 LP    KERNEL             BACKEND                              COUNT     PERCENT
 2     collocate ortho    REF                                  37990      30.73%
 2     integrate ortho    REF                                  37990      30.73%
 3     collocate ortho    REF                                  19610      15.86%
 3     integrate ortho    REF                                  19610      15.86%
 4     collocate ortho    REF                                   4210       3.41%
 4     integrate ortho    REF                                   4210       3.41%
 0     collocate general  REF                                      6       0.00%
 -------------------------------------------------------------------------------

 MEMORY| Estimated peak process memory [MiB]                                 484

 -------------------------------------------------------------------------------
 -                                                                             -
 -                           R E F E R E N C E S                               -
 -                                                                             -
 -------------------------------------------------------------------------------
 
 CP2K version 2023.1 (Development Version), the CP2K developers group (2023).
 CP2K is freely available from https://www.cp2k.org/ .

 Kuehne,Thomas D.; Iannuzzi,Marcella; Del Ben,Mauro;
 Rybkin,Vladimir V.; Seewald,Patrick; Stein,Frederick; Laino,Teodoro;
 Khaliullin,Rustam Z.; Schuett,Ole; Schiffmann,Florian; Golze,Dorothea;
 Wilhelm,Jan; Chulkov,Sergey; Bani-Hashemian,Mohammad Hossein;
 Weber,Valery; Borstnik,Urban; Taillefumier,Mathieu;
 Jakobovits,Alice Shoshana; Lazzaro,Alfio; Pabst,Hans; Mueller,Tiziano;
 Schade,Robert; Guidon,Manuel; Andermatt,Samuel; Holmberg,Nico;
 Schenter,Gregory K.; Hehn,Anna; Bussy,Augustin; Belleflamme,Fabian;
 Tabacchi,Gloria; Gloess,Andreas; Lass,Michael; Bethune,Iain;
 Mundy,Christopher J.; Plessl,Christian; Watkins,Matt;
 VandeVondele,Joost; Krack,Matthias; Hutter,Juerg. 
 The Journal of Chemical Physics, 152 (19), (2020). 
 CP2K: An electronic structure and molecular dynamics software package -
 Quickstep: Efficient and accurate electronic structure calculations.
 https://doi.org/10.1063/5.0007045

 Schuett, O; VandeVondele, J. 
 Journal of Chemical Theory and Computation, 14, (2018). 
 Machine Learning Adaptive Basis Sets for Efficient Large Scale
 Density Functional Theory Simulation.
 https://doi.org/10.1021/acs.jctc.8b00378

 Schuett, Ole; Messmer, Peter; Hutter, Juerg; VandeVondele, Joost. 
 Electronic Structure Calculations on Graphics Processing Units, John
 Wiley & Sons, Ltd, 173-190 (2016). 
 GPU-Accelerated Sparse Matrix-Matrix Multiplication for
 Linear Scaling Density Functional Theory.
 https://doi.org/10.1002/9781118670712.ch8

 Heinecke, A; Henry, G; Hutchinson, M; Pabst, H. 
 Proceedings of Intl. Supercomputing Conference, 981-991 (2016). 
 LIBXSMM: Accelerating Small Matrix Multiplications
 by Runtime Code Generation.
 https://doi.org/10.1109/SC.2016.83

 Borstnik, U; VandeVondele, J; Weber, V; Hutter, J. 
 PARALLEL COMPUTING, 40 (5-6), 47-58 (2014). 
 Sparse matrix multiplication: The distributed block-compressed sparse
 row library.
 https://doi.org/10.1016/j.parco.2014.03.012

 Hutter, J; Iannuzzi, M; Schiffmann, F; VandeVondele, J. 
 WIREs Comput Mol Sci., 4 (1), 15-25 (2014). 
 CP2K: atomistic simulations of condensed matter systems.
 https://doi.org/10.1002/wcms.1159

 VandeVondele, J; Borstnik, U; Hutter, J. 
 JOURNAL OF CHEMICAL THEORY AND COMPUTATION, 8 (10), 3565-3573 (2012). 
 Linear Scaling Self-Consistent Field Calculations with Millions of Atoms
 in the Condensed Phase.
 https://doi.org/10.1021/ct200897x

 VandeVondele, J; Hutter, J. 
 JOURNAL OF CHEMICAL PHYSICS, 127 (11), 114105 (2007). 
 Gaussian basis sets for accurate calculations on molecular systems in
 gas and condensed phases.
 https://doi.org/10.1063/1.2770708

 Krack, M. 
 THEORETICAL CHEMISTRY ACCOUNTS, 114 (1-3), 145-152 (2005). 
 Pseudopotentials for H to Kr optimized for gradient-corrected
 exchange-correlation functionals.
 https://doi.org/10.1007/s00214-005-0655-y

 VandeVondele, J; Krack, M; Mohamed, F; Parrinello, M; Chassaing, T;
 Hutter, J. COMPUTER PHYSICS COMMUNICATIONS, 167 (2), 103-128 (2005). 
 QUICKSTEP: Fast and accurate density functional calculations using a
 mixed Gaussian and plane waves approach.
 https://doi.org/10.1016/j.cpc.2004.12.014

 Frigo, M; Johnson, SG. 
 PROCEEDINGS OF THE IEEE, 93 (2), 216-231 (2005). 
 The design and implementation of FFTW3.
 https://doi.org/10.1109/JPROC.2004.840301

 Niklasson, AMN; Tymczak, CJ; Challacombe, M. 
 JOURNAL OF CHEMICAL PHYSICS, 118 (19), 8611-8620 (2003). 
 Trace resetting density matrix purification in O(N)
 self-consistent-field theory.
 https://doi.org/10.1063/1.1559913

 Hartwigsen, C; Goedecker, S; Hutter, J. 
 PHYSICAL REVIEW B, 58 (7), 3641-3662 (1998). 
 Relativistic separable dual-space Gaussian pseudopotentials from H to Rn.
 https://doi.org/10.1103/PhysRevB.58.3641

 Lippert, G; Hutter, J; Parrinello, M. 
 MOLECULAR PHYSICS, 92 (3), 477-487 (1997). 
 A hybrid Gaussian and plane wave density functional scheme.
 https://doi.org/10.1080/002689797170220

 Perdew, JP; Burke, K; Ernzerhof, M. 
 PHYSICAL REVIEW LETTERS, 77 (18), 3865-3868 (1996). 
 Generalized gradient approximation made simple.
 https://doi.org/10.1103/PhysRevLett.77.3865

 Goedecker, S; Teter, M; Hutter, J. 
 PHYSICAL REVIEW B, 54 (3), 1703-1710 (1996). 
 Separable dual-space Gaussian pseudopotentials.
 https://doi.org/10.1103/PhysRevB.54.1703


 -------------------------------------------------------------------------------
 -                                                                             -
 -                                T I M I N G                                  -
 -                                                                             -
 -------------------------------------------------------------------------------
 SUBROUTINE                       CALLS  ASD         SELF TIME        TOTAL TIME
                                MAXIMUM       AVERAGE  MAXIMUM  AVERAGE  MAXIMUM
 CP2K                                 1  1.0    0.011    0.011   24.123   24.123
 qs_energies                          1  2.0    0.000    0.000   23.647   23.647
 ls_scf                               1  3.0    0.000    0.000   23.541   23.541
 ls_scf_main                          4  4.0    0.001    0.001   15.152   15.152
 ls_scf_dm_to_ks                      9  5.0    0.000    0.000   15.087   15.087
 qs_ks_update_qs_env                 10  6.0    0.000    0.000   13.563   13.563
 rebuild_ks_matrix                   10  7.0    0.000    0.000   13.562   13.562
 qs_ks_build_kohn_sham_matrix        10  8.0    0.003    0.003   13.562   13.562
 qs_vxc_create                       10  9.0    0.000    0.000    8.624    8.624
 xc_vxc_pw_create                    10 10.0    0.157    0.157    8.623    8.623
 pw_transfer                        191 11.1    0.022    0.022    7.064    7.064
 fft_wrap_pw1pw2                    171 12.3    0.003    0.003    6.879    6.879
 fft_wrap_pw1pw2_200                111 13.7    0.762    0.762    6.657    6.657
 pao_update                           4  4.0    0.006    0.006    5.686    5.686
 xc_rho_set_and_dset_create          10 11.0    0.225    0.225    5.345    5.345
 pao_calc_energy                    409  5.0    0.002    0.002    5.142    5.142
 xc_pw_derive                        60 12.0    0.001    0.001    5.082    5.082
 qs_rho_update_rho_low               10  6.0    0.000    0.000    4.185    4.185
 calculate_rho_elec                  10  7.0    0.034    0.034    4.185    4.185
 dbcsr_multiply_generic           22202  8.4    0.254    0.254    4.067    4.067
 sum_up_and_integrate                10  9.0    0.114    0.114    3.751    3.751
 integrate_v_rspace                  10 10.0    0.001    0.001    3.637    3.637
 xc_pw_divergence                    10 11.0    0.000    0.000    3.007    3.007
 grid_integrate_task_list            10 11.0    2.827    2.827    2.827    2.827
 pao_dm_trs4                        409  6.0    0.002    0.002    2.669    2.669
 pao_guess_initial_P                  1  4.0    0.000    0.000    2.665    2.665
 pao_read_preopt_dm                   1  5.0    0.000    0.000    2.665    2.665
 fft3d_s                            172 14.2    2.604    2.604    2.647    2.647
 density_matrix_trs4                418  7.0    0.092    0.092    2.570    2.570
 grid_collocate_task_list            10  8.0    2.541    2.541    2.541    2.541
 ls_scf_init_matrix_S               413  7.0    0.002    0.002    2.460    2.460
 pao_rebuild_S                      409  6.0    0.001    0.001    2.435    2.435
 matrix_sqrt_Newton_Schulz          413  8.0    0.056    0.056    2.219    2.219
 xc_functional_eval                  10 12.0    0.000    0.000    2.076    2.076
 pbe_lda_eval                        10 13.0    2.075    2.075    2.075    2.075
 pw_scatter_s                        90 14.7    1.773    1.773    1.773    1.773
 pw_gather_s                         81 13.8    1.667    1.667    1.667    1.667
 density_rs2pw                       10  8.0    0.001    0.001    1.610    1.610
 make_m2s                         44404  9.4    0.096    0.096    1.534    1.534
 multiply_cannon                  22202  9.4    0.619    0.619    1.515    1.515
 make_images                      44404 10.4    0.391    0.391    1.363    1.363
 pw_derive                           60 13.0    1.011    1.011    1.011    1.011
 arnoldi_extremal                   831  8.5    0.003    0.003    0.817    0.817
 arnoldi_normal_ev                  831  9.5    0.008    0.008    0.815    0.815
 potential_pw2rs                     10 11.0    0.002    0.002    0.809    0.809
 pw_copy                            120 11.8    0.744    0.744    0.744    0.744
 build_subspace                     831 10.5    0.034    0.034    0.632    0.632
 dbcsr_matrix_vector_mult         19942 11.5    0.070    0.070    0.587    0.587
 pao_calc_AB                        540  5.8    0.001    0.001    0.540    0.540
 pao_calc_AB_equi                   540  6.8    0.017    0.017    0.539    0.539
 pao_calc_grad_lnv_wrt_AB           130  7.0    0.004    0.004    0.484    0.484
 -------------------------------------------------------------------------------

 The number of warnings for this run is : 0
 
 -------------------------------------------------------------------------------
  **** **** ******  **  PROGRAM ENDED AT                 2023-02-01 10:45:44.064
 ***** ** ***  *** **   PROGRAM RAN ON                                    moritz
 **    ****   ******    PROGRAM RAN BY                                       ole
 ***** **    ** ** **   PROGRAM PROCESS ID                                148602
  **** **  *******  **  PROGRAM STOPPED IN /home/ole/git/pao_ml_equivar/2H2O_rot
                                           ations/phi_25
