 DBCSR| CPU Multiplication driver                                           XSMM
 DBCSR| Multrec recursion limit                                              512
 DBCSR| Multiplication stack size                                           1000
 DBCSR| Maximum elements for images                                    UNLIMITED
 DBCSR| Multiplicative factor virtual images                                   1
 DBCSR| Use multiplication densification                                       T
 DBCSR| Multiplication size stacks                                             3


  **** **** ******  **  PROGRAM STARTED AT               2019-02-14 10:39:29.199
 ***** ** ***  *** **   PROGRAM STARTED ON                                  otto
 **    ****   ******    PROGRAM STARTED BY                                   ole
 ***** **    ** ** **   PROGRAM PROCESS ID                                  7006
  **** **  *******  **  PROGRAM STARTED IN /home/ole/git/pao_ml_equivar/2H2O_MD/
                                           frame_0975

 CP2K| version string:                    CP2K version 7.0 (Development Version)
 CP2K| source code revision number:                                git:8bf305913
 CP2K| cp2kflags: libint fftw3 libxc xsmm libderiv_max_am1=5 libint_max_am=6    
 CP2K| is freely available from                            https://www.cp2k.org/
 CP2K| Program compiled at                           So Jan 13 00:02:37 CET 2019
 CP2K| Program compiled on                                                  otto
 CP2K| Program compiled for                                                local
 CP2K| Data directory path                               /home/ole/git/cp2k/data
 CP2K| Input file name                                            2H2O_pao44.inp

 GLOBAL| Force Environment number                                              1
 GLOBAL| Basis set file name                                        BASIS_MOLOPT
 GLOBAL| Potential file name                                      GTH_POTENTIALS
 GLOBAL| MM Potential file name                                     MM_POTENTIAL
 GLOBAL| Coordinate file name                                         coords.xyz
 GLOBAL| Method name                                                        CP2K
 GLOBAL| Project name                                                 2H2O_pao44
 GLOBAL| Preferred FFT library                                             FFTW3
 GLOBAL| Preferred diagonalization lib.                                       SL
 GLOBAL| Run type                                                         ENERGY
 GLOBAL| All-to-all communication in single precision                          F
 GLOBAL| FFTs using library dependent lengths                                  F
 GLOBAL| Global print level                                                  LOW
 GLOBAL| MPI I/O enabled                                                       T
 GLOBAL| Total number of message passing processes                             1
 GLOBAL| Number of threads for this process                                    1
 GLOBAL| This output is from process                                           0
 GLOBAL| CPU model name :  Intel(R) Core(TM) i5-3320M CPU @ 2.60GHz

 MEMORY| system memory details [Kb]
 MEMORY|                        rank 0           min           max       average
 MEMORY| MemTotal              7860772       7860772       7860772       7860772
 MEMORY| MemFree               1875744       1875744       1875744       1875744
 MEMORY| Buffers                285528        285528        285528        285528
 MEMORY| Cached                2058960       2058960       2058960       2058960
 MEMORY| Slab                   260104        260104        260104        260104
 MEMORY| SReclaimable           137260        137260        137260        137260
 MEMORY| MemLikelyFree         4357492       4357492       4357492       4357492


 GENERATE|  Preliminary Number of Bonds generated:                             0
 GENERATE|  Achieved consistency in connectivity generation.

 *******************************************************************************
 *******************************************************************************
 **                                                                           **
 **     #####                         ##              ##                      **
 **    ##   ##            ##          ##              ##                      **
 **   ##     ##                       ##            ######                    **
 **   ##     ##  ##   ##  ##   #####  ##  ##   ####   ##    #####    #####    **
 **   ##     ##  ##   ##  ##  ##      ## ##   ##      ##   ##   ##  ##   ##   **
 **   ##  ## ##  ##   ##  ##  ##      ####     ###    ##   ######   ######    **
 **    ##  ###   ##   ##  ##  ##      ## ##      ##   ##   ##       ##        **
 **     #######   #####   ##   #####  ##  ##  ####    ##    #####   ##        **
 **           ##                                                    ##        **
 **                                                                           **
 **                                                ... make the atoms dance   **
 **                                                                           **
 **            Copyright (C) by CP2K developers group (2000 - 2018)           **
 **                                                                           **
 *******************************************************************************


 TOTAL NUMBERS AND MAXIMUM NUMBERS

  Total number of            - Atomic kinds:                                   2
                             - Atoms:                                          6
                             - Shell sets:                                     6
                             - Shells:                                        22
                             - Primitive Cartesian functions:                 42
                             - Cartesian basis functions:                     48
                             - Spherical basis functions:                     46

  Maximum angular momentum of- Orbital basis functions:                        2
                             - Local part of the GTH pseudopotential:          2
                             - Non-local part of the GTH pseudopotential:      0

 ------------------------------ Linear scaling SCF -----------------------------
 eps_scf:                                       0.100E-07
 eps_filter:                                    0.100E-07
 mixing_fraction:                               0.450E+00
 max_scf:                                              25
 fixed chemical potential (mu)                          F
 has unit metric:                                       F
 Computing inv(S):                                      T
 Computing sqrt(S):                                     T
 Computing s preconditioner                             F
 sign sqrt order:                                       3
 Extrapolation order:                                   1
 Use single precision matrices                          F
 S preconditioner type                               NONE
 Polarized Atomic Orbitals (PAO)                        T
 Purification method                      Trace resetting 4th order
 Cluster type                                      ATOMIC
 Computing Chebyshev                                FALSE
 Using PAO                                              T
 -------------------------------------------------------------------------------

 
 PAO|                                  EPS_PAO                           0.5E-06
 PAO|                                  MIXING                            0.5E+00
 PAO|                                  MAX_PAO                              1000
 PAO|                                  MAX_CYCLES                           1000
 PAO|                                  PARAMETERIZATION                   DIRECT
 PAO|                                  PRECONDITION                            F
 PAO|                                  REGULARIZATION                    0.0E+00
 PAO|                                  EPS_PGF                           0.1E-09
 PAO|                                  PENALTY_DISTANCE                  0.1E+00
 PAO|                                  PENALTY_STRENGTH                  0.5E-02
 PAO|                                  LINPOT_PRECONDITION_DELTA         0.0E+00
 PAO|                                  LINPOT_INITGUESS_DELT             0.0E+00
 PAO|                                  LINPOT_REGULARIZATION_DELTA       0.0E+00
 PAO|                                  LINPOT_REGULARIZATION_STRENGTH    0.0E+00
 PAO|                                  OPTIMIZER                              CG
 PAO|                                  CG_INIT_STEPS                           2
 PAO|                                  CG_RESET_LIMIT                    0.1E+00
 PAO|                                  CHECK_UNITARY_TOL                -0.1E+01
 PAO|                                  CHECK_GRADIENT_TOL               -0.1E+01
 PAO|                                  NUM_GRADIENT_ORDER                      2
 PAO|                                  NUM_GRADIENT_EPS                  0.1E-07
 PAO|                                  PRINT%RESTART%WRITE_CYCLES            100
 PAO|                                  RESTART_FILE 
 PAO|                                  PREOPT_DM_FILE 2H2O_ref_LS_DM_SPIN_1_RESTART.dm
 PAO|                                  MACHINE_LEARNING%METHOD        GAUSSIAN_P
 PAO|                                  MACHINE_LEARNING%PRIOR               ZERO
 PAO|                                  MACHINE_LEARNING%DESCRIPTOR     POTENTIAL
 PAO|                                  MACHINE_LEARNING%TOLERANCE        0.1E-01
 PAO|                                  MACHINE_LEARNING%GP_NOISE_VAR     0.1E+00
 PAO|                                  MACHINE_LEARNING%GP_SCALE         0.5E-01
 

 Calculating atomic Fock matrix for atomic kind: O

 Electronic structure
    Total number of core electrons                                          2.00
    Total number of valence electrons                                       6.00
    Total number of electrons                                               8.00
    Multiplicity                                                   not specified
    S   [  2.00] 2.00
    P      4.00


 *******************************************************************************
                  Iteration          Convergence                     Energy [au]
 *******************************************************************************
                          1        0.708315                     -15.576645311500
                          2        0.608879                     -15.587933561584
                          3        0.102828E-01                 -15.656849565404
                          4        0.113889E-02                 -15.656866888140
                          5        0.434197E-03                 -15.656867072159
                          6        0.263771E-03                 -15.656867091904
                          7        0.478536E-06                 -15.656867103452

 Energy components [Hartree]           Total Energy ::          -15.656867103452
                                        Band Energy ::           -3.000198112285
                                     Kinetic Energy ::           11.759971203220
                                   Potential Energy ::          -27.416838306672
                                      Virial (-V/T) ::            2.331369510426
                                        Core Energy ::          -26.140716385623
                                          XC Energy ::           -3.154051012914
                                     Coulomb Energy ::           13.637900295084
                       Total Pseudopotential Energy ::          -37.935781716540
                       Local Pseudopotential Energy ::          -39.218907440693
                    Nonlocal Pseudopotential Energy ::            1.283125724153
                                        Confinement ::            0.350941276976

 Orbital energies  State     L     Occupation   Energy[a.u.]          Energy[eV]

                       1     0          2.000      -0.864471          -23.523463

                       1     1          4.000      -0.317814           -8.648154


 Total Electron Density at R=0:                                         0.000068

 Calculating atomic Fock matrix for atomic kind: H

 Electronic structure
    Total number of core electrons                                          0.00
    Total number of valence electrons                                       1.00
    Total number of electrons                                               1.00
    Multiplicity                                                   not specified
    S      1.00


 *******************************************************************************
                  Iteration          Convergence                     Energy [au]
 *******************************************************************************
                          1        0.437545E-02                  -0.424159432110
                          2        0.531356E-03                  -0.424178438213
                          3        0.259176E-06                  -0.424178722480

 Energy components [Hartree]           Total Energy ::           -0.424178722480
                                        Band Energy ::           -0.199015229016
                                     Kinetic Energy ::            0.464007633961
                                   Potential Energy ::           -0.888186356441
                                      Virial (-V/T) ::            1.914163240935
                                        Core Energy ::           -0.479160803564
                                          XC Energy ::           -0.244352904054
                                     Coulomb Energy ::            0.299334985138
                       Total Pseudopotential Energy ::           -0.962295316385
                       Local Pseudopotential Energy ::           -0.962295316385
                    Nonlocal Pseudopotential Energy ::            0.000000000000
                                        Confinement ::            0.191268788606

 Orbital energies  State     L     Occupation   Energy[a.u.]          Energy[eV]

                       1     0          1.000      -0.199015           -5.415480


 Total Electron Density at R=0:                                         0.242907
 PAO| Made initial guess for matrix_X with norm:   4.8989794855663558     

     Lanczos converged:  T threshold:   0.100E-02
     Est. extremal eigenvalues:    0.325E+01   0.117E+00
     Est. condition number :    0.279E+02
     NS sqrt iter    1 1.00000000   0.794E+00       0.001       43.949
     NS sqrt iter    2 1.00000000   0.420E+00       0.001       82.966
     NS sqrt iter    3 1.00000000   0.158E+00       0.001       84.861
     NS sqrt iter    4 1.00000000   0.173E-01       0.001       85.211
     NS sqrt iter    5 1.00000000   0.342E-04       0.001       66.569
     Final NS sqrt iter    5 1.00000000   0.185E-08

 PAO| Read restart DM 2H2O_ref_LS_DM_SPIN_1_RESTART.dm with checksum:    57.436459680670438     
 PAO| Quickstep energy from restart density:  -34.449021466117856     
 PAO| ======================= Iteration:         1 =============================

     Lanczos converged:  T threshold:   0.100E-02
     Est. extremal eigenvalues:    0.325E+01   0.117E+00
     Est. condition number :    0.279E+02
     NS sqrt iter    1 1.00000000   0.794E+00       0.001       64.512
     NS sqrt iter    2 1.00000000   0.420E+00       0.001      110.592
     NS sqrt iter    3 1.00000000   0.158E+00       0.001      110.592
     NS sqrt iter    4 1.00000000   0.173E-01       0.001      110.592
     NS sqrt iter    5 1.00000000   0.342E-04       0.001       84.224
     Final NS sqrt iter    5 1.00000000   0.185E-08

     Est. extremal eigenvalues     -0.91087     1.86008  converged:  T
     TRS4 it   1 1.00000000   0.893E+00       0.000       16.128   0.100E-07
     TRS4 it   2 1.00000000   0.696E+00       0.001       32.256   0.100E-07
     TRS4 it   3 1.00000000   0.505E+00       0.001       32.256   0.100E-07
     TRS4 it   4 1.00000000   0.322E+00       0.001       32.256   0.100E-07
     TRS4 it   5 1.00000000   0.163E+00       0.001       32.256   0.100E-07
     TRS4 it   6 1.00000000   0.516E-01       0.001       32.256   0.100E-07
     TRS4 it   7 1.00000000   0.679E-02       0.001       32.256   0.100E-07
     TRS4 it   8 1.00000000   0.159E-03       0.001       32.256   0.100E-07
     TRS4 it   9 1.00000000   0.107E-06       0.001       32.256   0.100E-07
     TRS4 it  10 1.00000000   0.500E-13       0.001       32.256   0.100E-07
     Final TRS4 iteration   10 1.00000000   0.500E-13
     Chemical potential (mu):      -0.06761
 
 PAO| energy:  -7.5446713619582946      penalty:   5.0536401740721073E-033
 PAO|CG| warming up with steepest descent
 PAO|CG| beta:    0.0000000000000000     
 PAO| norm of gradient:  0.77872796341868622     
 PAO|LS| adapt:  T F F
 PAO|LS| adapt: scan_steps:    0.0000000000000000        0.0000000000000000        0.0000000000000000     
 PAO|LS| adapt: energies:   -7.5446713619582946        0.0000000000000000        0.0000000000000000     
 PAO| ======================= Iteration:         2 =============================

     Lanczos converged:  T threshold:   0.100E-02
     Est. extremal eigenvalues:    0.318E+01   0.129E+00
     Est. condition number :    0.247E+02
     NS sqrt iter    1 1.00000000   0.780E+00       0.001       64.512
     NS sqrt iter    2 1.00000000   0.405E+00       0.001      110.592
     NS sqrt iter    3 1.00000000   0.141E+00       0.001      110.592
     NS sqrt iter    4 1.00000000   0.119E-01       0.001      110.592
     NS sqrt iter    5 1.00000000   0.113E-04       0.001       82.944
     Final NS sqrt iter    5 1.00000000   0.204E-09

     Est. extremal eigenvalues     -0.91451     1.81936  converged:  T
     TRS4 it   1 1.00000000   0.894E+00       0.000       16.128   0.100E-07
     TRS4 it   2 1.00000000   0.681E+00       0.001       32.256   0.100E-07
     TRS4 it   3 1.00000000   0.491E+00       0.001       32.256   0.100E-07
     TRS4 it   4 1.00000000   0.303E+00       0.001       32.256   0.100E-07
     TRS4 it   5 1.00000000   0.144E+00       0.001       32.256   0.100E-07
     TRS4 it   6 1.00000000   0.404E-01       0.001       32.256   0.100E-07
     TRS4 it   7 1.00000000   0.417E-02       0.001       32.256   0.100E-07
     TRS4 it   8 1.00000000   0.601E-04       0.001       32.256   0.100E-07
     TRS4 it   9 1.00000000   0.153E-07       0.001       32.256   0.100E-07
     Final TRS4 iteration    9 1.00000000   0.153E-07
     Chemical potential (mu):      -0.05574
 
 PAO| energy:  -7.5993837893855654      penalty:   2.2054841647436565E-008
 PAO|LS| adapt:  T T F
 PAO|LS| adapt: scan_steps:    0.0000000000000000       0.10000000000000001        0.0000000000000000     
 PAO|LS| adapt: energies:   -7.5446713619582946       -7.5993837893855654        0.0000000000000000     
 PAO| ======================= Iteration:         3 =============================

     Lanczos converged:  T threshold:   0.100E-02
     Est. extremal eigenvalues:    0.310E+01   0.139E+00
     Est. condition number :    0.223E+02
     NS sqrt iter    1 1.00000000   0.764E+00       0.001       64.512
     NS sqrt iter    2 1.00000000   0.389E+00       0.001      110.592
     NS sqrt iter    3 1.00000000   0.125E+00       0.001      110.592
     NS sqrt iter    4 1.00000000   0.825E-02       0.001      110.592
     NS sqrt iter    5 1.00000000   0.414E-05       0.001       82.944
     Final NS sqrt iter    5 1.00000000   0.288E-10

     Est. extremal eigenvalues     -0.91787     1.78730  converged:  T
     TRS4 it   1 1.00000000   0.895E+00       0.000       16.128   0.100E-07
     TRS4 it   2 1.00000000   0.668E+00       0.001       32.256   0.100E-07
     TRS4 it   3 1.00000000   0.477E+00       0.001       32.256   0.100E-07
     TRS4 it   4 1.00000000   0.285E+00       0.001       32.256   0.100E-07
     TRS4 it   5 1.00000000   0.126E+00       0.001       32.256   0.100E-07
     TRS4 it   6 1.00000000   0.309E-01       0.001       32.256   0.100E-07
     TRS4 it   7 1.00000000   0.240E-02       0.001       32.256   0.100E-07
     TRS4 it   8 1.00000000   0.197E-04       0.001       32.256   0.100E-07
     TRS4 it   9 1.00000000   0.164E-08       0.001       32.256   0.100E-07
     Final TRS4 iteration    9 1.00000000   0.164E-08
     Chemical potential (mu):      -0.04276
 
 PAO| energy:  -7.6416162673976977      penalty:   3.5287744669564843E-007
 PAO|LS| adapt:  T T F
 PAO|LS| adapt: scan_steps:    0.0000000000000000       0.20000000000000001        0.0000000000000000     
 PAO|LS| adapt: energies:   -7.5446713619582946       -7.6416162673976977        0.0000000000000000     
 PAO| ======================= Iteration:         4 =============================

     Lanczos converged:  T threshold:   0.100E-02
     Est. extremal eigenvalues:    0.293E+01   0.156E+00
     Est. condition number :    0.188E+02
     NS sqrt iter    1 1.00000000   0.732E+00       0.001       64.512
     NS sqrt iter    2 1.00000000   0.357E+00       0.001      101.754
     NS sqrt iter    3 1.00000000   0.972E-01       0.001       82.666
     NS sqrt iter    4 1.00000000   0.415E-02       0.001      110.592
     NS sqrt iter    5 1.00000000   0.701E-06       0.001       82.560
     Final NS sqrt iter    5 1.00000000   0.155E-09

     Est. extremal eigenvalues     -0.92296     1.74134  converged:  T
     TRS4 it   1 1.00000000   0.898E+00       0.000       16.128   0.100E-07
     TRS4 it   2 1.00000000   0.646E+00       0.001       32.256   0.100E-07
     TRS4 it   3 1.00000000   0.452E+00       0.001       32.256   0.100E-07
     TRS4 it   4 1.00000000   0.251E+00       0.001       32.256   0.100E-07
     TRS4 it   5 1.00000000   0.956E-01       0.001       32.256   0.100E-07
     TRS4 it   6 1.00000000   0.170E-01       0.001       32.256   0.100E-07
     TRS4 it   7 1.00000000   0.675E-03       0.001       32.256   0.100E-07
     TRS4 it   8 1.00000000   0.146E-05       0.001       32.256   0.100E-07
     TRS4 it   9 1.00000000   0.882E-11       0.001       32.256   0.100E-07
     Final TRS4 iteration    9 1.00000000   0.882E-11
     Chemical potential (mu):      -0.01409
 
 PAO| energy:  -7.6871820816479408      penalty:   5.6460389898240094E-006
 PAO|LS| Need extra step
 PAO|LS| adapt:  T T F
 PAO|LS| adapt: scan_steps:    0.0000000000000000       0.40000000000000002        0.0000000000000000     
 PAO|LS| adapt: energies:   -7.5446713619582946       -7.6871820816479408        0.0000000000000000     
 PAO| ======================= Iteration:         5 =============================

     Lanczos converged:  T threshold:   0.100E-02
     Est. extremal eigenvalues:    0.260E+01   0.182E+00
     Est. condition number :    0.143E+02
     NS sqrt iter    1 1.00000000   0.674E+00       0.001       64.512
     NS sqrt iter    2 1.00000000   0.298E+00       0.001      110.592
     NS sqrt iter    3 1.00000000   0.602E-01       0.001      110.592
     NS sqrt iter    4 1.00000000   0.122E-02       0.001      110.592
     NS sqrt iter    5 1.00000000   0.230E-07       0.001       54.912
     Final NS sqrt iter    5 1.00000000   0.776E-09

     Est. extremal eigenvalues     -0.92348     1.68883  converged:  T
     TRS4 it   1 1.00000000   0.902E+00       0.000       16.128   0.100E-07
     TRS4 it   2 1.00000000   0.615E+00       0.001       32.256   0.100E-07
     TRS4 it   3 1.00000000   0.410E+00       0.001       32.256   0.100E-07
     TRS4 it   4 1.00000000   0.197E+00       0.001       32.256   0.100E-07
     TRS4 it   5 1.00000000   0.549E-01       0.001       32.256   0.100E-07
     TRS4 it   6 1.00000000   0.506E-02       0.001       32.256   0.100E-07
     TRS4 it   7 1.00000000   0.511E-04       0.001       32.256   0.100E-07
     TRS4 it   8 1.00000000   0.655E-08       0.001       32.256   0.100E-07
     Final TRS4 iteration    8 1.00000000   0.655E-08
     Chemical potential (mu):       0.03195
 
 PAO| energy:  -7.6295098588455694      penalty:   9.0336622578729127E-005
 PAO|LS| Need extra step
 PAO|LS| adapt:  T T T
 PAO|LS| adapt: scan_steps:    0.0000000000000000       0.40000000000000002       0.80000000000000004     
 PAO|LS| adapt: energies:   -7.5446713619582946       -7.6871820816479408       -7.6295098588455694     
 PAO|LS| adapt: suggested step_size:   0.48476096497648186     
 PAO|LS| adapt: predicted energy  -7.6916764521875161     
 PAO| ======================= Iteration:         6 =============================

     Lanczos converged:  T threshold:   0.100E-02
     Est. extremal eigenvalues:    0.285E+01   0.162E+00
     Est. condition number :    0.177E+02
     NS sqrt iter    1 1.00000000   0.718E+00       0.001       64.512
     NS sqrt iter    2 1.00000000   0.343E+00       0.001      110.592
     NS sqrt iter    3 1.00000000   0.874E-01       0.001      110.592
     NS sqrt iter    4 1.00000000   0.317E-02       0.001      110.592
     NS sqrt iter    5 1.00000000   0.340E-06       0.001       80.896
     Final NS sqrt iter    5 1.00000000   0.626E-09

     Est. extremal eigenvalues     -0.92423     1.72690  converged:  T
     TRS4 it   1 1.00000000   0.899E+00       0.000       16.128   0.100E-07
     TRS4 it   2 1.00000000   0.638E+00       0.001       32.256   0.100E-07
     TRS4 it   3 1.00000000   0.442E+00       0.001       32.256   0.100E-07
     TRS4 it   4 1.00000000   0.237E+00       0.001       32.256   0.100E-07
     TRS4 it   5 1.00000000   0.846E-01       0.001       32.256   0.100E-07
     TRS4 it   6 1.00000000   0.130E-01       0.001       32.256   0.100E-07
     TRS4 it   7 1.00000000   0.377E-03       0.001       32.256   0.100E-07
     TRS4 it   8 1.00000000   0.430E-06       0.001       32.256   0.100E-07
     TRS4 it   9 1.00000000   0.743E-12       0.001       32.256   0.100E-07
     Final TRS4 iteration    9 1.00000000   0.743E-12
     Chemical potential (mu):      -0.00126
 
 PAO| energy:  -7.6909732103677859      penalty:   1.2179079651457737E-005
 PAO|CG| warming up with steepest descent
 PAO|CG| beta:    0.0000000000000000     
 PAO| norm of gradient:  0.40620813962400576     
 PAO| energy improvement: -0.14630184840949134     
 PAO| step      6                   -7.690973210  0.254E-01  0.485E+00     0.080
 PAO|LS| adapt:  T F F
 PAO|LS| adapt: scan_steps:    0.0000000000000000        0.0000000000000000        0.0000000000000000     
 PAO|LS| adapt: energies:   -7.6909732103677859        0.0000000000000000        0.0000000000000000     
 PAO| ======================= Iteration:         7 =============================

     Lanczos converged:  T threshold:   0.100E-02
     Est. extremal eigenvalues:    0.277E+01   0.175E+00
     Est. condition number :    0.158E+02
     NS sqrt iter    1 1.00000000   0.701E+00       0.001       64.512
     NS sqrt iter    2 1.00000000   0.323E+00       0.001      110.592
     NS sqrt iter    3 1.00000000   0.730E-01       0.001      110.592
     NS sqrt iter    4 1.00000000   0.197E-02       0.001      110.592
     NS sqrt iter    5 1.00000000   0.884E-07       0.001       73.088
     Final NS sqrt iter    5 1.00000000   0.816E-09

     Est. extremal eigenvalues     -0.92609     1.72933  converged:  T
     TRS4 it   1 1.00000000   0.903E+00       0.000       16.128   0.100E-07
     TRS4 it   2 1.00000000   0.641E+00       0.001       32.256   0.100E-07
     TRS4 it   3 1.00000000   0.445E+00       0.001       32.256   0.100E-07
     TRS4 it   4 1.00000000   0.241E+00       0.001       32.256   0.100E-07
     TRS4 it   5 1.00000000   0.870E-01       0.001       32.256   0.100E-07
     TRS4 it   6 1.00000000   0.135E-01       0.001       32.256   0.100E-07
     TRS4 it   7 1.00000000   0.394E-03       0.001       32.256   0.100E-07
     TRS4 it   8 1.00000000   0.437E-06       0.001       32.256   0.100E-07
     TRS4 it   9 1.00000000   0.706E-12       0.001       32.256   0.100E-07
     Final TRS4 iteration    9 1.00000000   0.706E-12
     Chemical potential (mu):      -0.00018
 
 PAO| energy:  -7.6879595927891087      penalty:   1.7921623324561898E-005
 PAO|LS| adapt:  T F T
 PAO|LS| adapt: scan_steps:    0.0000000000000000        0.0000000000000000       0.48476096497648186     
 PAO|LS| adapt: energies:   -7.6909732103677859        0.0000000000000000       -7.6879595927891087     
 PAO| ======================= Iteration:         8 =============================

     Lanczos converged:  T threshold:   0.100E-02
     Est. extremal eigenvalues:    0.281E+01   0.168E+00
     Est. condition number :    0.167E+02
     NS sqrt iter    1 1.00000000   0.709E+00       0.001       64.512
     NS sqrt iter    2 1.00000000   0.333E+00       0.001      110.592
     NS sqrt iter    3 1.00000000   0.801E-01       0.001      110.592
     NS sqrt iter    4 1.00000000   0.251E-02       0.001      110.592
     NS sqrt iter    5 1.00000000   0.178E-06       0.001       77.952
     Final NS sqrt iter    5 1.00000000   0.855E-09

     Est. extremal eigenvalues     -0.92626     1.72795  converged:  T
     TRS4 it   1 1.00000000   0.901E+00       0.000       16.128   0.100E-07
     TRS4 it   2 1.00000000   0.639E+00       0.001       32.256   0.100E-07
     TRS4 it   3 1.00000000   0.443E+00       0.001       32.256   0.100E-07
     TRS4 it   4 1.00000000   0.239E+00       0.001       32.256   0.100E-07
     TRS4 it   5 1.00000000   0.857E-01       0.001       32.256   0.100E-07
     TRS4 it   6 1.00000000   0.134E-01       0.001       32.256   0.100E-07
     TRS4 it   7 1.00000000   0.399E-03       0.001       32.256   0.100E-07
     TRS4 it   8 1.00000000   0.468E-06       0.001       32.256   0.100E-07
     TRS4 it   9 1.00000000   0.849E-12       0.001       32.256   0.100E-07
     Final TRS4 iteration    9 1.00000000   0.849E-12
     Chemical potential (mu):      -0.00127
 
 PAO| energy:  -7.7099747131122793      penalty:   1.3131011909854259E-005
 PAO|LS| adapt:  T T T
 PAO|LS| adapt: scan_steps:    0.0000000000000000       0.24238048248824093       0.48476096497648186     
 PAO|LS| adapt: energies:   -7.6909732103677859       -7.7099747131122793       -7.6879595927891087     
 PAO|LS| adapt: suggested step_size:   0.23347626234376631     
 PAO|LS| adapt: predicted energy  -7.7100023905825079     
 PAO| ======================= Iteration:         9 =============================

     Lanczos converged:  T threshold:   0.100E-02
     Est. extremal eigenvalues:    0.281E+01   0.168E+00
     Est. condition number :    0.168E+02
     NS sqrt iter    1 1.00000000   0.710E+00       0.001       64.512
     NS sqrt iter    2 1.00000000   0.333E+00       0.001      110.592
     NS sqrt iter    3 1.00000000   0.803E-01       0.001      110.592
     NS sqrt iter    4 1.00000000   0.253E-02       0.001      110.592
     NS sqrt iter    5 1.00000000   0.182E-06       0.001       78.080
     Final NS sqrt iter    5 1.00000000   0.887E-09

     Est. extremal eigenvalues     -0.92623     1.72791  converged:  T
     TRS4 it   1 1.00000000   0.900E+00       0.000       16.128   0.100E-07
     TRS4 it   2 1.00000000   0.639E+00       0.001       32.256   0.100E-07
     TRS4 it   3 1.00000000   0.443E+00       0.001       32.256   0.100E-07
     TRS4 it   4 1.00000000   0.239E+00       0.001       32.256   0.100E-07
     TRS4 it   5 1.00000000   0.857E-01       0.001       32.256   0.100E-07
     TRS4 it   6 1.00000000   0.134E-01       0.001       32.256   0.100E-07
     TRS4 it   7 1.00000000   0.399E-03       0.001       32.256   0.100E-07
     TRS4 it   8 1.00000000   0.468E-06       0.001       32.256   0.100E-07
     TRS4 it   9 1.00000000   0.850E-12       0.001       32.256   0.100E-07
     Final TRS4 iteration    9 1.00000000   0.850E-12
     Chemical potential (mu):      -0.00130
 
 PAO| energy:  -7.7100153279504156      penalty:   1.3045853941284305E-005
 PAO|CG| trace_G_new    3.7620610104399786E-002
 PAO|CG| trace_G_prev   0.16500505269679577     
 PAO|CG| trace_G_mix   -1.4325745095211963E-003
 PAO|CG| trace_D   0.16500505269679577     
 PAO|CG| trace_D_Gnew   1.4325745095211963E-003
 PAO|CG| beta:   0.23667871968552970     
 PAO| norm of gradient:  0.19396033126492587     
 PAO| energy improvement:  -1.9042117582629636E-002
 PAO| step      9                   -7.710015328  0.121E-01  0.233E+00     0.048
 PAO|LS| adapt:  T F F
 PAO|LS| adapt: scan_steps:    0.0000000000000000        0.0000000000000000        0.0000000000000000     
 PAO|LS| adapt: energies:   -7.7100153279504156        0.0000000000000000        0.0000000000000000     
 PAO| ======================= Iteration:        10 =============================

     Lanczos converged:  T threshold:   0.100E-02
     Est. extremal eigenvalues:    0.278E+01   0.174E+00
     Est. condition number :    0.160E+02
     NS sqrt iter    1 1.00000000   0.702E+00       0.001       64.512
     NS sqrt iter    2 1.00000000   0.325E+00       0.001      110.592
     NS sqrt iter    3 1.00000000   0.748E-01       0.001      110.592
     NS sqrt iter    4 1.00000000   0.207E-02       0.001      110.592
     NS sqrt iter    5 1.00000000   0.100E-06       0.001       73.216
     Final NS sqrt iter    5 1.00000000   0.883E-09

     Est. extremal eigenvalues     -0.92717     1.72758  converged:  T
     TRS4 it   1 1.00000000   0.900E+00       0.000       16.128   0.100E-07
     TRS4 it   2 1.00000000   0.639E+00       0.001       32.256   0.100E-07
     TRS4 it   3 1.00000000   0.442E+00       0.001       32.256   0.100E-07
     TRS4 it   4 1.00000000   0.237E+00       0.001       32.256   0.100E-07
     TRS4 it   5 1.00000000   0.839E-01       0.001       32.256   0.100E-07
     TRS4 it   6 1.00000000   0.127E-01       0.001       32.256   0.100E-07
     TRS4 it   7 1.00000000   0.356E-03       0.001       32.256   0.100E-07
     TRS4 it   8 1.00000000   0.358E-06       0.001       32.256   0.100E-07
     TRS4 it   9 1.00000000   0.475E-12       0.001       32.256   0.100E-07
     Final TRS4 iteration    9 1.00000000   0.475E-12
     Chemical potential (mu):       0.00209
 
 PAO| energy:  -7.7150542517301339      penalty:   1.3614519243674045E-005
 PAO|LS| adapt:  T T F
 PAO|LS| adapt: scan_steps:    0.0000000000000000       0.23347626234376631        0.0000000000000000     
 PAO|LS| adapt: energies:   -7.7100153279504156       -7.7150542517301339        0.0000000000000000     
 PAO| ======================= Iteration:        11 =============================

     Lanczos converged:  T threshold:   0.100E-02
     Est. extremal eigenvalues:    0.274E+01   0.179E+00
     Est. condition number :    0.153E+02
     NS sqrt iter    1 1.00000000   0.694E+00       0.001       64.512
     NS sqrt iter    2 1.00000000   0.316E+00       0.001      110.592
     NS sqrt iter    3 1.00000000   0.695E-01       0.001      110.592
     NS sqrt iter    4 1.00000000   0.167E-02       0.001      110.592
     NS sqrt iter    5 1.00000000   0.539E-07       0.001       67.072
     Final NS sqrt iter    5 1.00000000   0.236E-08

     Est. extremal eigenvalues     -0.92699     1.72785  converged:  T
     TRS4 it   1 1.00000000   0.900E+00       0.000       16.128   0.100E-07
     TRS4 it   2 1.00000000   0.639E+00       0.001       32.256   0.100E-07
     TRS4 it   3 1.00000000   0.441E+00       0.001       32.256   0.100E-07
     TRS4 it   4 1.00000000   0.235E+00       0.001       32.256   0.100E-07
     TRS4 it   5 1.00000000   0.820E-01       0.001       32.256   0.100E-07
     TRS4 it   6 1.00000000   0.121E-01       0.001       32.256   0.100E-07
     TRS4 it   7 1.00000000   0.315E-03       0.001       32.256   0.100E-07
     TRS4 it   8 1.00000000   0.270E-06       0.001       32.256   0.100E-07
     TRS4 it   9 1.00000000   0.256E-12       0.001       32.256   0.100E-07
     Final TRS4 iteration    9 1.00000000   0.256E-12
     Chemical potential (mu):       0.00553
 
 PAO| energy:  -7.7130369733136730      penalty:   1.4897863494112061E-005
 PAO|LS| adapt:  T T T
 PAO|LS| adapt: scan_steps:    0.0000000000000000       0.23347626234376631       0.46695252468753262     
 PAO|LS| adapt: energies:   -7.7100153279504156       -7.7150542517301339       -7.7130369733136730     
 PAO|LS| adapt: suggested step_size:   0.28346650113849037     
 PAO|LS| adapt: predicted energy  -7.7152159949109462     
 PAO| ======================= Iteration:        12 =============================

     Lanczos converged:  T threshold:   0.100E-02
     Est. extremal eigenvalues:    0.277E+01   0.175E+00
     Est. condition number :    0.158E+02
     NS sqrt iter    1 1.00000000   0.700E+00       0.001       64.512
     NS sqrt iter    2 1.00000000   0.323E+00       0.001      110.592
     NS sqrt iter    3 1.00000000   0.737E-01       0.001      110.592
     NS sqrt iter    4 1.00000000   0.198E-02       0.001      110.592
     NS sqrt iter    5 1.00000000   0.880E-07       0.001       72.320
     Final NS sqrt iter    5 1.00000000   0.657E-09

     Est. extremal eigenvalues     -0.92723     1.72759  converged:  T
     TRS4 it   1 1.00000000   0.900E+00       0.000       16.128   0.100E-07
     TRS4 it   2 1.00000000   0.639E+00       0.001       32.256   0.100E-07
     TRS4 it   3 1.00000000   0.441E+00       0.001       32.256   0.100E-07
     TRS4 it   4 1.00000000   0.236E+00       0.001       32.256   0.100E-07
     TRS4 it   5 1.00000000   0.835E-01       0.001       32.256   0.100E-07
     TRS4 it   6 1.00000000   0.126E-01       0.001       32.256   0.100E-07
     TRS4 it   7 1.00000000   0.347E-03       0.001       32.256   0.100E-07
     TRS4 it   8 1.00000000   0.337E-06       0.001       32.256   0.100E-07
     TRS4 it   9 1.00000000   0.418E-12       0.001       32.256   0.100E-07
     Final TRS4 iteration    9 1.00000000   0.418E-12
     Chemical potential (mu):       0.00283
 
 PAO| energy:  -7.7152016796323952      penalty:   1.3822242694168314E-005
 PAO|CG| trace_G_new    1.3000775955342294E-002
 PAO|CG| trace_G_prev    3.7620610104399786E-002
 PAO|CG| trace_G_mix   -5.0960008004836033E-004
 PAO|CG| trace_D    4.6185548036930014E-002
 PAO|CG| trace_D_Gnew   2.5960939900647722E-004
 PAO|CG| beta:   0.35912166224573261     
 PAO| norm of gradient:  0.11402094524841608     
 PAO| energy improvement:  -5.1863516819796729E-003
 PAO| step     12                   -7.715201680  0.713E-02  0.283E+00     0.048
 PAO|LS| adapt:  T F F
 PAO|LS| adapt: scan_steps:    0.0000000000000000        0.0000000000000000        0.0000000000000000     
 PAO|LS| adapt: energies:   -7.7152016796323952        0.0000000000000000        0.0000000000000000     
 PAO| ======================= Iteration:        13 =============================

     Lanczos converged:  T threshold:   0.100E-02
     Est. extremal eigenvalues:    0.273E+01   0.179E+00
     Est. condition number :    0.152E+02
     NS sqrt iter    1 1.00000000   0.693E+00       0.001       64.512
     NS sqrt iter    2 1.00000000   0.316E+00       0.001      110.592
     NS sqrt iter    3 1.00000000   0.694E-01       0.001      110.592
     NS sqrt iter    4 1.00000000   0.167E-02       0.001      110.592
     NS sqrt iter    5 1.00000000   0.531E-07       0.001       66.816
     Final NS sqrt iter    5 1.00000000   0.233E-08

     Est. extremal eigenvalues     -0.92779     1.72028  converged:  T
     TRS4 it   1 1.00000000   0.900E+00       0.000       16.128   0.100E-07
     TRS4 it   2 1.00000000   0.635E+00       0.001       32.256   0.100E-07
     TRS4 it   3 1.00000000   0.437E+00       0.001       32.256   0.100E-07
     TRS4 it   4 1.00000000   0.231E+00       0.001       32.256   0.100E-07
     TRS4 it   5 1.00000000   0.795E-01       0.001       32.256   0.100E-07
     TRS4 it   6 1.00000000   0.113E-01       0.001       32.256   0.100E-07
     TRS4 it   7 1.00000000   0.276E-03       0.001       32.256   0.100E-07
     TRS4 it   8 1.00000000   0.206E-06       0.001       32.256   0.100E-07
     TRS4 it   9 1.00000000   0.149E-12       0.001       32.256   0.100E-07
     Final TRS4 iteration    9 1.00000000   0.149E-12
     Chemical potential (mu):       0.00778
 
 PAO| energy:  -7.7174579795821749      penalty:   1.4184988878835095E-005
 PAO|LS| adapt:  T T F
 PAO|LS| adapt: scan_steps:    0.0000000000000000       0.28346650113849037        0.0000000000000000     
 PAO|LS| adapt: energies:   -7.7152016796323952       -7.7174579795821749        0.0000000000000000     
 PAO| ======================= Iteration:        14 =============================

     Lanczos converged:  T threshold:   0.100E-02
     Est. extremal eigenvalues:    0.270E+01   0.184E+00
     Est. condition number :    0.147E+02
     NS sqrt iter    1 1.00000000   0.686E+00       0.001       64.512
     NS sqrt iter    2 1.00000000   0.309E+00       0.001      110.592
     NS sqrt iter    3 1.00000000   0.655E-01       0.001      110.592
     NS sqrt iter    4 1.00000000   0.140E-02       0.001      110.592
     NS sqrt iter    5 1.00000000   0.317E-07       0.001       58.496
     Final NS sqrt iter    5 1.00000000   0.463E-08

     Est. extremal eigenvalues     -0.92781     1.71317  converged:  T
     TRS4 it   1 1.00000000   0.899E+00       0.000       16.128   0.100E-07
     TRS4 it   2 1.00000000   0.632E+00       0.001       32.256   0.100E-07
     TRS4 it   3 1.00000000   0.433E+00       0.001       32.256   0.100E-07
     TRS4 it   4 1.00000000   0.226E+00       0.001       32.256   0.100E-07
     TRS4 it   5 1.00000000   0.756E-01       0.001       32.256   0.100E-07
     TRS4 it   6 1.00000000   0.102E-01       0.001       32.256   0.100E-07
     TRS4 it   7 1.00000000   0.220E-03       0.001       32.256   0.100E-07
     TRS4 it   8 1.00000000   0.126E-06       0.001       32.256   0.100E-07
     TRS4 it   9 1.00000000   0.521E-13       0.001       32.256   0.100E-07
     Final TRS4 iteration    9 1.00000000   0.521E-13
     Chemical potential (mu):       0.01251
 
 PAO| energy:  -7.7169600280497948      penalty:   1.5045003171220345E-005
 PAO|LS| adapt:  T T T
 PAO|LS| adapt: scan_steps:    0.0000000000000000       0.28346650113849037       0.56693300227698074     
 PAO|LS| adapt: energies:   -7.7152016796323952       -7.7174579795821749       -7.7169600280497948     
 PAO|LS| adapt: suggested step_size:   0.37395077189066039     
 PAO|LS| adapt: predicted energy  -7.7175982985207776     
 PAO| ======================= Iteration:        15 =============================

     Lanczos converged:  T threshold:   0.100E-02
     Est. extremal eigenvalues:    0.272E+01   0.181E+00
     Est. condition number :    0.151E+02
     NS sqrt iter    1 1.00000000   0.691E+00       0.001       64.512
     NS sqrt iter    2 1.00000000   0.314E+00       0.001      110.592
     NS sqrt iter    3 1.00000000   0.681E-01       0.001      110.592
     NS sqrt iter    4 1.00000000   0.158E-02       0.001      110.592
     NS sqrt iter    5 1.00000000   0.452E-07       0.001       65.792
     Final NS sqrt iter    5 1.00000000   0.689E-09

     Est. extremal eigenvalues     -0.92785     1.71799  converged:  T
     TRS4 it   1 1.00000000   0.900E+00       0.000       16.128   0.100E-07
     TRS4 it   2 1.00000000   0.634E+00       0.001       32.256   0.100E-07
     TRS4 it   3 1.00000000   0.436E+00       0.001       32.256   0.100E-07
     TRS4 it   4 1.00000000   0.229E+00       0.001       32.256   0.100E-07
     TRS4 it   5 1.00000000   0.782E-01       0.001       32.256   0.100E-07
     TRS4 it   6 1.00000000   0.109E-01       0.001       32.256   0.100E-07
     TRS4 it   7 1.00000000   0.257E-03       0.001       32.256   0.100E-07
     TRS4 it   8 1.00000000   0.176E-06       0.001       32.256   0.100E-07
     TRS4 it   9 1.00000000   0.107E-12       0.001       32.256   0.100E-07
     Final TRS4 iteration    9 1.00000000   0.107E-12
     Chemical potential (mu):       0.00931
 
 PAO| energy:  -7.7175946257636099      penalty:   1.4401436268926599E-005
 PAO|CG| trace_G_new    2.7174469684512798E-003
 PAO|CG| trace_G_prev    1.3000775955342294E-002
 PAO|CG| trace_G_mix    1.0418435030349604E-004
 PAO|CG| trace_D    1.8770788006624052E-002
 PAO|CG| trace_D_Gnew   3.1470725472372784E-005
 PAO|CG| beta:   0.20100820344295978     
 PAO| norm of gradient:   5.2129137422858629E-002
 PAO| energy improvement:  -2.3929461312146572E-003
 PAO| step     15                   -7.717594626  0.326E-02  0.374E+00     0.048
 PAO|LS| adapt:  T F F
 PAO|LS| adapt: scan_steps:    0.0000000000000000        0.0000000000000000        0.0000000000000000     
 PAO|LS| adapt: energies:   -7.7175946257636099        0.0000000000000000        0.0000000000000000     
 PAO| ======================= Iteration:        16 =============================

     Lanczos converged:  T threshold:   0.100E-02
     Est. extremal eigenvalues:    0.271E+01   0.182E+00
     Est. condition number :    0.150E+02
     NS sqrt iter    1 1.00000000   0.689E+00       0.001       64.512
     NS sqrt iter    2 1.00000000   0.313E+00       0.001      110.592
     NS sqrt iter    3 1.00000000   0.676E-01       0.001      110.592
     NS sqrt iter    4 1.00000000   0.153E-02       0.001      110.592
     NS sqrt iter    5 1.00000000   0.410E-07       0.001       63.488
     Final NS sqrt iter    5 1.00000000   0.277E-08

     Est. extremal eigenvalues     -0.92788     1.71785  converged:  T
     TRS4 it   1 1.00000000   0.900E+00       0.000       16.128   0.100E-07
     TRS4 it   2 1.00000000   0.634E+00       0.001       32.256   0.100E-07
     TRS4 it   3 1.00000000   0.435E+00       0.001       32.256   0.100E-07
     TRS4 it   4 1.00000000   0.228E+00       0.001       32.256   0.100E-07
     TRS4 it   5 1.00000000   0.770E-01       0.001       32.256   0.100E-07
     TRS4 it   6 1.00000000   0.106E-01       0.001       32.256   0.100E-07
     TRS4 it   7 1.00000000   0.242E-03       0.001       32.256   0.100E-07
     TRS4 it   8 1.00000000   0.158E-06       0.001       32.256   0.100E-07
     TRS4 it   9 1.00000000   0.854E-13       0.001       32.256   0.100E-07
     Final TRS4 iteration    9 1.00000000   0.854E-13
     Chemical potential (mu):       0.01032
 
 PAO| energy:  -7.7177200492502864      penalty:   1.4223900633694790E-005
 PAO|LS| adapt:  T T F
 PAO|LS| adapt: scan_steps:    0.0000000000000000       0.37395077189066039        0.0000000000000000     
 PAO|LS| adapt: energies:   -7.7175946257636099       -7.7177200492502864        0.0000000000000000     
 PAO| ======================= Iteration:        17 =============================

     Lanczos converged:  T threshold:   0.100E-02
     Est. extremal eigenvalues:    0.271E+01   0.182E+00
     Est. condition number :    0.149E+02
     NS sqrt iter    1 1.00000000   0.687E+00       0.001       64.512
     NS sqrt iter    2 1.00000000   0.312E+00       0.001      110.592
     NS sqrt iter    3 1.00000000   0.671E-01       0.001      110.592
     NS sqrt iter    4 1.00000000   0.149E-02       0.001      110.592
     NS sqrt iter    5 1.00000000   0.373E-07       0.001       63.104
     Final NS sqrt iter    5 1.00000000   0.259E-08

     Est. extremal eigenvalues     -0.92776     1.71779  converged:  T
     TRS4 it   1 1.00000000   0.900E+00       0.000       16.128   0.100E-07
     TRS4 it   2 1.00000000   0.633E+00       0.001       32.256   0.100E-07
     TRS4 it   3 1.00000000   0.434E+00       0.001       32.256   0.100E-07
     TRS4 it   4 1.00000000   0.226E+00       0.001       32.256   0.100E-07
     TRS4 it   5 1.00000000   0.759E-01       0.001       32.256   0.100E-07
     TRS4 it   6 1.00000000   0.103E-01       0.001       32.256   0.100E-07
     TRS4 it   7 1.00000000   0.229E-03       0.001       32.256   0.100E-07
     TRS4 it   8 1.00000000   0.141E-06       0.001       32.256   0.100E-07
     TRS4 it   9 1.00000000   0.689E-13       0.001       32.256   0.100E-07
     Final TRS4 iteration    9 1.00000000   0.689E-13
     Chemical potential (mu):       0.01129
 
 PAO| energy:  -7.7160607901472593      penalty:   1.4170146856506517E-005
 PAO|LS| adapt:  T T T
 PAO|LS| adapt: scan_steps:    0.0000000000000000       0.37395077189066039       0.74790154378132079     
 PAO|LS| adapt: energies:   -7.7175946257636099       -7.7177200492502864       -7.7160607901472593     
 PAO|LS| adapt: suggested step_size:   0.21325580685967349     
 PAO|LS| adapt: predicted energy  -7.7178848300712239     
 PAO| ======================= Iteration:        18 =============================

     Lanczos converged:  T threshold:   0.100E-02
     Est. extremal eigenvalues:    0.272E+01   0.181E+00
     Est. condition number :    0.150E+02
     NS sqrt iter    1 1.00000000   0.690E+00       0.001       64.512
     NS sqrt iter    2 1.00000000   0.313E+00       0.001      110.592
     NS sqrt iter    3 1.00000000   0.678E-01       0.001      110.592
     NS sqrt iter    4 1.00000000   0.155E-02       0.001      110.592
     NS sqrt iter    5 1.00000000   0.427E-07       0.001       63.744
     Final NS sqrt iter    5 1.00000000   0.276E-08

     Est. extremal eigenvalues     -0.92788     1.71790  converged:  T
     TRS4 it   1 1.00000000   0.900E+00       0.000       16.128   0.100E-07
     TRS4 it   2 1.00000000   0.634E+00       0.001       32.256   0.100E-07
     TRS4 it   3 1.00000000   0.435E+00       0.001       32.256   0.100E-07
     TRS4 it   4 1.00000000   0.229E+00       0.001       32.256   0.100E-07
     TRS4 it   5 1.00000000   0.775E-01       0.001       32.256   0.100E-07
     TRS4 it   6 1.00000000   0.108E-01       0.001       32.256   0.100E-07
     TRS4 it   7 1.00000000   0.248E-03       0.001       32.256   0.100E-07
     TRS4 it   8 1.00000000   0.165E-06       0.001       32.256   0.100E-07
     TRS4 it   9 1.00000000   0.942E-13       0.001       32.256   0.100E-07
     Final TRS4 iteration    9 1.00000000   0.942E-13
     Chemical potential (mu):       0.00989
 
 PAO| energy:  -7.7178841608593061      penalty:   1.4285325488409205E-005
 PAO|CG| trace_G_new    7.9249550914104740E-004
 PAO|CG| trace_G_prev    2.7174469684512798E-003
 PAO|CG| trace_G_mix    1.7008843897737859E-006
 PAO|CG| trace_D    3.4632157299992758E-003
 PAO|CG| trace_D_Gnew  -2.3842464958493824E-006
 PAO|CG| beta:   0.29100646081861214     
 PAO| norm of gradient:   2.8151296757716996E-002
 PAO| energy improvement:  -2.8953509569618063E-004
 PAO| step     18                   -7.717884161  0.176E-02  0.213E+00     0.048
 PAO|LS| adapt:  T F F
 PAO|LS| adapt: scan_steps:    0.0000000000000000        0.0000000000000000        0.0000000000000000     
 PAO|LS| adapt: energies:   -7.7178841608593061        0.0000000000000000        0.0000000000000000     
 PAO| ======================= Iteration:        19 =============================

     Lanczos converged:  T threshold:   0.100E-02
     Est. extremal eigenvalues:    0.272E+01   0.181E+00
     Est. condition number :    0.150E+02
     NS sqrt iter    1 1.00000000   0.690E+00       0.001       64.512
     NS sqrt iter    2 1.00000000   0.313E+00       0.001      110.592
     NS sqrt iter    3 1.00000000   0.680E-01       0.001      110.592
     NS sqrt iter    4 1.00000000   0.156E-02       0.001      110.592
     NS sqrt iter    5 1.00000000   0.430E-07       0.001       65.536
     Final NS sqrt iter    5 1.00000000   0.603E-09

     Est. extremal eigenvalues     -0.92789     1.71792  converged:  T
     TRS4 it   1 1.00000000   0.900E+00       0.000       16.128   0.100E-07
     TRS4 it   2 1.00000000   0.634E+00       0.001       32.256   0.100E-07
     TRS4 it   3 1.00000000   0.435E+00       0.001       32.256   0.100E-07
     TRS4 it   4 1.00000000   0.228E+00       0.001       32.256   0.100E-07
     TRS4 it   5 1.00000000   0.774E-01       0.001       32.256   0.100E-07
     TRS4 it   6 1.00000000   0.107E-01       0.001       32.256   0.100E-07
     TRS4 it   7 1.00000000   0.248E-03       0.001       32.256   0.100E-07
     TRS4 it   8 1.00000000   0.167E-06       0.001       32.256   0.100E-07
     TRS4 it   9 1.00000000   0.964E-13       0.001       32.256   0.100E-07
     Final TRS4 iteration    9 1.00000000   0.964E-13
     Chemical potential (mu):       0.00971
 
 PAO| energy:  -7.7180128819212728      penalty:   1.4014846150654914E-005
 PAO|LS| adapt:  T T F
 PAO|LS| adapt: scan_steps:    0.0000000000000000       0.21325580685967349        0.0000000000000000     
 PAO|LS| adapt: energies:   -7.7178841608593061       -7.7180128819212728        0.0000000000000000     
 PAO| ======================= Iteration:        20 =============================

     Lanczos converged:  T threshold:   0.100E-02
     Est. extremal eigenvalues:    0.272E+01   0.181E+00
     Est. condition number :    0.150E+02
     NS sqrt iter    1 1.00000000   0.690E+00       0.001       64.512
     NS sqrt iter    2 1.00000000   0.314E+00       0.001      110.592
     NS sqrt iter    3 1.00000000   0.682E-01       0.001      110.592
     NS sqrt iter    4 1.00000000   0.156E-02       0.001      110.592
     NS sqrt iter    5 1.00000000   0.432E-07       0.001       65.536
     Final NS sqrt iter    5 1.00000000   0.604E-09

     Est. extremal eigenvalues     -0.92788     1.71794  converged:  T
     TRS4 it   1 1.00000000   0.900E+00       0.000       16.128   0.100E-07
     TRS4 it   2 1.00000000   0.634E+00       0.001       32.256   0.100E-07
     TRS4 it   3 1.00000000   0.435E+00       0.001       32.256   0.100E-07
     TRS4 it   4 1.00000000   0.228E+00       0.001       32.256   0.100E-07
     TRS4 it   5 1.00000000   0.772E-01       0.001       32.256   0.100E-07
     TRS4 it   6 1.00000000   0.107E-01       0.001       32.256   0.100E-07
     TRS4 it   7 1.00000000   0.248E-03       0.001       32.256   0.100E-07
     TRS4 it   8 1.00000000   0.168E-06       0.001       32.256   0.100E-07
     TRS4 it   9 1.00000000   0.976E-13       0.001       32.256   0.100E-07
     Final TRS4 iteration    9 1.00000000   0.976E-13
     Chemical potential (mu):       0.00952
 
 PAO| energy:  -7.7180601658258183      penalty:   1.3756863291769437E-005
 PAO|LS| adapt:  T T F
 PAO|LS| adapt: scan_steps:    0.0000000000000000       0.42651161371934698        0.0000000000000000     
 PAO|LS| adapt: energies:   -7.7178841608593061       -7.7180601658258183        0.0000000000000000     
 PAO| ======================= Iteration:        21 =============================

     Lanczos converged:  T threshold:   0.100E-02
     Est. extremal eigenvalues:    0.272E+01   0.181E+00
     Est. condition number :    0.150E+02
     NS sqrt iter    1 1.00000000   0.689E+00       0.001       64.512
     NS sqrt iter    2 1.00000000   0.314E+00       0.001      110.592
     NS sqrt iter    3 1.00000000   0.687E-01       0.001      110.592
     NS sqrt iter    4 1.00000000   0.158E-02       0.001      110.592
     NS sqrt iter    5 1.00000000   0.437E-07       0.001       65.536
     Final NS sqrt iter    5 1.00000000   0.606E-09

     Est. extremal eigenvalues     -0.92788     1.71797  converged:  T
     TRS4 it   1 1.00000000   0.900E+00       0.000       16.128   0.100E-07
     TRS4 it   2 1.00000000   0.634E+00       0.001       32.256   0.100E-07
     TRS4 it   3 1.00000000   0.435E+00       0.001       32.256   0.100E-07
     TRS4 it   4 1.00000000   0.228E+00       0.001       32.256   0.100E-07
     TRS4 it   5 1.00000000   0.769E-01       0.001       32.256   0.100E-07
     TRS4 it   6 1.00000000   0.107E-01       0.001       32.256   0.100E-07
     TRS4 it   7 1.00000000   0.249E-03       0.001       32.256   0.100E-07
     TRS4 it   8 1.00000000   0.171E-06       0.001       32.256   0.100E-07
     TRS4 it   9 1.00000000   0.103E-12       0.001       32.256   0.100E-07
     Final TRS4 iteration    9 1.00000000   0.103E-12
     Chemical potential (mu):       0.00914
 
 PAO| energy:  -7.7179071782383959      penalty:   1.3277983924480921E-005
 PAO|LS| Need extra step
 PAO|LS| adapt:  T T T
 PAO|LS| adapt: scan_steps:    0.0000000000000000       0.42651161371934698       0.85302322743869397     
 PAO|LS| adapt: energies:   -7.7178841608593061       -7.7180601658258183       -7.7179071782383959     
 PAO|LS| adapt: suggested step_size:   0.44143167707911141     
 PAO|LS| adapt: predicted energy  -7.7180603671220691     
 PAO| ======================= Iteration:        22 =============================

     Lanczos converged:  T threshold:   0.100E-02
     Est. extremal eigenvalues:    0.272E+01   0.181E+00
     Est. condition number :    0.150E+02
     NS sqrt iter    1 1.00000000   0.690E+00       0.001       64.512
     NS sqrt iter    2 1.00000000   0.314E+00       0.001      110.592
     NS sqrt iter    3 1.00000000   0.682E-01       0.001      110.592
     NS sqrt iter    4 1.00000000   0.156E-02       0.001      110.592
     NS sqrt iter    5 1.00000000   0.432E-07       0.001       65.536
     Final NS sqrt iter    5 1.00000000   0.604E-09

     Est. extremal eigenvalues     -0.92788     1.71794  converged:  T
     TRS4 it   1 1.00000000   0.900E+00       0.000       16.128   0.100E-07
     TRS4 it   2 1.00000000   0.634E+00       0.001       32.256   0.100E-07
     TRS4 it   3 1.00000000   0.435E+00       0.001       32.256   0.100E-07
     TRS4 it   4 1.00000000   0.228E+00       0.001       32.256   0.100E-07
     TRS4 it   5 1.00000000   0.772E-01       0.001       32.256   0.100E-07
     TRS4 it   6 1.00000000   0.107E-01       0.001       32.256   0.100E-07
     TRS4 it   7 1.00000000   0.248E-03       0.001       32.256   0.100E-07
     TRS4 it   8 1.00000000   0.168E-06       0.001       32.256   0.100E-07
     TRS4 it   9 1.00000000   0.979E-13       0.001       32.256   0.100E-07
     Final TRS4 iteration    9 1.00000000   0.979E-13
     Chemical potential (mu):       0.00951
 
 PAO| energy:  -7.7180604050402595      penalty:   1.3739277961016971E-005
 PAO|CG| trace_G_new    2.2935567607849900E-004
 PAO|CG| trace_G_prev    7.9249550914104740E-004
 PAO|CG| trace_G_mix    4.7708886389067225E-006
 PAO|CG| trace_D    1.0871647651580628E-003
 PAO|CG| trace_D_Gnew  -2.5342901721659146E-006
 PAO|CG| beta:   0.28338935028541712     
 PAO| norm of gradient:   1.5144493259217984E-002
 PAO| energy improvement:  -1.7624418095341099E-004
 PAO| step     22                   -7.718060405  0.947E-03  0.441E+00     0.064
 PAO|LS| adapt:  T F F
 PAO|LS| adapt: scan_steps:    0.0000000000000000        0.0000000000000000        0.0000000000000000     
 PAO|LS| adapt: energies:   -7.7180604050402595        0.0000000000000000        0.0000000000000000     
 PAO| ======================= Iteration:        23 =============================

     Lanczos converged:  T threshold:   0.100E-02
     Est. extremal eigenvalues:    0.272E+01   0.181E+00
     Est. condition number :    0.150E+02
     NS sqrt iter    1 1.00000000   0.689E+00       0.001       64.512
     NS sqrt iter    2 1.00000000   0.314E+00       0.001      110.592
     NS sqrt iter    3 1.00000000   0.683E-01       0.001      110.592
     NS sqrt iter    4 1.00000000   0.156E-02       0.001      110.592
     NS sqrt iter    5 1.00000000   0.430E-07       0.001       65.536
     Final NS sqrt iter    5 1.00000000   0.599E-09

     Est. extremal eigenvalues     -0.92788     1.71798  converged:  T
     TRS4 it   1 1.00000000   0.900E+00       0.000       16.128   0.100E-07
     TRS4 it   2 1.00000000   0.634E+00       0.001       32.256   0.100E-07
     TRS4 it   3 1.00000000   0.435E+00       0.001       32.256   0.100E-07
     TRS4 it   4 1.00000000   0.228E+00       0.001       32.256   0.100E-07
     TRS4 it   5 1.00000000   0.774E-01       0.001       32.256   0.100E-07
     TRS4 it   6 1.00000000   0.108E-01       0.001       32.256   0.100E-07
     TRS4 it   7 1.00000000   0.251E-03       0.001       32.256   0.100E-07
     TRS4 it   8 1.00000000   0.172E-06       0.001       32.256   0.100E-07
     TRS4 it   9 1.00000000   0.102E-12       0.001       32.256   0.100E-07
     Final TRS4 iteration    9 1.00000000   0.102E-12
     Chemical potential (mu):       0.00926
 
 PAO| energy:  -7.7181020392761290      penalty:   1.3110609094817357E-005
 PAO|LS| adapt:  T T F
 PAO|LS| adapt: scan_steps:    0.0000000000000000       0.44143167707911141        0.0000000000000000     
 PAO|LS| adapt: energies:   -7.7180604050402595       -7.7181020392761290        0.0000000000000000     
 PAO| ======================= Iteration:        24 =============================

     Lanczos converged:  T threshold:   0.100E-02
     Est. extremal eigenvalues:    0.272E+01   0.181E+00
     Est. condition number :    0.150E+02
     NS sqrt iter    1 1.00000000   0.689E+00       0.001       64.512
     NS sqrt iter    2 1.00000000   0.314E+00       0.001      110.592
     NS sqrt iter    3 1.00000000   0.683E-01       0.001      110.592
     NS sqrt iter    4 1.00000000   0.156E-02       0.001      110.592
     NS sqrt iter    5 1.00000000   0.428E-07       0.001       65.536
     Final NS sqrt iter    5 1.00000000   0.594E-09

     Est. extremal eigenvalues     -0.92788     1.71802  converged:  T
     TRS4 it   1 1.00000000   0.900E+00       0.000       16.128   0.100E-07
     TRS4 it   2 1.00000000   0.634E+00       0.001       32.256   0.100E-07
     TRS4 it   3 1.00000000   0.435E+00       0.001       32.256   0.100E-07
     TRS4 it   4 1.00000000   0.228E+00       0.001       32.256   0.100E-07
     TRS4 it   5 1.00000000   0.775E-01       0.001       32.256   0.100E-07
     TRS4 it   6 1.00000000   0.108E-01       0.001       32.256   0.100E-07
     TRS4 it   7 1.00000000   0.254E-03       0.001       32.256   0.100E-07
     TRS4 it   8 1.00000000   0.176E-06       0.001       32.256   0.100E-07
     TRS4 it   9 1.00000000   0.107E-12       0.001       32.256   0.100E-07
     Final TRS4 iteration    9 1.00000000   0.107E-12
     Chemical potential (mu):       0.00901
 
 PAO| energy:  -7.7180231489606825      penalty:   1.2507608623000848E-005
 PAO|LS| adapt:  T T T
 PAO|LS| adapt: scan_steps:    0.0000000000000000       0.44143167707911141       0.88286335415822281     
 PAO|LS| adapt: energies:   -7.7180604050402595       -7.7181020392761290       -7.7180231489606825     
 PAO|LS| adapt: suggested step_size:   0.37320485727575553     
 PAO|LS| adapt: predicted energy  -7.7181034788328944     
 PAO| ======================= Iteration:        25 =============================

     Lanczos converged:  T threshold:   0.100E-02
     Est. extremal eigenvalues:    0.272E+01   0.181E+00
     Est. condition number :    0.150E+02
     NS sqrt iter    1 1.00000000   0.690E+00       0.001       64.512
     NS sqrt iter    2 1.00000000   0.314E+00       0.001      110.592
     NS sqrt iter    3 1.00000000   0.682E-01       0.001      110.592
     NS sqrt iter    4 1.00000000   0.156E-02       0.001      110.592
     NS sqrt iter    5 1.00000000   0.430E-07       0.001       65.536
     Final NS sqrt iter    5 1.00000000   0.600E-09

     Est. extremal eigenvalues     -0.92788     1.71798  converged:  T
     TRS4 it   1 1.00000000   0.900E+00       0.000       16.128   0.100E-07
     TRS4 it   2 1.00000000   0.634E+00       0.001       32.256   0.100E-07
     TRS4 it   3 1.00000000   0.435E+00       0.001       32.256   0.100E-07
     TRS4 it   4 1.00000000   0.228E+00       0.001       32.256   0.100E-07
     TRS4 it   5 1.00000000   0.774E-01       0.001       32.256   0.100E-07
     TRS4 it   6 1.00000000   0.107E-01       0.001       32.256   0.100E-07
     TRS4 it   7 1.00000000   0.251E-03       0.001       32.256   0.100E-07
     TRS4 it   8 1.00000000   0.171E-06       0.001       32.256   0.100E-07
     TRS4 it   9 1.00000000   0.102E-12       0.001       32.256   0.100E-07
     Final TRS4 iteration    9 1.00000000   0.102E-12
     Chemical potential (mu):       0.00930
 
 PAO| energy:  -7.7181034536398361      penalty:   1.3206085071488328E-005
 PAO|CG| trace_G_new    8.0958860824367469E-005
 PAO|CG| trace_G_prev    2.2935567607849900E-004
 PAO|CG| trace_G_mix    3.3958734588188014E-007
 PAO|CG| trace_D    3.1810174241113300E-004
 PAO|CG| trace_D_Gnew  -3.5096586891688857E-007
 PAO|CG| beta:   0.35150328457924424     
 PAO| norm of gradient:   8.9977141999714270E-003
 PAO| energy improvement:  -4.3048599576600566E-005
 PAO| step     25                   -7.718103454  0.562E-03  0.373E+00     0.048
 PAO|LS| adapt:  T F F
 PAO|LS| adapt: scan_steps:    0.0000000000000000        0.0000000000000000        0.0000000000000000     
 PAO|LS| adapt: energies:   -7.7181034536398361        0.0000000000000000        0.0000000000000000     
 PAO| ======================= Iteration:        26 =============================

     Lanczos converged:  T threshold:   0.100E-02
     Est. extremal eigenvalues:    0.272E+01   0.181E+00
     Est. condition number :    0.150E+02
     NS sqrt iter    1 1.00000000   0.689E+00       0.001       64.512
     NS sqrt iter    2 1.00000000   0.313E+00       0.001      110.592
     NS sqrt iter    3 1.00000000   0.682E-01       0.001      110.592
     NS sqrt iter    4 1.00000000   0.156E-02       0.001      110.592
     NS sqrt iter    5 1.00000000   0.427E-07       0.001       65.536
     Final NS sqrt iter    5 1.00000000   0.595E-09

     Est. extremal eigenvalues     -0.92789     1.71781  converged:  T
     TRS4 it   1 1.00000000   0.900E+00       0.000       16.128   0.100E-07
     TRS4 it   2 1.00000000   0.634E+00       0.001       32.256   0.100E-07
     TRS4 it   3 1.00000000   0.435E+00       0.001       32.256   0.100E-07
     TRS4 it   4 1.00000000   0.228E+00       0.001       32.256   0.100E-07
     TRS4 it   5 1.00000000   0.773E-01       0.001       32.256   0.100E-07
     TRS4 it   6 1.00000000   0.107E-01       0.001       32.256   0.100E-07
     TRS4 it   7 1.00000000   0.250E-03       0.001       32.256   0.100E-07
     TRS4 it   8 1.00000000   0.170E-06       0.001       32.256   0.100E-07
     TRS4 it   9 1.00000000   0.995E-13       0.001       32.256   0.100E-07
     Final TRS4 iteration    9 1.00000000   0.995E-13
     Chemical potential (mu):       0.00937
 
 PAO| energy:  -7.7181108516954433      penalty:   1.2628155164394794E-005
 PAO|LS| adapt:  T T F
 PAO|LS| adapt: scan_steps:    0.0000000000000000       0.37320485727575553        0.0000000000000000     
 PAO|LS| adapt: energies:   -7.7181034536398361       -7.7181108516954433        0.0000000000000000     
 PAO| ======================= Iteration:        27 =============================

     Lanczos converged:  T threshold:   0.100E-02
     Est. extremal eigenvalues:    0.272E+01   0.181E+00
     Est. condition number :    0.150E+02
     NS sqrt iter    1 1.00000000   0.689E+00       0.001       64.512
     NS sqrt iter    2 1.00000000   0.313E+00       0.001      110.592
     NS sqrt iter    3 1.00000000   0.681E-01       0.001      110.592
     NS sqrt iter    4 1.00000000   0.155E-02       0.001      110.592
     NS sqrt iter    5 1.00000000   0.424E-07       0.001       65.536
     Final NS sqrt iter    5 1.00000000   0.590E-09

     Est. extremal eigenvalues     -0.92789     1.71765  converged:  T
     TRS4 it   1 1.00000000   0.900E+00       0.000       16.128   0.100E-07
     TRS4 it   2 1.00000000   0.634E+00       0.001       32.256   0.100E-07
     TRS4 it   3 1.00000000   0.435E+00       0.001       32.256   0.100E-07
     TRS4 it   4 1.00000000   0.228E+00       0.001       32.256   0.100E-07
     TRS4 it   5 1.00000000   0.773E-01       0.001       32.256   0.100E-07
     TRS4 it   6 1.00000000   0.107E-01       0.001       32.256   0.100E-07
     TRS4 it   7 1.00000000   0.250E-03       0.001       32.256   0.100E-07
     TRS4 it   8 1.00000000   0.169E-06       0.001       32.256   0.100E-07
     TRS4 it   9 1.00000000   0.989E-13       0.001       32.256   0.100E-07
     Final TRS4 iteration    9 1.00000000   0.989E-13
     Chemical potential (mu):       0.00945
 
 PAO| energy:  -7.7180724468128332      penalty:   1.2065938702720432E-005
 PAO|LS| adapt:  T T T
 PAO|LS| adapt: scan_steps:    0.0000000000000000       0.37320485727575553       0.74640971455151106     
 PAO|LS| adapt: energies:   -7.7181034536398361       -7.7181108516954433       -7.7180724468128332     
 PAO|LS| adapt: suggested step_size:   0.24688219221800842     
 PAO|LS| adapt: predicted energy  -7.7181134754990639     
 PAO| ======================= Iteration:        28 =============================

     Lanczos converged:  T threshold:   0.100E-02
     Est. extremal eigenvalues:    0.272E+01   0.181E+00
     Est. condition number :    0.150E+02
     NS sqrt iter    1 1.00000000   0.689E+00       0.001       64.512
     NS sqrt iter    2 1.00000000   0.314E+00       0.001      110.592
     NS sqrt iter    3 1.00000000   0.682E-01       0.001      110.592
     NS sqrt iter    4 1.00000000   0.156E-02       0.001      110.592
     NS sqrt iter    5 1.00000000   0.428E-07       0.001       65.536
     Final NS sqrt iter    5 1.00000000   0.597E-09

     Est. extremal eigenvalues     -0.92789     1.71787  converged:  T
     TRS4 it   1 1.00000000   0.900E+00       0.000       16.128   0.100E-07
     TRS4 it   2 1.00000000   0.634E+00       0.001       32.256   0.100E-07
     TRS4 it   3 1.00000000   0.435E+00       0.001       32.256   0.100E-07
     TRS4 it   4 1.00000000   0.228E+00       0.001       32.256   0.100E-07
     TRS4 it   5 1.00000000   0.773E-01       0.001       32.256   0.100E-07
     TRS4 it   6 1.00000000   0.107E-01       0.001       32.256   0.100E-07
     TRS4 it   7 1.00000000   0.250E-03       0.001       32.256   0.100E-07
     TRS4 it   8 1.00000000   0.171E-06       0.001       32.256   0.100E-07
     TRS4 it   9 1.00000000   0.101E-12       0.001       32.256   0.100E-07
     Final TRS4 iteration    9 1.00000000   0.101E-12
     Chemical potential (mu):       0.00935
 
 PAO| energy:  -7.7181134696381566      penalty:   1.2822005518866019E-005
 PAO|CG| trace_G_new    2.5839421599086935E-005
 PAO|CG| trace_G_prev    8.0958860824367469E-005
 PAO|CG| trace_G_mix    7.7420666074423380E-008
 PAO|CG| trace_D    1.2050851265877179E-004
 PAO|CG| trace_D_Gnew  -3.4379337504172590E-008
 PAO|CG| beta:   0.31821101076138802     
 PAO| norm of gradient:   5.0832491183382834E-003
 PAO| energy improvement:  -1.0015998320511699E-005
 PAO| step     28                   -7.718113470  0.318E-03  0.247E+00     0.048
 PAO|LS| adapt:  T F F
 PAO|LS| adapt: scan_steps:    0.0000000000000000        0.0000000000000000        0.0000000000000000     
 PAO|LS| adapt: energies:   -7.7181134696381566        0.0000000000000000        0.0000000000000000     
 PAO| ======================= Iteration:        29 =============================

     Lanczos converged:  T threshold:   0.100E-02
     Est. extremal eigenvalues:    0.272E+01   0.181E+00
     Est. condition number :    0.150E+02
     NS sqrt iter    1 1.00000000   0.689E+00       0.001       64.512
     NS sqrt iter    2 1.00000000   0.313E+00       0.001      110.592
     NS sqrt iter    3 1.00000000   0.681E-01       0.001      110.592
     NS sqrt iter    4 1.00000000   0.156E-02       0.001      110.592
     NS sqrt iter    5 1.00000000   0.428E-07       0.001       65.536
     Final NS sqrt iter    5 1.00000000   0.596E-09

     Est. extremal eigenvalues     -0.92789     1.71788  converged:  T
     TRS4 it   1 1.00000000   0.900E+00       0.000       16.128   0.100E-07
     TRS4 it   2 1.00000000   0.634E+00       0.001       32.256   0.100E-07
     TRS4 it   3 1.00000000   0.435E+00       0.001       32.256   0.100E-07
     TRS4 it   4 1.00000000   0.228E+00       0.001       32.256   0.100E-07
     TRS4 it   5 1.00000000   0.773E-01       0.001       32.256   0.100E-07
     TRS4 it   6 1.00000000   0.107E-01       0.001       32.256   0.100E-07
     TRS4 it   7 1.00000000   0.249E-03       0.001       32.256   0.100E-07
     TRS4 it   8 1.00000000   0.169E-06       0.001       32.256   0.100E-07
     TRS4 it   9 1.00000000   0.983E-13       0.001       32.256   0.100E-07
     Final TRS4 iteration    9 1.00000000   0.983E-13
     Chemical potential (mu):       0.00945
 
 PAO| energy:  -7.7181191143414791      penalty:   1.2446039200521214E-005
 PAO|LS| adapt:  T T F
 PAO|LS| adapt: scan_steps:    0.0000000000000000       0.24688219221800842        0.0000000000000000     
 PAO|LS| adapt: energies:   -7.7181134696381566       -7.7181191143414791        0.0000000000000000     
 PAO| ======================= Iteration:        30 =============================

     Lanczos converged:  T threshold:   0.100E-02
     Est. extremal eigenvalues:    0.272E+01   0.181E+00
     Est. condition number :    0.150E+02
     NS sqrt iter    1 1.00000000   0.689E+00       0.001       64.512
     NS sqrt iter    2 1.00000000   0.313E+00       0.001      110.592
     NS sqrt iter    3 1.00000000   0.681E-01       0.001      110.592
     NS sqrt iter    4 1.00000000   0.156E-02       0.001      110.592
     NS sqrt iter    5 1.00000000   0.427E-07       0.001       65.536
     Final NS sqrt iter    5 1.00000000   0.595E-09

     Est. extremal eigenvalues     -0.92789     1.71788  converged:  T
     TRS4 it   1 1.00000000   0.900E+00       0.000       16.128   0.100E-07
     TRS4 it   2 1.00000000   0.634E+00       0.001       32.256   0.100E-07
     TRS4 it   3 1.00000000   0.435E+00       0.001       32.256   0.100E-07
     TRS4 it   4 1.00000000   0.228E+00       0.001       32.256   0.100E-07
     TRS4 it   5 1.00000000   0.772E-01       0.001       32.256   0.100E-07
     TRS4 it   6 1.00000000   0.107E-01       0.001       32.256   0.100E-07
     TRS4 it   7 1.00000000   0.248E-03       0.001       32.256   0.100E-07
     TRS4 it   8 1.00000000   0.168E-06       0.001       32.256   0.100E-07
     TRS4 it   9 1.00000000   0.983E-13       0.001       32.256   0.100E-07
     Final TRS4 iteration    9 1.00000000   0.983E-13
     Chemical potential (mu):       0.00955
 
 PAO| energy:  -7.7181232849358192      penalty:   1.2076191278639781E-005
 PAO|LS| adapt:  T T F
 PAO|LS| adapt: scan_steps:    0.0000000000000000       0.49376438443601683        0.0000000000000000     
 PAO|LS| adapt: energies:   -7.7181134696381566       -7.7181232849358192        0.0000000000000000     
 PAO| ======================= Iteration:        31 =============================

     Lanczos converged:  T threshold:   0.100E-02
     Est. extremal eigenvalues:    0.272E+01   0.181E+00
     Est. condition number :    0.150E+02
     NS sqrt iter    1 1.00000000   0.689E+00       0.001       64.512
     NS sqrt iter    2 1.00000000   0.313E+00       0.001      110.592
     NS sqrt iter    3 1.00000000   0.680E-01       0.001      110.592
     NS sqrt iter    4 1.00000000   0.155E-02       0.001      110.592
     NS sqrt iter    5 1.00000000   0.426E-07       0.001       63.744
     Final NS sqrt iter    5 1.00000000   0.277E-08

     Est. extremal eigenvalues     -0.92789     1.71789  converged:  T
     TRS4 it   1 1.00000000   0.900E+00       0.000       16.128   0.100E-07
     TRS4 it   2 1.00000000   0.634E+00       0.001       32.256   0.100E-07
     TRS4 it   3 1.00000000   0.435E+00       0.001       32.256   0.100E-07
     TRS4 it   4 1.00000000   0.228E+00       0.001       32.256   0.100E-07
     TRS4 it   5 1.00000000   0.770E-01       0.001       32.256   0.100E-07
     TRS4 it   6 1.00000000   0.107E-01       0.001       32.256   0.100E-07
     TRS4 it   7 1.00000000   0.246E-03       0.001       32.256   0.100E-07
     TRS4 it   8 1.00000000   0.165E-06       0.001       32.256   0.100E-07
     TRS4 it   9 1.00000000   0.931E-13       0.001       32.256   0.100E-07
     Final TRS4 iteration    9 1.00000000   0.931E-13
     Chemical potential (mu):       0.00976
 
 PAO| energy:  -7.7181271991968003      penalty:   1.1354756211914565E-005
 PAO|LS| Need extra step
 PAO|LS| adapt:  T T F
 PAO|LS| adapt: scan_steps:    0.0000000000000000       0.98752876887203367        0.0000000000000000     
 PAO|LS| adapt: energies:   -7.7181134696381566       -7.7181271991968003        0.0000000000000000     
 PAO| ======================= Iteration:        32 =============================

     Lanczos converged:  T threshold:   0.100E-02
     Est. extremal eigenvalues:    0.272E+01   0.181E+00
     Est. condition number :    0.150E+02
     NS sqrt iter    1 1.00000000   0.688E+00       0.001       64.512
     NS sqrt iter    2 1.00000000   0.313E+00       0.001      110.592
     NS sqrt iter    3 1.00000000   0.678E-01       0.001      110.592
     NS sqrt iter    4 1.00000000   0.155E-02       0.001      110.592
     NS sqrt iter    5 1.00000000   0.425E-07       0.001       63.744
     Final NS sqrt iter    5 1.00000000   0.267E-08

     Est. extremal eigenvalues     -0.92790     1.71790  converged:  T
     TRS4 it   1 1.00000000   0.900E+00       0.000       16.128   0.100E-07
     TRS4 it   2 1.00000000   0.634E+00       0.001       32.256   0.100E-07
     TRS4 it   3 1.00000000   0.435E+00       0.001       32.256   0.100E-07
     TRS4 it   4 1.00000000   0.227E+00       0.001       32.256   0.100E-07
     TRS4 it   5 1.00000000   0.768E-01       0.001       32.256   0.100E-07
     TRS4 it   6 1.00000000   0.106E-01       0.001       32.256   0.100E-07
     TRS4 it   7 1.00000000   0.242E-03       0.001       32.256   0.100E-07
     TRS4 it   8 1.00000000   0.159E-06       0.001       32.256   0.100E-07
     TRS4 it   9 1.00000000   0.858E-13       0.001       32.256   0.100E-07
     Final TRS4 iteration    9 1.00000000   0.858E-13
     Chemical potential (mu):       0.01016
 
 PAO| energy:  -7.7181173766787881      penalty:   9.9842724648071821E-006
 PAO|LS| Need extra step
 PAO|LS| adapt:  T T T
 PAO|LS| adapt: scan_steps:    0.0000000000000000       0.98752876887203367        1.9750575377440673     
 PAO|LS| adapt: energies:   -7.7181134696381566       -7.7181271991968003       -7.7181173766787881     
 PAO|LS| adapt: suggested step_size:    1.0694390624115824     
 PAO|LS| adapt: predicted energy  -7.7181272802138956     
 PAO| ======================= Iteration:        33 =============================

     Lanczos converged:  T threshold:   0.100E-02
     Est. extremal eigenvalues:    0.272E+01   0.181E+00
     Est. condition number :    0.150E+02
     NS sqrt iter    1 1.00000000   0.689E+00       0.001       64.512
     NS sqrt iter    2 1.00000000   0.313E+00       0.001      109.464
     NS sqrt iter    3 1.00000000   0.680E-01       0.001      110.592
     NS sqrt iter    4 1.00000000   0.155E-02       0.001      110.592
     NS sqrt iter    5 1.00000000   0.426E-07       0.001       63.744
     Final NS sqrt iter    5 1.00000000   0.276E-08

     Est. extremal eigenvalues     -0.92789     1.71789  converged:  T
     TRS4 it   1 1.00000000   0.900E+00       0.000       16.128   0.100E-07
     TRS4 it   2 1.00000000   0.634E+00       0.001       32.256   0.100E-07
     TRS4 it   3 1.00000000   0.435E+00       0.001       32.256   0.100E-07
     TRS4 it   4 1.00000000   0.228E+00       0.001       32.256   0.100E-07
     TRS4 it   5 1.00000000   0.770E-01       0.001       32.256   0.100E-07
     TRS4 it   6 1.00000000   0.107E-01       0.001       32.256   0.100E-07
     TRS4 it   7 1.00000000   0.246E-03       0.001       32.256   0.100E-07
     TRS4 it   8 1.00000000   0.164E-06       0.001       32.256   0.100E-07
     TRS4 it   9 1.00000000   0.921E-13       0.001       32.256   0.100E-07
     Final TRS4 iteration    9 1.00000000   0.921E-13
     Chemical potential (mu):       0.00979
 
 PAO| energy:  -7.7181272800592762      penalty:   1.1237422182081664E-005
 PAO|CG| trace_G_new    8.2462996665806388E-005
[...]
 PAO|LS| adapt: scan_steps:    0.0000000000000000       0.20000000000000001        0.0000000000000000     
 PAO|LS| adapt: energies:   -7.7178275845503785       -7.7178275845611592        0.0000000000000000     
 PAO| ======================= Iteration:       845 =============================

     Lanczos converged:  T threshold:   0.100E-02
     Est. extremal eigenvalues:    0.256E+01   0.225E+00
     Est. condition number :    0.114E+02
     NS sqrt iter    1 1.00000000   0.643E+00       0.001       64.512
     NS sqrt iter    2 1.00000000   0.270E+00       0.001      110.592
     NS sqrt iter    3 1.00000000   0.443E-01       0.001      110.592
     NS sqrt iter    4 1.00000000   0.410E-03       0.001      110.336
     NS sqrt iter    5 1.00000000   0.413E-09       0.001       36.864
     Final NS sqrt iter    5 1.00000000   0.211E-10

     Est. extremal eigenvalues     -0.92763     1.47548  converged:  T
     TRS4 it   1 1.00000000   0.846E+00       0.000       16.128   0.100E-07
     TRS4 it   2 1.00000000   0.603E+00       0.001       32.256   0.100E-07
     TRS4 it   3 1.00000000   0.434E+00       0.001       32.256   0.100E-07
     TRS4 it   4 1.00000000   0.264E+00       0.001       32.256   0.100E-07
     TRS4 it   5 1.00000000   0.122E+00       0.001       32.256   0.100E-07
     TRS4 it   6 1.00000000   0.328E-01       0.001       32.256   0.100E-07
     TRS4 it   7 1.00000000   0.311E-02       0.001       32.256   0.100E-07
     TRS4 it   8 1.00000000   0.355E-04       0.001       32.256   0.100E-07
     TRS4 it   9 1.00000000   0.542E-08       0.001       32.256   0.100E-07
     Final TRS4 iteration    9 1.00000000   0.542E-08
     Chemical potential (mu):      -0.07186
 
 PAO| energy:  -7.7178275845580977      penalty:   2.2480943179273278E-011
 PAO|LS| Need extra step
 PAO|LS| adapt:  T T T
 PAO|LS| adapt: scan_steps:    0.0000000000000000       0.20000000000000001       0.40000000000000002     
 PAO|LS| adapt: energies:   -7.7178275845503785       -7.7178275845611592       -7.7178275845580977     
 PAO|LS| adapt: suggested step_size:   0.25576515880654482     
 PAO|LS| adapt: predicted energy  -7.7178275845616975     
 PAO| ======================= Iteration:       846 =============================

     Lanczos converged:  T threshold:   0.100E-02
     Est. extremal eigenvalues:    0.256E+01   0.225E+00
     Est. condition number :    0.114E+02
     NS sqrt iter    1 1.00000000   0.643E+00       0.001       64.512
     NS sqrt iter    2 1.00000000   0.270E+00       0.001      110.592
     NS sqrt iter    3 1.00000000   0.443E-01       0.001      110.592
     NS sqrt iter    4 1.00000000   0.410E-03       0.001      110.336
     NS sqrt iter    5 1.00000000   0.413E-09       0.001       36.864
     Final NS sqrt iter    5 1.00000000   0.211E-10

     Est. extremal eigenvalues     -0.92763     1.47548  converged:  T
     TRS4 it   1 1.00000000   0.846E+00       0.000       16.128   0.100E-07
     TRS4 it   2 1.00000000   0.603E+00       0.001       32.256   0.100E-07
     TRS4 it   3 1.00000000   0.434E+00       0.001       32.256   0.100E-07
     TRS4 it   4 1.00000000   0.264E+00       0.001       32.256   0.100E-07
     TRS4 it   5 1.00000000   0.122E+00       0.001       32.256   0.100E-07
     TRS4 it   6 1.00000000   0.328E-01       0.001       32.256   0.100E-07
     TRS4 it   7 1.00000000   0.311E-02       0.001       32.256   0.100E-07
     TRS4 it   8 1.00000000   0.355E-04       0.001       32.256   0.100E-07
     TRS4 it   9 1.00000000   0.542E-08       0.001       32.256   0.100E-07
     Final TRS4 iteration    9 1.00000000   0.542E-08
     Chemical potential (mu):      -0.07186
 
 PAO| energy:  -7.7178275845617019      penalty:   2.2701274485450380E-011
 PAO|CG| warming up with steepest descent
 PAO|CG| beta:    0.0000000000000000     
 PAO| norm of gradient:   7.0751370776821139E-006
 PAO| energy improvement:  -1.1323386672756897E-011
 PAO| step    846                   -7.717827585  0.442E-06  0.256E+00     0.063
 PAO| converged after          846  steps :-)
 PAO| Recalculating energy after mixing.

     Lanczos converged:  T threshold:   0.100E-02
     Est. extremal eigenvalues:    0.256E+01   0.225E+00
     Est. condition number :    0.114E+02
     NS sqrt iter    1 1.00000000   0.643E+00       0.001       64.512
     NS sqrt iter    2 1.00000000   0.270E+00       0.001      110.592
     NS sqrt iter    3 1.00000000   0.443E-01       0.001      110.592
     NS sqrt iter    4 1.00000000   0.410E-03       0.001      110.336
     NS sqrt iter    5 1.00000000   0.413E-09       0.001       36.864
     Final NS sqrt iter    5 1.00000000   0.211E-10

     Est. extremal eigenvalues     -0.92763     1.47548  converged:  T
     TRS4 it   1 1.00000000   0.846E+00       0.000       16.128   0.100E-07
     TRS4 it   2 1.00000000   0.603E+00       0.001       32.256   0.100E-07
     TRS4 it   3 1.00000000   0.434E+00       0.001       32.256   0.100E-07
     TRS4 it   4 1.00000000   0.264E+00       0.001       32.256   0.100E-07
     TRS4 it   5 1.00000000   0.122E+00       0.001       32.256   0.100E-07
     TRS4 it   6 1.00000000   0.328E-01       0.001       32.256   0.100E-07
     TRS4 it   7 1.00000000   0.311E-02       0.001       32.256   0.100E-07
     TRS4 it   8 1.00000000   0.355E-04       0.001       32.256   0.100E-07
     TRS4 it   9 1.00000000   0.542E-08       0.001       32.256   0.100E-07
     Final TRS4 iteration    9 1.00000000   0.542E-08
     Chemical potential (mu):      -0.07186
 
 PAO| energy:  -7.7178275845588713      penalty:   2.2897735889617237E-011
 PAO| Writing restart file.
     Est. extremal eigenvalues     -0.92763     1.47548  converged:  T
     TRS4 it   1 1.00000000   0.846E+00       0.000       16.128   0.100E-07
     TRS4 it   2 1.00000000   0.603E+00       0.001       32.256   0.100E-07
     TRS4 it   3 1.00000000   0.434E+00       0.001       32.256   0.100E-07
     TRS4 it   4 1.00000000   0.264E+00       0.001       32.256   0.100E-07
     TRS4 it   5 1.00000000   0.122E+00       0.001       32.256   0.100E-07
     TRS4 it   6 1.00000000   0.328E-01       0.001       32.256   0.100E-07
     TRS4 it   7 1.00000000   0.311E-02       0.001       32.256   0.100E-07
     TRS4 it   8 1.00000000   0.355E-04       0.001       32.256   0.100E-07
     TRS4 it   9 1.00000000   0.542E-08       0.001       32.256   0.100E-07
     Final TRS4 iteration    9 1.00000000   0.542E-08
     Chemical potential (mu):      -0.07186

 SCF     1       -34.448732205       -34.448732205    1.895412

*********************************************************
 Using MIXING_FRACTION=0.450 to mix KS matrix:  iscf=  2
 KS_nw=0.450*KS + 0.550*KS_old
*********************************************************
     Est. extremal eigenvalues     -0.92763     1.47548  converged:  T
     TRS4 it   1 1.00000000   0.846E+00       0.000       16.128   0.100E-07
     TRS4 it   2 1.00000000   0.603E+00       0.001       32.256   0.100E-07
     TRS4 it   3 1.00000000   0.434E+00       0.001       32.256   0.100E-07
     TRS4 it   4 1.00000000   0.264E+00       0.001       32.256   0.100E-07
     TRS4 it   5 1.00000000   0.122E+00       0.001       32.256   0.100E-07
     TRS4 it   6 1.00000000   0.328E-01       0.001       32.256   0.100E-07
     TRS4 it   7 1.00000000   0.311E-02       0.001       32.256   0.100E-07
     TRS4 it   8 1.00000000   0.355E-04       0.001       32.256   0.100E-07
     TRS4 it   9 1.00000000   0.542E-08       0.001       32.256   0.100E-07
     Final TRS4 iteration    9 1.00000000   0.542E-08
     Chemical potential (mu):      -0.07186

 SCF     2       -34.448732205        -0.000000000    1.894351

 PAO| Storing density matrix for ASPC guess in slot:           1

 ENERGY| Total FORCE_EVAL ( QS ) energy (a.u.):              -34.448732205172988


 -------------------------------------------------------------------------------
 -                                                                             -
 -                                DBCSR STATISTICS                             -
 -                                                                             -
 -------------------------------------------------------------------------------
 COUNTER                                    TOTAL       BLAS       SMM       ACC
 flops     5 x     5 x     4                30000       0.0%    100.0%      0.0%
 flops    13 x     5 x     4                31200       0.0%    100.0%      0.0%
 flops     5 x    13 x     4                31200       0.0%    100.0%      0.0%
 flops    13 x    13 x     4                60840       0.0%    100.0%      0.0%
 flops     4 x     4 x     5              6624000       0.0%    100.0%      0.0%
 flops     5 x     4 x     5              8102400       0.0%    100.0%      0.0%
 flops     4 x     4 x    13              8611200       0.0%    100.0%      0.0%
 flops    13 x     4 x     5             10533120       0.0%    100.0%      0.0%
 flops     5 x     4 x    13             10533120       0.0%    100.0%      0.0%
 flops     5 x     4 x     4             12571680       0.0%    100.0%      0.0%
 flops    13 x     4 x    13             13693056       0.0%    100.0%      0.0%
 flops    13 x     4 x     4             16442816       0.0%    100.0%      0.0%
 flops     4 x     4 x     4            841335424       0.0%    100.0%      0.0%
 flops inhomo. stacks                           0       0.0%      0.0%      0.0%
 flops total                       928.600056E+06       0.0%    100.0%      0.0%
 flops max/rank                    928.600056E+06       0.0%    100.0%      0.0%
 matmuls inhomo. stacks                         0       0.0%      0.0%      0.0%
 matmuls total                            6844599       0.0%    100.0%      0.0%
 number of processed stacks                 54848       0.0%    100.0%      0.0%
 average stack size                                     0.0     124.8       0.0
 marketing flops                     1.515696E+09
 -------------------------------------------------------------------------------
 # multiplications                          45675
 max memory usage/rank             321.343488E+06
 # max total images/rank                        1
 # max 3D layers                                1
 # MPI messages exchanged                       0
 MPI messages size (bytes):
  total size                         0.000000E+00
  min size                           0.000000E+00
  max size                           0.000000E+00
  average size                       0.000000E+00
 MPI breakdown and total messages size (bytes):
             size <=      128                   0                        0
       128 < size <=     8192                   0                        0
      8192 < size <=    32768                   0                        0
     32768 < size <=   131072                   0                        0
    131072 < size <=  4194304                   0                        0
   4194304 < size <= 16777216                   0                        0
  16777216 < size                               0                        0
 -------------------------------------------------------------------------------

 MEMORY| Estimated peak process memory [MiB]                                 307

 -------------------------------------------------------------------------------
 -                                                                             -
 -                           R E F E R E N C E S                               -
 -                                                                             -
 -------------------------------------------------------------------------------
 
 CP2K version 7.0 (Development Version), the CP2K developers group (2018).
 CP2K is freely available from https://www.cp2k.org/ .

 Schuett, O; VandeVondele, J. 
 Journal of Chemical Theory and Computation, 14, (2018). 
 Machine Learning Adaptive Basis Sets for Efficient Large Scale Density Functional Theory Simulation.
 https://dx.doi.org/10.1021/acs.jctc.8b00378


 Schuett, Ole; Messmer, Peter; Hutter, Juerg; VandeVondele, Joost. 
 Electronic Structure Calculations on Graphics Processing Units, John Wiley & Sons, Ltd, 173-190 (2016). 
 GPU-Accelerated Sparse Matrix-Matrix Multiplication for Linear Scaling Density Functional Theory.
 https://dx.doi.org/10.1002/9781118670712.ch8


 Borstnik, U; VandeVondele, J; Weber, V; Hutter, J. 
 PARALLEL COMPUTING, 40 (5-6), 47-58 (2014). 
 Sparse matrix multiplication: The distributed block-compressed sparse
 row library.
 https://dx.doi.org/10.1016/j.parco.2014.03.012


 Hutter, J; Iannuzzi, M; Schiffmann, F; VandeVondele, J. 
 WILEY INTERDISCIPLINARY REVIEWS-COMPUTATIONAL MOLECULAR SCIENCE, 4 (1), 15-25 (2014). 
 CP2K: atomistic simulations of condensed matter systems.
 https://dx.doi.org/10.1002/wcms.1159


 VandeVondele, J; Borstnik, U; Hutter, J. 
 JOURNAL OF CHEMICAL THEORY AND COMPUTATION, 8 (10), 3565-3573 (2012). 
 Linear Scaling Self-Consistent Field Calculations with Millions of Atoms
 in the Condensed Phase.
 https://dx.doi.org/10.1021/ct200897x


 VandeVondele, J; Hutter, J. 
 JOURNAL OF CHEMICAL PHYSICS, 127 (11), 114105 (2007). 
 Gaussian basis sets for accurate calculations on molecular systems in
 gas and condensed phases.
 https://dx.doi.org/10.1063/1.2770708


 Krack, M. 
 THEORETICAL CHEMISTRY ACCOUNTS, 114 (1-3), 145-152 (2005). 
 Pseudopotentials for H to Kr optimized for gradient-corrected
 exchange-correlation functionals.
 https://dx.doi.org/10.1007/s00214-005-0655-y


 VandeVondele, J; Krack, M; Mohamed, F; Parrinello, M; Chassaing, T;
 Hutter, J. COMPUTER PHYSICS COMMUNICATIONS, 167 (2), 103-128 (2005). 
 QUICKSTEP: Fast and accurate density functional calculations using a
 mixed Gaussian and plane waves approach.
 https://dx.doi.org/10.1016/j.cpc.2004.12.014


 Frigo, M; Johnson, SG. 
 PROCEEDINGS OF THE IEEE, 93 (2), 216-231 (2005). 
 The design and implementation of FFTW3.
 https://dx.doi.org/10.1109/JPROC.2004.840301


 Niklasson, AMN; Tymczak, CJ; Challacombe, M. 
 JOURNAL OF CHEMICAL PHYSICS, 118 (19), 8611-8620 (2003). 
 Trace resetting density matrix purification in O(N)
 self-consistent-field theory.
 https://dx.doi.org/10.1063/1.1559913


 Hartwigsen, C; Goedecker, S; Hutter, J. 
 PHYSICAL REVIEW B, 58 (7), 3641-3662 (1998). 
 Relativistic separable dual-space Gaussian pseudopotentials from H to Rn.
 https://dx.doi.org/10.1103/PhysRevB.58.3641


 Lippert, G; Hutter, J; Parrinello, M. 
 MOLECULAR PHYSICS, 92 (3), 477-487 (1997). 
 A hybrid Gaussian and plane wave density functional scheme.
 https://dx.doi.org/10.1080/002689797170220


 Perdew, JP; Burke, K; Ernzerhof, M. 
 PHYSICAL REVIEW LETTERS, 77 (18), 3865-3868 (1996). 
 Generalized gradient approximation made simple.
 https://dx.doi.org/10.1103/PhysRevLett.77.3865


 Goedecker, S; Teter, M; Hutter, J. 
 PHYSICAL REVIEW B, 54 (3), 1703-1710 (1996). 
 Separable dual-space Gaussian pseudopotentials.
 https://dx.doi.org/10.1103/PhysRevB.54.1703


 -------------------------------------------------------------------------------
 -                                                                             -
 -                                T I M I N G                                  -
 -                                                                             -
 -------------------------------------------------------------------------------
 SUBROUTINE                       CALLS  ASD         SELF TIME        TOTAL TIME
                                MAXIMUM       AVERAGE  MAXIMUM  AVERAGE  MAXIMUM
 CP2K                                 1  1.0    0.027    0.027   42.990   42.990
 qs_energies                          1  2.0    0.000    0.000   42.627   42.627
 ls_scf                               1  3.0    0.000    0.000   42.526   42.526
 ls_scf_main                          7  4.0    0.001    0.001   26.529   26.529
 ls_scf_dm_to_ks                     14  5.0    0.000    0.000   26.419   26.419
 qs_ks_update_qs_env                 15  6.0    0.000    0.000   19.972   19.972
 rebuild_ks_matrix                   15  7.0    0.000    0.000   19.972   19.972
 qs_ks_build_kohn_sham_matrix        15  8.0    0.002    0.002   19.972   19.972
 pao_update                           7  4.0    0.019    0.019   13.992   13.992
 pao_calc_energy                    852  5.0    0.007    0.007   12.649   12.649
 qs_vxc_create                       15  9.0    0.000    0.000   11.293   11.293
 xc_vxc_pw_create                    15 10.0    0.185    0.185   11.293   11.293
 dbcsr_multiply_generic           45675  8.4    0.790    0.790   10.264   10.264
 qs_rho_update_rho                   15  6.0    0.000    0.000    8.371    8.371
 calculate_rho_elec                  15  7.0    6.836    6.836    8.370    8.370
 xc_rho_set_and_dset_create          15 11.0    0.070    0.070    8.248    8.248
 sum_up_and_integrate                15  9.0    0.031    0.031    7.486    7.486
 integrate_v_rspace                  15 10.0    6.630    6.630    7.454    7.454
 pw_transfer                        286 10.6    0.019    0.019    7.106    7.106
 fft_wrap_pw1pw2                    256 11.7    0.003    0.003    6.952    6.952
 fft_wrap_pw1pw2_200                166 12.8    0.570    0.570    6.656    6.656
 pao_dm_trs4                        852  6.0    0.005    0.005    6.533    6.533
 density_matrix_trs4                866  7.0    0.345    0.345    6.238    6.238
 ls_scf_init_matrix_S               859  7.0    0.006    0.006    6.092    6.092
 pao_rebuild_S                      852  6.0    0.004    0.004    6.045    6.045
 xc_functional_eval                  15 12.0    0.000    0.000    5.673    5.673
 pbe_lda_eval                        15 13.0    5.673    5.673    5.673    5.673
 matrix_sqrt_Newton_Schulz          859  8.0    0.248    0.248    5.476    5.476
 multiply_cannon                  45675  9.4    1.797    1.797    3.947    3.947
 fft3d_s                            257 13.6    3.895    3.895    3.906    3.906
 make_m2s                         91350  9.4    0.268    0.268    3.796    3.796
 make_images                      91350 10.4    1.002    1.002    3.378    3.378
 pao_guess_initial_P                  1  4.0    0.000    0.000    1.931    1.931
 pao_read_preopt_dm                   1  5.0    0.000    0.000    1.931    1.931
 arnoldi_extremal                  1725  8.5    0.006    0.006    1.689    1.689
 arnoldi_normal_ev                 1725  9.5    0.019    0.019    1.683    1.683
 density_rs2pw                       15  8.0    0.001    0.001    1.509    1.509
 pao_calc_AB                       1122  5.8    0.001    0.001    1.313    1.313
 pao_calc_AB_direct                1122  6.8    0.043    0.043    1.312    1.312
 pw_scatter_s                       135 14.2    1.251    1.251    1.251    1.251
 build_subspace                    1725 10.5    0.103    0.103    1.250    1.250
 pao_calc_grad_lnv_wrt_AB           269  7.0    0.013    0.013    1.221    1.221
 pw_gather_s                        121 13.1    1.199    1.199    1.199    1.199
 dbcsr_create_new                349351 10.7    0.618    0.618    1.108    1.108
 dbcsr_matrix_vector_mult         41357 11.5    0.202    0.202    1.103    1.103
 dbcsr_finalize                  107883  9.6    0.199    0.199    1.053    1.053
 -------------------------------------------------------------------------------

 The number of warnings for this run is : 0
 
 -------------------------------------------------------------------------------
  **** **** ******  **  PROGRAM ENDED AT                 2019-02-14 10:40:12.246
 ***** ** ***  *** **   PROGRAM RAN ON                                      otto
 **    ****   ******    PROGRAM RAN BY                                       ole
 ***** **    ** ** **   PROGRAM PROCESS ID                                  7006
  **** **  *******  **  PROGRAM STOPPED IN /home/ole/git/pao_ml_equivar/2H2O_MD/
                                           frame_0975
