       6
 i =      975, time =      195.000, E =       -34.4490868637
  O         2.4027275816        4.2298606588        3.4054322948
  H         1.5991640818        4.3098054192        3.9255223749
  H         2.1475143723        3.5317014468        2.7635665833
  O         5.4464869917        4.2479059550        4.6309822069
  H         5.4030962977        3.4159428349        5.1877116533
  H         4.5461665458        4.2887307521        4.2075894688
