 DBCSR| CPU Multiplication driver                                           XSMM (U)
 DBCSR| Multrec recursion limit                                              512 (U)
 DBCSR| Multiplication stack size                                           1000 (D)
 DBCSR| Maximum elements for images                                    UNLIMITED (U)
 DBCSR| Multiplicative factor virtual images                                   1 (U)
 DBCSR| Use multiplication densification                                       T (D)
 DBCSR| Multiplication size stacks                                             3 (U)
 DBCSR| Use memory pool for CPU allocation                                     F (U)
 DBCSR| Number of 3D layers                                               SINGLE (U)
 DBCSR| Use MPI memory allocation                                              F (U)
 DBCSR| Use RMA algorithm                                                      F (U)
 DBCSR| Use Communication thread                                               T (U)
 DBCSR| Communication thread load                                             87 (D)
 DBCSR| MPI: My process id                                                     0
 DBCSR| MPI: Number of processes                                              32
 DBCSR| OMP: Current number of threads                                         1
 DBCSR| OMP: Max number of threads                                             1
 DBCSR| Split modifier for TAS multiplication algorithm                  1.0E+00 (U)


  **** **** ******  **  PROGRAM STARTED AT               2024-09-23 23:45:53.322
 ***** ** ***  *** **   PROGRAM STARTED ON                                moritz
 **    ****   ******    PROGRAM STARTED BY                                   ole
 ***** **    ** ** **   PROGRAM PROCESS ID                                164526
  **** **  *******  **  PROGRAM STARTED IN /home/ole/git/pao_ml_equivar/64H2O_MD
                                           /Frame1200

 CP2K| version string:                 CP2K version 2024.3 (Development Version)
 CP2K| source code revision number:                                  git:3f890bb
 CP2K| cp2kflags: omp libint fftw3 libxc libgrpp pexsi elpa parallel scalapack c
 CP2K|            osma quip deepmd xsmm plumed2 spglib libdftd4 sirius libvori l
 CP2K|            libbqb libvdwxc hdf5
 CP2K| is freely available from                            https://www.cp2k.org/
 CP2K| Program compiled at                          Mo 23 Sep 2024 17:17:04 CEST
 CP2K| Program compiled on                                                moritz
 CP2K| Program compiled for                                                local
 CP2K| Data directory path                               /home/ole/git/cp2k/data
 CP2K| Input file name                                           64H2O_pao44.inp

 GLOBAL| Force Environment number                                              1
 GLOBAL| Basis set file name                                        BASIS_MOLOPT
 GLOBAL| Potential file name                                      GTH_POTENTIALS
 GLOBAL| MM Potential file name                                     MM_POTENTIAL
 GLOBAL| Coordinate file name                                         coords.xyz
 GLOBAL| Method name                                                        CP2K
 GLOBAL| Project name                                                64H2O_pao44
 GLOBAL| Run type                                                         ENERGY
 GLOBAL| FFT library                                                       FFTW3
 GLOBAL| Diagonalization library                                            ELPA
 GLOBAL| DGEMM library                                                      BLAS
 GLOBAL| Minimum number of eigenvectors for ELPA usage                        16
 GLOBAL| Orthonormality check for eigenvectors                          DISABLED
 GLOBAL| Matrix multiplication library                                     COSMA
 GLOBAL| All-to-all communication in single precision                          F
 GLOBAL| FFTs using library dependent lengths                                  F
 GLOBAL| Grid backend                                                       AUTO
 GLOBAL| Global print level                                                  LOW
 GLOBAL| MPI I/O enabled                                                       T
 GLOBAL| Total number of message passing processes                            32
 GLOBAL| Number of threads for this process                                    1
 GLOBAL| This output is from process                                           0
 GLOBAL| Stack size for threads created by OpenMP (OMP_STACKSIZE)        default
 GLOBAL| CPU model name           AMD Ryzen Threadripper 3970X 32-Core Processor
 GLOBAL| CPUID                                                              1002

 MEMORY| system memory details [Kb]
 MEMORY|                        rank 0           min           max       average
 MEMORY| MemTotal            131752136     131752136     131752136     131752136
 MEMORY| MemFree             114374292     114374292     114374292     114374292
 MEMORY| Buffers               1989976       1989976       1989976       1989976
 MEMORY| Cached                8597000       8597000       8597000       8597000
 MEMORY| Slab                  1636052       1636052       1636052       1636052
 MEMORY| SReclaimable          1141328       1141328       1141328       1141328
 MEMORY| MemLikelyFree       126102596     126102596     126102596     126102596


 GENERATE|  Preliminary Number of Bonds generated:                             0
 GENERATE|  Achieved consistency in connectivity generation.

 *******************************************************************************
 *******************************************************************************
 **                                                                           **
 **     #####                         ##              ##                      **
 **    ##   ##            ##          ##              ##                      **
 **   ##     ##                       ##            ######                    **
 **   ##     ##  ##   ##  ##   #####  ##  ##   ####   ##    #####    #####    **
 **   ##     ##  ##   ##  ##  ##      ## ##   ##      ##   ##   ##  ##   ##   **
 **   ##  ## ##  ##   ##  ##  ##      ####     ###    ##   ######   ######    **
 **    ##  ###   ##   ##  ##  ##      ## ##      ##   ##   ##       ##        **
 **     #######   #####   ##   #####  ##  ##  ####    ##    #####   ##        **
 **           ##                                                    ##        **
 **                                                                           **
 **                                                ... make the atoms dance   **
 **                                                                           **
 **            Copyright (C) by CP2K developers group (2000-2024)             **
 **                      J. Chem. Phys. 152, 194103 (2020)                    **
 **                                                                           **
 *******************************************************************************


 TOTAL NUMBERS AND MAXIMUM NUMBERS

  Total number of            - Atomic kinds:                                   2
                             - Atoms:                                        192
                             - Shell sets:                                   192
                             - Shells:                                       704
                             - Primitive Cartesian functions:               1344
                             - Cartesian basis functions:                   1536
                             - Spherical basis functions:                   1472

  Maximum angular momentum of- Orbital basis functions:                        2
                             - Local part of the GTH pseudopotential:          2
                             - Non-local part of the GTH pseudopotential:      0

 ------------------------------ Linear scaling SCF -----------------------------
 eps_scf:                                                              0.100E-07
 eps_filter:                                                           0.100E-11
 mixing_fraction:                                                      0.450E+00
 max_scf:                                                                     25
 fixed chemical potential (mu)                                                 F
 has unit metric:                                                              F
 Computing inv(S):                                                             T
 Computing sqrt(S):                                                            T
 Computing S preconditioner                                                    F
 S sqrt method:                                                     NEWTONSCHULZ
 S sqrt order:                                                                 3
 Extrapolation order:                                                          1
 S preconditioner type                                                      NONE
 Polarized Atomic Orbitals (PAO)                                               T
 Purification method                                   Trace resetting 4th order
 Cluster type                                                             ATOMIC
 Computing Chebyshev                                                       FALSE
 Using PAO                                                                     T
 -------------------------------------------------------------------------------

 
 PAO|                                  EPS_PAO                           0.5E-06
 PAO|                                  MIXING                            0.5E+00
 PAO|                                  MAX_PAO                              1500
 PAO|                                  MAX_CYCLES                           1000
 PAO|                                  PARAMETERIZATION              EQUIVARIANT
 PAO|                                  PRECONDITION                            F
 PAO|                                  REGULARIZATION                    0.0E+00
 PAO|                                  EPS_PGF                           0.1E-09
 PAO|                                  PENALTY_DISTANCE                  0.1E+00
 PAO|                                  PENALTY_STRENGTH                  0.5E-02
 PAO|                                  LINPOT_PRECONDITION_DELTA         0.0E+00
 PAO|                                  LINPOT_INITGUESS_DELT             0.0E+00
 PAO|                                  LINPOT_REGULARIZATION_DELTA       0.0E+00
 PAO|                                  LINPOT_REGULARIZATION_STRENGTH    0.0E+00
 PAO|                                  OPTIMIZER                              CG
 PAO|                                  CG_INIT_STEPS                           2
 PAO|                                  CG_RESET_LIMIT                    0.1E+00
 PAO|                                  CHECK_UNITARY_TOL                -0.1E+01
 PAO|                                  CHECK_GRADIENT_TOL               -0.1E+01
 PAO|                                  NUM_GRADIENT_ORDER                      2
 PAO|                                  NUM_GRADIENT_EPS                  0.1E-07
 PAO|                                  PRINT%RESTART%WRITE_CYCLES            100
 PAO|                                  RESTART_FILE 
 PAO|                                  PREOPT_DM_FILE 64H2O_ref_LS_DM_SPIN_1_RESTART.dm
 PAO|                                  MACHINE_LEARNING%METHOD       GAUSSIAN_PR
 PAO|                                  MACHINE_LEARNING%PRIOR               ZERO
 PAO|                                  MACHINE_LEARNING%DESCRIPTOR     POTENTIAL
 PAO|                                  MACHINE_LEARNING%TOLERANCE        0.1E-01
 PAO|                                  MACHINE_LEARNING%GP_NOISE_VAR     0.1E+00
 PAO|                                  MACHINE_LEARNING%GP_SCALE         0.5E-01
 

 Calculating atomic Fock matrix for atomic kind: O

 Electronic structure
    Total number of core electrons                                          2.00
    Total number of valence electrons                                       6.00
    Total number of electrons                                               8.00
    Multiplicity                                                   not specified
    S   [  2.00] 2.00
    P      4.00


 *******************************************************************************
                  Iteration          Convergence                     Energy [au]
 *******************************************************************************
                          1        0.708315                     -15.576645311500
                          2        0.608879                     -15.587933561584
                          3        0.102828E-01                 -15.656849565404
                          4        0.113889E-02                 -15.656866888140
                          5        0.434197E-03                 -15.656867072159
                          6        0.263771E-03                 -15.656867091904
                          7        0.478536E-06                 -15.656867103452

 Energy components [Hartree]           Total Energy ::          -15.656867103452
                                        Band Energy ::           -3.000198112285
                                     Kinetic Energy ::           11.759971203220
                                   Potential Energy ::          -27.416838306672
                                      Virial (-V/T) ::            2.331369510426
                                        Core Energy ::          -26.140716385623
                                          XC Energy ::           -3.154051012914
                                     Coulomb Energy ::           13.637900295084
                       Total Pseudopotential Energy ::          -37.935781716540
                       Local Pseudopotential Energy ::          -39.218907440693
                    Nonlocal Pseudopotential Energy ::            1.283125724153
                                        Confinement ::            0.350941276976

 Orbital energies  State     L     Occupation   Energy[a.u.]          Energy[eV]

                       1     0          2.000      -0.864471          -23.523463

                       1     1          4.000      -0.317814           -8.648154


 Total Electron Density at R=0:                                         0.000068

 Calculating atomic Fock matrix for atomic kind: H

 Electronic structure
    Total number of core electrons                                          0.00
    Total number of valence electrons                                       1.00
    Total number of electrons                                               1.00
    Multiplicity                                                   not specified
    S      1.00


 *******************************************************************************
                  Iteration          Convergence                     Energy [au]
 *******************************************************************************
                          1        0.437545E-02                  -0.424159432110
                          2        0.531356E-03                  -0.424178438213
                          3        0.259176E-06                  -0.424178722480

 Energy components [Hartree]           Total Energy ::           -0.424178722480
                                        Band Energy ::           -0.199015229016
                                     Kinetic Energy ::            0.464007633961
                                   Potential Energy ::           -0.888186356441
                                      Virial (-V/T) ::            1.914163240935
                                        Core Energy ::           -0.479160803564
                                          XC Energy ::           -0.244352904054
                                     Coulomb Energy ::            0.299334985138
                       Total Pseudopotential Energy ::           -0.962295316385
                       Local Pseudopotential Energy ::           -0.962295316385
                    Nonlocal Pseudopotential Energy ::            0.000000000000
                                        Confinement ::            0.191268788606

 Orbital energies  State     L     Occupation   Energy[a.u.]          Energy[eV]

                       1     0          1.000      -0.199015           -5.415480


 Total Electron Density at R=0:                                         0.242907
 PAO| Made initial guess for matrix_X with norm:   27.712812921102035     

     Lanczos converged:  F threshold:   0.100E-02
     Est. extremal eigenvalues:    0.640E+01   0.977E-01
     Est. condition number :    0.655E+02

 Order=           3
     NS sqrt iter    1 1.00000000   0.157E+01       0.021     2679.402
     NS sqrt iter    2 1.00000000   0.847E+00       0.034     3345.073
     NS sqrt iter    3 1.00000000   0.339E+00       0.034     3304.963
     NS sqrt iter    4 1.00000000   0.957E-01       0.034     3332.551
     NS sqrt iter    5 1.00000000   0.366E-02       0.034     3362.287
     NS sqrt iter    6 1.00000000   0.356E-06       0.029     2901.479
     Symmetrizing Results
     Final NS sqrt iter    6 1.00000000   0.182E-12

 PAO| Read restart DM 64H2O_ref_LS_DM_SPIN_1_RESTART.dm with checksum:    6154.9796637187656     
 PAO| Quickstep energy from restart density:  -1103.1410577924976     
 PAO| ======================= Iteration:         1 =============================

     Lanczos converged:  F threshold:   0.100E-02
     Est. extremal eigenvalues:    0.640E+01   0.977E-01
     Est. condition number :    0.655E+02

 Order=           3
     NS sqrt iter    1 1.00000000   0.157E+01       0.021     2693.475
     NS sqrt iter    2 1.00000000   0.847E+00       0.034     3359.479
     NS sqrt iter    3 1.00000000   0.339E+00       0.034     3355.563
     NS sqrt iter    4 1.00000000   0.957E-01       0.034     3353.948
     NS sqrt iter    5 1.00000000   0.366E-02       0.034     3342.729
     NS sqrt iter    6 1.00000000   0.356E-06       0.029     2920.953
     Symmetrizing Results
     Final NS sqrt iter    6 1.00000000   0.182E-12

     Est. extremal eigenvalues     -0.81292     2.61301  converged:  T
     TRS4 it   1 1.00000000   0.271E+02       0.007     2116.387   0.100E-11
     TRS4 it   2 1.00000000   0.235E+02       0.013     2170.603   0.100E-11
     TRS4 it   3 1.00000000   0.159E+02       0.013     2187.678   0.100E-11
     TRS4 it   4 1.00000000   0.990E+01       0.013     2179.260   0.100E-11
     TRS4 it   5 1.00000000   0.474E+01       0.013     2184.798   0.100E-11
     TRS4 it   6 1.00000000   0.156E+01       0.013     2184.349   0.100E-11
     TRS4 it   7 1.00000000   0.304E+00       0.013     2186.339   0.100E-11
     TRS4 it   8 1.00000000   0.209E-01       0.013     2167.747   0.100E-11
     TRS4 it   9 1.00000000   0.186E-03       0.013     2201.051   0.100E-11
     TRS4 it  10 1.00000000   0.206E-07       0.013     2189.738   0.100E-11
     TRS4 it  11 1.00000000   0.142E-13       0.013     2169.036   0.100E-11
     Final TRS4 iteration   11 1.00000000   0.142E-13
     Chemical potential (mu):       0.01143
 
 PAO| energy:  -186.40290340581532      penalty:   1.3829717744655862E-031
 PAO|CG| warming up with steepest descent
 PAO|CG| beta:    0.0000000000000000     
 PAO| norm of gradient:   3.9540467072726284     
 PAO|LS| adapt:  T F F
 PAO|LS| adapt: scan_steps:    0.0000000000000000        0.0000000000000000        0.0000000000000000     
 PAO|LS| adapt: energies:   -186.40290340581532        0.0000000000000000        0.0000000000000000     
 PAO| ======================= Iteration:         2 =============================

     Lanczos converged:  F threshold:   0.100E-02
     Est. extremal eigenvalues:    0.619E+01   0.103E+00
     Est. condition number :    0.601E+02

 Order=           3
     NS sqrt iter    1 1.00000000   0.153E+01       0.021     2683.866
     NS sqrt iter    2 1.00000000   0.818E+00       0.034     3348.604
     NS sqrt iter    3 1.00000000   0.319E+00       0.034     3353.573
     NS sqrt iter    4 1.00000000   0.810E-01       0.034     3362.853
     NS sqrt iter    5 1.00000000   0.232E-02       0.034     3355.486
     NS sqrt iter    6 1.00000000   0.107E-06       0.029     2920.787
     Symmetrizing Results
     Final NS sqrt iter    6 1.00000000   0.242E-13

     Est. extremal eigenvalues     -0.82050     2.60915  converged:  T
     TRS4 it   1 1.00000000   0.274E+02       0.007     2119.205   0.100E-11
     TRS4 it   2 1.00000000   0.235E+02       0.013     2192.076   0.100E-11
     TRS4 it   3 1.00000000   0.159E+02       0.013     2197.581   0.100E-11
     TRS4 it   4 1.00000000   0.977E+01       0.013     2199.168   0.100E-11
     TRS4 it   5 1.00000000   0.458E+01       0.013     2190.826   0.100E-11
     TRS4 it   6 1.00000000   0.146E+01       0.013     2195.670   0.100E-11
     TRS4 it   7 1.00000000   0.267E+00       0.013     2198.226   0.100E-11
     TRS4 it   8 1.00000000   0.157E-01       0.013     2162.358   0.100E-11
     TRS4 it   9 1.00000000   0.962E-04       0.013     2186.094   0.100E-11
     TRS4 it  10 1.00000000   0.624E-08       0.013     2179.331   0.100E-11
     TRS4 it  11 1.00000000   0.178E-13       0.013     2205.438   0.100E-11
     Final TRS4 iteration   11 1.00000000   0.178E-13
     Chemical potential (mu):       0.01710
 
 PAO| energy:  -187.83897792901462      penalty:   4.6088501047322725E-007
 PAO|LS| adapt:  T T F
 PAO|LS| adapt: scan_steps:    0.0000000000000000       0.10000000000000001        0.0000000000000000     
 PAO|LS| adapt: energies:   -186.40290340581532       -187.83897792901462        0.0000000000000000     
 PAO| ======================= Iteration:         3 =============================

     Lanczos converged:  F threshold:   0.100E-02
     Est. extremal eigenvalues:    0.597E+01   0.108E+00
     Est. condition number :    0.555E+02

 Order=           3
     NS sqrt iter    1 1.00000000   0.148E+01       0.021     2677.609
     NS sqrt iter    2 1.00000000   0.789E+00       0.034     3376.528
     NS sqrt iter    3 1.00000000   0.299E+00       0.034     3369.963
     NS sqrt iter    4 1.00000000   0.684E-01       0.034     3349.961
     NS sqrt iter    5 1.00000000   0.149E-02       0.034     3361.419
     NS sqrt iter    6 1.00000000   0.338E-07       0.029     2925.415
     Symmetrizing Results
     Final NS sqrt iter    6 1.00000000   0.364E-14

     Est. extremal eigenvalues     -0.82355     2.60644  converged:  T
     TRS4 it   1 1.00000000   0.276E+02       0.007     2153.140   0.100E-11
     TRS4 it   2 1.00000000   0.235E+02       0.013     2174.623   0.100E-11
     TRS4 it   3 1.00000000   0.158E+02       0.013     2175.805   0.100E-11
     TRS4 it   4 1.00000000   0.959E+01       0.013     2212.012   0.100E-11
     TRS4 it   5 1.00000000   0.439E+01       0.013     2194.393   0.100E-11
     TRS4 it   6 1.00000000   0.134E+01       0.013     2203.033   0.100E-11
     TRS4 it   7 1.00000000   0.227E+00       0.013     2210.074   0.100E-11
     TRS4 it   8 1.00000000   0.110E-01       0.013     2176.890   0.100E-11
     TRS4 it   9 1.00000000   0.431E-04       0.013     2201.472   0.100E-11
     TRS4 it  10 1.00000000   0.145E-08       0.013     2194.632   0.100E-11
     TRS4 it  11 1.00000000   0.249E-13       0.013     2153.529   0.100E-11
     Final TRS4 iteration   11 1.00000000   0.249E-13
     Chemical potential (mu):       0.02350
 
 PAO| energy:  -189.00439017402218      penalty:   7.3741601675516561E-006
 PAO|LS| adapt:  T T F
 PAO|LS| adapt: scan_steps:    0.0000000000000000       0.20000000000000001        0.0000000000000000     
 PAO|LS| adapt: energies:   -186.40290340581532       -189.00439017402218        0.0000000000000000     
 PAO| ======================= Iteration:         4 =============================

     Lanczos converged:  F threshold:   0.100E-02
     Est. extremal eigenvalues:    0.556E+01   0.116E+00
     Est. condition number :    0.478E+02

 Order=           3
     NS sqrt iter    1 1.00000000   0.140E+01       0.021     2677.590
     NS sqrt iter    2 1.00000000   0.733E+00       0.034     3364.521
     NS sqrt iter    3 1.00000000   0.262E+00       0.034     3363.977
     NS sqrt iter    4 1.00000000   0.486E-01       0.034     3354.529
     NS sqrt iter    5 1.00000000   0.631E-03       0.034     3344.330
     NS sqrt iter    6 1.00000000   0.349E-08       0.029     2876.152
     Symmetrizing Results
     Final NS sqrt iter    6 1.00000000   0.981E-14

     Est. extremal eigenvalues     -0.82870     2.60404  converged:  T
     TRS4 it   1 1.00000000   0.280E+02       0.007     2121.821   0.100E-11
     TRS4 it   2 1.00000000   0.235E+02       0.013     2191.421   0.100E-11
     TRS4 it   3 1.00000000   0.156E+02       0.013     2173.358   0.100E-11
     TRS4 it   4 1.00000000   0.926E+01       0.013     2180.635   0.100E-11
     TRS4 it   5 1.00000000   0.403E+01       0.013     2195.233   0.100E-11
     TRS4 it   6 1.00000000   0.113E+01       0.013     2186.230   0.100E-11
     TRS4 it   7 1.00000000   0.162E+00       0.013     2191.919   0.100E-11
     TRS4 it   8 1.00000000   0.521E-02       0.013     2193.461   0.100E-11
     TRS4 it   9 1.00000000   0.802E-05       0.013     2193.615   0.100E-11
     TRS4 it  10 1.00000000   0.606E-10       0.013     2171.583   0.100E-11
     Final TRS4 iteration   10 1.00000000   0.606E-10
     Chemical potential (mu):       0.04185
 
 PAO| energy:  -190.48242031157278      penalty:   1.1798656268067028E-004
 PAO|LS| Need extra step
 PAO|LS| adapt:  T T F
 PAO|LS| adapt: scan_steps:    0.0000000000000000       0.40000000000000002        0.0000000000000000     
 PAO|LS| adapt: energies:   -186.40290340581532       -190.48242031157278        0.0000000000000000     
 PAO| ======================= Iteration:         5 =============================

     Lanczos converged:  F threshold:   0.100E-02
     Est. extremal eigenvalues:    0.488E+01   0.131E+00
     Est. condition number :    0.371E+02

 Order=           3
     NS sqrt iter    1 1.00000000   0.127E+01       0.021     2699.395
     NS sqrt iter    2 1.00000000   0.641E+00       0.034     3364.239
     NS sqrt iter    3 1.00000000   0.203E+00       0.034     3359.394
     NS sqrt iter    4 1.00000000   0.259E-01       0.034     3369.115
     NS sqrt iter    5 1.00000000   0.126E-03       0.034     3366.733
     NS sqrt iter    6 1.00000000   0.418E-10       0.021     2327.160
     Symmetrizing Results
     Final NS sqrt iter    6 1.00000000   0.218E-11

     Est. extremal eigenvalues     -0.83226     2.60301  converged:  T
     TRS4 it   1 1.00000000   0.286E+02       0.007     2145.194   0.100E-11
     TRS4 it   2 1.00000000   0.235E+02       0.013     2189.088   0.100E-11
     TRS4 it   3 1.00000000   0.153E+02       0.013     2184.914   0.100E-11
     TRS4 it   4 1.00000000   0.877E+01       0.013     2206.813   0.100E-11
     TRS4 it   5 1.00000000   0.352E+01       0.013     2177.195   0.100E-11
     TRS4 it   6 1.00000000   0.841E+00       0.013     2197.555   0.100E-11
     TRS4 it   7 1.00000000   0.890E-01       0.013     2199.381   0.100E-11
     TRS4 it   8 1.00000000   0.145E-02       0.013     2188.417   0.100E-11
     TRS4 it   9 1.00000000   0.552E-06       0.013     2195.035   0.100E-11
     TRS4 it  10 1.00000000   0.249E-12       0.013     2188.020   0.100E-11
     Final TRS4 iteration   10 1.00000000   0.249E-12
     Chemical potential (mu):       0.06505
 
 PAO| energy:  -190.15385939438457      penalty:   1.8877850028894726E-003
 PAO|LS| Need extra step
 PAO|LS| adapt:  T T T
 PAO|LS| adapt: scan_steps:    0.0000000000000000       0.40000000000000002       0.80000000000000004     
 PAO|LS| adapt: energies:   -186.40290340581532       -190.48242031157278       -190.15385939438457     
 PAO|LS| adapt: suggested step_size:   0.57018556110983964     
 PAO|LS| adapt: predicted energy  -190.88139440508090     
 PAO| ======================= Iteration:         6 =============================

     Lanczos converged:  T threshold:   0.100E-02
     Est. extremal eigenvalues:    0.524E+01   0.123E+00
     Est. condition number :    0.426E+02

 Order=           3
     NS sqrt iter    1 1.00000000   0.134E+01       0.021     2687.250
     NS sqrt iter    2 1.00000000   0.689E+00       0.034     3358.156
     NS sqrt iter    3 1.00000000   0.234E+00       0.034     3354.364
     NS sqrt iter    4 1.00000000   0.367E-01       0.034     3354.582
     NS sqrt iter    5 1.00000000   0.311E-03       0.034     3344.725
     NS sqrt iter    6 1.00000000   0.510E-09       0.029     2730.489
     Symmetrizing Results
     Final NS sqrt iter    6 1.00000000   0.136E-12

     Est. extremal eigenvalues     -0.83149     2.60384  converged:  T
     TRS4 it   1 1.00000000   0.283E+02       0.007     2108.503   0.100E-11
     TRS4 it   2 1.00000000   0.235E+02       0.013     2198.367   0.100E-11
     TRS4 it   3 1.00000000   0.155E+02       0.013     2182.360   0.100E-11
     TRS4 it   4 1.00000000   0.903E+01       0.013     2187.488   0.100E-11
     TRS4 it   5 1.00000000   0.379E+01       0.013     2196.209   0.100E-11
     TRS4 it   6 1.00000000   0.985E+00       0.013     2199.745   0.100E-11
     TRS4 it   7 1.00000000   0.123E+00       0.013     2186.426   0.100E-11
     TRS4 it   8 1.00000000   0.285E-02       0.013     2202.906   0.100E-11
     TRS4 it   9 1.00000000   0.219E-05       0.013     2187.107   0.100E-11
     TRS4 it  10 1.00000000   0.439E-11       0.013     2205.189   0.100E-11
     Final TRS4 iteration   10 1.00000000   0.439E-11
     Chemical potential (mu):       0.05292
 
 PAO| energy:  -190.85469022853488      penalty:   4.8714409807578725E-004
 PAO|CG| warming up with steepest descent
 PAO|CG| beta:    0.0000000000000000     
 PAO| norm of gradient:   2.0710792974742604     
 PAO| energy improvement:  -4.4517868227195549     
 PAO| step      6                 -190.854690229  0.405E-02  0.570E+00     2.529
 PAO|LS| adapt:  T F F
 PAO|LS| adapt: scan_steps:    0.0000000000000000        0.0000000000000000        0.0000000000000000     
 PAO|LS| adapt: energies:   -190.85469022853488        0.0000000000000000        0.0000000000000000     
 PAO| ======================= Iteration:         7 =============================

     Lanczos converged:  T threshold:   0.100E-02
     Est. extremal eigenvalues:    0.508E+01   0.131E+00
     Est. condition number :    0.389E+02

 Order=           3
     NS sqrt iter    1 1.00000000   0.131E+01       0.021     2661.832
     NS sqrt iter    2 1.00000000   0.664E+00       0.034     3376.969
     NS sqrt iter    3 1.00000000   0.217E+00       0.034     3366.847
     NS sqrt iter    4 1.00000000   0.301E-01       0.034     3351.867
     NS sqrt iter    5 1.00000000   0.181E-03       0.034     3345.192
     NS sqrt iter    6 1.00000000   0.108E-09       0.026     2487.789
     Symmetrizing Results
     Final NS sqrt iter    6 1.00000000   0.148E-11

     Est. extremal eigenvalues     -0.83113     2.59107  converged:  T
     TRS4 it   1 1.00000000   0.284E+02       0.007     2097.019   0.100E-11
     TRS4 it   2 1.00000000   0.235E+02       0.013     2183.556   0.100E-11
     TRS4 it   3 1.00000000   0.156E+02       0.013     2183.402   0.100E-11
     TRS4 it   4 1.00000000   0.914E+01       0.013     2197.927   0.100E-11
     TRS4 it   5 1.00000000   0.387E+01       0.013     2182.501   0.100E-11
     TRS4 it   6 1.00000000   0.100E+01       0.013     2219.878   0.100E-11
     TRS4 it   7 1.00000000   0.123E+00       0.013     2211.818   0.100E-11
     TRS4 it   8 1.00000000   0.275E-02       0.013     2161.952   0.100E-11
     TRS4 it   9 1.00000000   0.200E-05       0.013     2189.486   0.100E-11
     TRS4 it  10 1.00000000   0.344E-11       0.013     2192.318   0.100E-11
     Final TRS4 iteration   10 1.00000000   0.344E-11
     Chemical potential (mu):       0.05616
 
 PAO| energy:  -189.92698328380129      penalty:   6.7910317799059071E-004
 PAO|LS| adapt:  T F T
 PAO|LS| adapt: scan_steps:    0.0000000000000000        0.0000000000000000       0.57018556110983964     
 PAO|LS| adapt: energies:   -190.85469022853488        0.0000000000000000       -189.92698328380129     
 PAO| ======================= Iteration:         8 =============================

     Lanczos converged:  T threshold:   0.100E-02
     Est. extremal eigenvalues:    0.516E+01   0.127E+00
     Est. condition number :    0.406E+02

 Order=           3
     NS sqrt iter    1 1.00000000   0.132E+01       0.021     2661.195
     NS sqrt iter    2 1.00000000   0.677E+00       0.034     3354.071
     NS sqrt iter    3 1.00000000   0.225E+00       0.034     3366.993
     NS sqrt iter    4 1.00000000   0.333E-01       0.034     3356.443
     NS sqrt iter    5 1.00000000   0.238E-03       0.034     3337.166
     NS sqrt iter    6 1.00000000   0.236E-09       0.028     2616.166
     Symmetrizing Results
     Final NS sqrt iter    6 1.00000000   0.602E-12

     Est. extremal eigenvalues     -0.83264     2.59663  converged:  T
     TRS4 it   1 1.00000000   0.284E+02       0.007     2106.661   0.100E-11
     TRS4 it   2 1.00000000   0.235E+02       0.013     2181.098   0.100E-11
     TRS4 it   3 1.00000000   0.155E+02       0.013     2191.519   0.100E-11
     TRS4 it   4 1.00000000   0.905E+01       0.013     2183.144   0.100E-11
     TRS4 it   5 1.00000000   0.380E+01       0.013     2181.412   0.100E-11
     TRS4 it   6 1.00000000   0.986E+00       0.013     2194.601   0.100E-11
     TRS4 it   7 1.00000000   0.122E+00       0.013     2193.128   0.100E-11
     TRS4 it   8 1.00000000   0.277E-02       0.013     2177.573   0.100E-11
     TRS4 it   9 1.00000000   0.207E-05       0.013     2192.726   0.100E-11
     TRS4 it  10 1.00000000   0.386E-11       0.013     2181.119   0.100E-11
     Final TRS4 iteration   10 1.00000000   0.386E-11
     Chemical potential (mu):       0.05358
 
 PAO| energy:  -191.22040282249662      penalty:   5.1555332294707628E-004
 PAO|LS| adapt:  T T T
 PAO|LS| adapt: scan_steps:    0.0000000000000000       0.28509278055491982       0.57018556110983964     
 PAO|LS| adapt: energies:   -190.85469022853488       -191.22040282249662       -189.92698328380129     
 PAO|LS| adapt: suggested step_size:   0.20538769040316618     
 PAO|LS| adapt: predicted energy  -191.28524396431760     
 PAO| ======================= Iteration:         9 =============================

     Lanczos converged:  T threshold:   0.100E-02
     Est. extremal eigenvalues:    0.518E+01   0.126E+00
     Est. condition number :    0.412E+02

 Order=           3
     NS sqrt iter    1 1.00000000   0.133E+01       0.021     2687.008
     NS sqrt iter    2 1.00000000   0.680E+00       0.034     3354.330
     NS sqrt iter    3 1.00000000   0.228E+00       0.034     3355.265
     NS sqrt iter    4 1.00000000   0.342E-01       0.034     3351.815
     NS sqrt iter    5 1.00000000   0.257E-03       0.034     3342.733
     NS sqrt iter    6 1.00000000   0.294E-09       0.028     2679.673
     Symmetrizing Results
     Final NS sqrt iter    6 1.00000000   0.392E-12

     Est. extremal eigenvalues     -0.83259     2.59861  converged:  T
     TRS4 it   1 1.00000000   0.283E+02       0.007     2103.824   0.100E-11
     TRS4 it   2 1.00000000   0.235E+02       0.013     2205.276   0.100E-11
     TRS4 it   3 1.00000000   0.155E+02       0.013     2190.352   0.100E-11
     TRS4 it   4 1.00000000   0.904E+01       0.013     2211.436   0.100E-11
     TRS4 it   5 1.00000000   0.379E+01       0.013     2201.392   0.100E-11
     TRS4 it   6 1.00000000   0.984E+00       0.013     2197.818   0.100E-11
     TRS4 it   7 1.00000000   0.122E+00       0.013     2209.891   0.100E-11
     TRS4 it   8 1.00000000   0.279E-02       0.013     2198.419   0.100E-11
     TRS4 it   9 1.00000000   0.211E-05       0.013     2197.518   0.100E-11
     TRS4 it  10 1.00000000   0.406E-11       0.013     2220.297   0.100E-11
     Final TRS4 iteration   10 1.00000000   0.406E-11
     Chemical potential (mu):       0.05321
 
 PAO| energy:  -191.28967262253767      penalty:   4.9846914160128655E-004
 PAO|CG| trace_G_new   0.71480845124443959     
 PAO|CG| trace_G_prev    4.2893694564264768     
 PAO|CG| trace_G_mix   -4.2054340641820898E-002
 PAO|CG| trace_D    4.2893694564264768     
 PAO|CG| trace_D_Gnew   4.2054340641820898E-002
 PAO|CG| beta:   0.17645082793050232     
 PAO| norm of gradient:  0.84546345352382890     
 PAO| energy improvement: -0.43498239400278749     
 PAO| step      9                 -191.289672623  0.165E-02  0.205E+00     1.548
 PAO|LS| adapt:  T F F
 PAO|LS| adapt: scan_steps:    0.0000000000000000        0.0000000000000000        0.0000000000000000     
 PAO|LS| adapt: energies:   -191.28967262253767        0.0000000000000000        0.0000000000000000     
 PAO| ======================= Iteration:        10 =============================

     Lanczos converged:  T threshold:   0.100E-02
     Est. extremal eigenvalues:    0.513E+01   0.129E+00
     Est. condition number :    0.397E+02

 Order=           3
     NS sqrt iter    1 1.00000000   0.132E+01       0.021     2650.659
     NS sqrt iter    2 1.00000000   0.672E+00       0.034     3351.280
     NS sqrt iter    3 1.00000000   0.222E+00       0.034     3329.989
     NS sqrt iter    4 1.00000000   0.319E-01       0.034     3370.160
     NS sqrt iter    5 1.00000000   0.208E-03       0.034     3354.034
     NS sqrt iter    6 1.00000000   0.156E-09       0.027     2561.707
     Symmetrizing Results
     Final NS sqrt iter    6 1.00000000   0.111E-11

     Est. extremal eigenvalues     -0.83312     2.58484  converged:  T
     TRS4 it   1 1.00000000   0.283E+02       0.007     2109.775   0.100E-11
     TRS4 it   2 1.00000000   0.234E+02       0.013     2179.581   0.100E-11
     TRS4 it   3 1.00000000   0.155E+02       0.013     2214.988   0.100E-11
     TRS4 it   4 1.00000000   0.902E+01       0.013     2206.498   0.100E-11
     TRS4 it   5 1.00000000   0.377E+01       0.013     2201.657   0.100E-11
     TRS4 it   6 1.00000000   0.971E+00       0.013     2202.303   0.100E-11
     TRS4 it   7 1.00000000   0.119E+00       0.013     2209.373   0.100E-11
     TRS4 it   8 1.00000000   0.262E-02       0.013     2215.011   0.100E-11
     TRS4 it   9 1.00000000   0.184E-05       0.013     2177.925   0.100E-11
     TRS4 it  10 1.00000000   0.309E-11       0.013     2182.452   0.100E-11
     Final TRS4 iteration   10 1.00000000   0.309E-11
     Chemical potential (mu):       0.05428
 
 PAO| energy:  -191.38793023310959      penalty:   5.0050516230768253E-004
 PAO|LS| adapt:  T T F
 PAO|LS| adapt: scan_steps:    0.0000000000000000       0.20538769040316618        0.0000000000000000     
 PAO|LS| adapt: energies:   -191.28967262253767       -191.38793023310959        0.0000000000000000     
 PAO| ======================= Iteration:        11 =============================

     Lanczos converged:  T threshold:   0.100E-02
     Est. extremal eigenvalues:    0.508E+01   0.133E+00
     Est. condition number :    0.383E+02

 Order=           3
     NS sqrt iter    1 1.00000000   0.131E+01       0.021     2662.608
     NS sqrt iter    2 1.00000000   0.663E+00       0.034     3357.060
     NS sqrt iter    3 1.00000000   0.216E+00       0.034     3358.231
     NS sqrt iter    4 1.00000000   0.297E-01       0.034     3366.988
     NS sqrt iter    5 1.00000000   0.169E-03       0.034     3342.833
     NS sqrt iter    6 1.00000000   0.817E-10       0.025     2450.303
     Symmetrizing Results
     Final NS sqrt iter    6 1.00000000   0.185E-11

     Est. extremal eigenvalues     -0.83330     2.57207  converged:  T
     TRS4 it   1 1.00000000   0.283E+02       0.007     2129.413   0.100E-11
     TRS4 it   2 1.00000000   0.233E+02       0.013     2196.254   0.100E-11
     TRS4 it   3 1.00000000   0.155E+02       0.013     2178.883   0.100E-11
     TRS4 it   4 1.00000000   0.899E+01       0.013     2198.924   0.100E-11
     TRS4 it   5 1.00000000   0.374E+01       0.013     2197.389   0.100E-11
     TRS4 it   6 1.00000000   0.956E+00       0.013     2187.335   0.100E-11
     TRS4 it   7 1.00000000   0.115E+00       0.013     2172.155   0.100E-11
     TRS4 it   8 1.00000000   0.244E-02       0.013     2186.095   0.100E-11
     TRS4 it   9 1.00000000   0.160E-05       0.013     2203.022   0.100E-11
     TRS4 it  10 1.00000000   0.225E-11       0.013     2203.178   0.100E-11
     Final TRS4 iteration   10 1.00000000   0.225E-11
     Chemical potential (mu):       0.05540
 
 PAO| energy:  -191.39465818589517      penalty:   5.1222912010978768E-004
 PAO|LS| adapt:  T T F
 PAO|LS| adapt: scan_steps:    0.0000000000000000       0.41077538080633236        0.0000000000000000     
 PAO|LS| adapt: energies:   -191.28967262253767       -191.39465818589517        0.0000000000000000     
 PAO| ======================= Iteration:        12 =============================

     Lanczos converged:  T threshold:   0.100E-02
     Est. extremal eigenvalues:    0.497E+01   0.139E+00
     Est. condition number :    0.357E+02

 Order=           3
     NS sqrt iter    1 1.00000000   0.129E+01       0.021     2671.127
     NS sqrt iter    2 1.00000000   0.647E+00       0.034     3357.136
     NS sqrt iter    3 1.00000000   0.206E+00       0.034     3349.351
     NS sqrt iter    4 1.00000000   0.258E-01       0.034     3359.969
     NS sqrt iter    5 1.00000000   0.110E-03       0.034     3367.250
     NS sqrt iter    6 1.00000000   0.219E-10       0.018     2156.074
     Symmetrizing Results
     Final NS sqrt iter    6 1.00000000   0.214E-11

     Est. extremal eigenvalues     -0.83270     2.54948  converged:  T
     TRS4 it   1 1.00000000   0.283E+02       0.007     2131.282   0.100E-11
     TRS4 it   2 1.00000000   0.232E+02       0.013     2184.216   0.100E-11
     TRS4 it   3 1.00000000   0.154E+02       0.013     2205.662   0.100E-11
     TRS4 it   4 1.00000000   0.893E+01       0.013     2177.145   0.100E-11
     TRS4 it   5 1.00000000   0.368E+01       0.013     2171.426   0.100E-11
     TRS4 it   6 1.00000000   0.923E+00       0.013     2172.888   0.100E-11
     TRS4 it   7 1.00000000   0.106E+00       0.013     2170.833   0.100E-11
     TRS4 it   8 1.00000000   0.209E-02       0.013     2196.390   0.100E-11
     TRS4 it   9 1.00000000   0.118E-05       0.013     2210.910   0.100E-11
     TRS4 it  10 1.00000000   0.123E-11       0.013     2186.384   0.100E-11
     Final TRS4 iteration   10 1.00000000   0.123E-11
     Chemical potential (mu):       0.05779
 
 PAO| energy:  -191.14956105781090      penalty:   5.7155451145621944E-004
 PAO|LS| Need extra step
 PAO|LS| adapt:  T T T
 PAO|LS| adapt: scan_steps:    0.0000000000000000       0.41077538080633236       0.82155076161266472     
 PAO|LS| adapt: energies:   -191.28967262253767       -191.39465818589517       -191.14956105781090     
 PAO|LS| adapt: suggested step_size:   0.32857425695331044     
 PAO|LS| adapt: predicted energy  -191.40166769073863     
 PAO| ======================= Iteration:        13 =============================

     Lanczos converged:  T threshold:   0.100E-02
     Est. extremal eigenvalues:    0.510E+01   0.131E+00
     Est. condition number :    0.388E+02

 Order=           3
     NS sqrt iter    1 1.00000000   0.131E+01       0.021     2667.267
     NS sqrt iter    2 1.00000000   0.667E+00       0.034     3350.547
     NS sqrt iter    3 1.00000000   0.219E+00       0.034     3342.000
     NS sqrt iter    4 1.00000000   0.306E-01       0.034     3339.953
     NS sqrt iter    5 1.00000000   0.183E-03       0.034     3327.942
     NS sqrt iter    6 1.00000000   0.106E-09       0.026     2483.880
     Symmetrizing Results
     Final NS sqrt iter    6 1.00000000   0.154E-11

     Est. extremal eigenvalues     -0.83327     2.57703  converged:  T
     TRS4 it   1 1.00000000   0.283E+02       0.007     2120.420   0.100E-11
     TRS4 it   2 1.00000000   0.234E+02       0.013     2191.973   0.100E-11
     TRS4 it   3 1.00000000   0.155E+02       0.013     2189.063   0.100E-11
     TRS4 it   4 1.00000000   0.900E+01       0.013     2188.642   0.100E-11
     TRS4 it   5 1.00000000   0.376E+01       0.013     2191.949   0.100E-11
     TRS4 it   6 1.00000000   0.962E+00       0.013     2177.215   0.100E-11
     TRS4 it   7 1.00000000   0.116E+00       0.013     2193.647   0.100E-11
     TRS4 it   8 1.00000000   0.251E-02       0.013     2183.506   0.100E-11
     TRS4 it   9 1.00000000   0.170E-05       0.013     2195.362   0.100E-11
     TRS4 it  10 1.00000000   0.258E-11       0.013     2196.139   0.100E-11
     Final TRS4 iteration   10 1.00000000   0.258E-11
     Chemical potential (mu):       0.05495
 
 PAO| energy:  -191.40270142185176      penalty:   5.0629564571410103E-004
 PAO|CG| trace_G_new   0.27995513757395690     
 PAO|CG| trace_G_prev   0.71480845124443959     
 PAO|CG| trace_G_mix   -1.1499535646263114E-002
 PAO|CG| trace_D   0.83351647105392046     
 PAO|CG| trace_D_Gnew   1.1473821838236970E-002
 PAO|CG| beta:   0.40773814678997500     
 PAO| norm of gradient:  0.52910786950673572     
 PAO| energy improvement: -0.11302879931409393     
 PAO| step     13                 -191.402701422  0.103E-02  0.329E+00     1.997
 PAO|LS| adapt:  T F F
 PAO|LS| adapt: scan_steps:    0.0000000000000000        0.0000000000000000        0.0000000000000000     
 PAO|LS| adapt: energies:   -191.40270142185176        0.0000000000000000        0.0000000000000000     
 PAO| ======================= Iteration:        14 =============================

     Lanczos converged:  T threshold:   0.100E-02
     Est. extremal eigenvalues:    0.502E+01   0.134E+00
     Est. condition number :    0.376E+02

 Order=           3
     NS sqrt iter    1 1.00000000   0.130E+01       0.021     2687.844
     NS sqrt iter    2 1.00000000   0.655E+00       0.034     3348.283
     NS sqrt iter    3 1.00000000   0.212E+00       0.034     3365.559
     NS sqrt iter    4 1.00000000   0.283E-01       0.034     3361.028
     NS sqrt iter    5 1.00000000   0.148E-03       0.034     3353.576
     NS sqrt iter    6 1.00000000   0.568E-10       0.023     2365.675
     Symmetrizing Results
     Final NS sqrt iter    6 1.00000000   0.215E-11

     Est. extremal eigenvalues     -0.83374     2.57577  converged:  T
     TRS4 it   1 1.00000000   0.284E+02       0.007     2102.003   0.100E-11
     TRS4 it   2 1.00000000   0.234E+02       0.013     2202.913   0.100E-11
     TRS4 it   3 1.00000000   0.154E+02       0.013     2190.900   0.100E-11
     TRS4 it   4 1.00000000   0.895E+01       0.013     2178.031   0.100E-11
     TRS4 it   5 1.00000000   0.370E+01       0.013     2218.684   0.100E-11
     TRS4 it   6 1.00000000   0.933E+00       0.013     2186.351   0.100E-11
     TRS4 it   7 1.00000000   0.109E+00       0.013     2187.095   0.100E-11
     TRS4 it   8 1.00000000   0.220E-02       0.013     2183.881   0.100E-11
     TRS4 it   9 1.00000000   0.130E-05       0.013     2197.579   0.100E-11
     TRS4 it  10 1.00000000   0.145E-11       0.013     2199.005   0.100E-11
     Final TRS4 iteration   10 1.00000000   0.145E-11
     Chemical potential (mu):       0.05712
 
 PAO| energy:  -191.45531830769573      penalty:   5.0824322245898777E-004
 PAO|LS| adapt:  T T F
 PAO|LS| adapt: scan_steps:    0.0000000000000000       0.32857425695331044        0.0000000000000000     
 PAO|LS| adapt: energies:   -191.40270142185176       -191.45531830769573        0.0000000000000000     
 PAO| ======================= Iteration:        15 =============================

     Lanczos converged:  T threshold:   0.100E-02
     Est. extremal eigenvalues:    0.495E+01   0.136E+00
     Est. condition number :    0.364E+02

 Order=           3
     NS sqrt iter    1 1.00000000   0.128E+01       0.021     2647.825
     NS sqrt iter    2 1.00000000   0.644E+00       0.034     3379.599
     NS sqrt iter    3 1.00000000   0.206E+00       0.034     3342.566
     NS sqrt iter    4 1.00000000   0.262E-01       0.034     3351.902
     NS sqrt iter    5 1.00000000   0.119E-03       0.034     3339.491
     NS sqrt iter    6 1.00000000   0.308E-10       0.019     2255.820
     Symmetrizing Results
     Final NS sqrt iter    6 1.00000000   0.221E-11

     Est. extremal eigenvalues     -0.83383     2.57439  converged:  T
     TRS4 it   1 1.00000000   0.284E+02       0.007     2132.032   0.100E-11
     TRS4 it   2 1.00000000   0.234E+02       0.013     2187.223   0.100E-11
     TRS4 it   3 1.00000000   0.154E+02       0.013     2176.412   0.100E-11
     TRS4 it   4 1.00000000   0.890E+01       0.013     2211.802   0.100E-11
     TRS4 it   5 1.00000000   0.365E+01       0.013     2185.602   0.100E-11
     TRS4 it   6 1.00000000   0.904E+00       0.013     2179.957   0.100E-11
     TRS4 it   7 1.00000000   0.103E+00       0.013     2196.693   0.100E-11
     TRS4 it   8 1.00000000   0.194E-02       0.013     2208.778   0.100E-11
     TRS4 it   9 1.00000000   0.100E-05       0.013     2188.831   0.100E-11
     TRS4 it  10 1.00000000   0.856E-12       0.013     2187.075   0.100E-11
     Final TRS4 iteration   10 1.00000000   0.856E-12
     Chemical potential (mu):       0.05917
 
 PAO| energy:  -191.43337193189026      penalty:   5.2552955496517804E-004
 PAO|LS| adapt:  T T T
 PAO|LS| adapt: scan_steps:    0.0000000000000000       0.32857425695331044       0.65714851390662088     
 PAO|LS| adapt: energies:   -191.40270142185176       -191.45531830769573       -191.43337193189026     
 PAO|LS| adapt: suggested step_size:   0.39615137082515062     
 PAO|LS| adapt: predicted energy  -191.45689529106062     
 PAO| ======================= Iteration:        16 =============================

     Lanczos converged:  T threshold:   0.100E-02
     Est. extremal eigenvalues:    0.500E+01   0.134E+00
     Est. condition number :    0.373E+02

 Order=           3
     NS sqrt iter    1 1.00000000   0.129E+01       0.021     2671.289
     NS sqrt iter    2 1.00000000   0.653E+00       0.034     3343.388
     NS sqrt iter    3 1.00000000   0.211E+00       0.034     3355.583
     NS sqrt iter    4 1.00000000   0.278E-01       0.034     3368.048
     NS sqrt iter    5 1.00000000   0.141E-03       0.034     3367.955
     NS sqrt iter    6 1.00000000   0.500E-10       0.022     2349.777
     Symmetrizing Results
     Final NS sqrt iter    6 1.00000000   0.219E-11

     Est. extremal eigenvalues     -0.83379     2.57550  converged:  T
     TRS4 it   1 1.00000000   0.284E+02       0.007     2112.249   0.100E-11
     TRS4 it   2 1.00000000   0.234E+02       0.013     2202.058   0.100E-11
     TRS4 it   3 1.00000000   0.154E+02       0.013     2177.112   0.100E-11
     TRS4 it   4 1.00000000   0.894E+01       0.013     2197.652   0.100E-11
     TRS4 it   5 1.00000000   0.369E+01       0.013     2169.522   0.100E-11
     TRS4 it   6 1.00000000   0.927E+00       0.013     2192.098   0.100E-11
     TRS4 it   7 1.00000000   0.108E+00       0.013     2205.932   0.100E-11
     TRS4 it   8 1.00000000   0.215E-02       0.013     2183.524   0.100E-11
     TRS4 it   9 1.00000000   0.123E-05       0.013     2202.646   0.100E-11
     TRS4 it  10 1.00000000   0.134E-11       0.013     2192.841   0.100E-11
     Final TRS4 iteration   10 1.00000000   0.134E-11
     Chemical potential (mu):       0.05755
 
 PAO| energy:  -191.45683986895813      penalty:   5.1049570741370435E-004
 PAO|CG| trace_G_new   0.10883601039617366     
 PAO|CG| trace_G_prev   0.27995513757395690     
 PAO|CG| trace_G_mix    4.3112715967123941E-003
 PAO|CG| trace_D   0.40917095154318450     
 PAO|CG| trace_D_Gnew   7.5072430025818456E-004
 PAO|CG| beta:   0.37336245980429111     
 PAO| norm of gradient:  0.32990303180809610     
 PAO| energy improvement:  -5.4138447106367948E-002
 PAO| step     16                 -191.456839869  0.644E-03  0.396E+00     1.530
 PAO|LS| adapt:  T F F
 PAO|LS| adapt: scan_steps:    0.0000000000000000        0.0000000000000000        0.0000000000000000     
 PAO|LS| adapt: energies:   -191.45683986895813        0.0000000000000000        0.0000000000000000     
 PAO| ======================= Iteration:        17 =============================

     Lanczos converged:  T threshold:   0.100E-02
     Est. extremal eigenvalues:    0.496E+01   0.135E+00
     Est. condition number :    0.369E+02

 Order=           3
     NS sqrt iter    1 1.00000000   0.128E+01       0.021     2675.117
     NS sqrt iter    2 1.00000000   0.647E+00       0.034     3362.910
     NS sqrt iter    3 1.00000000   0.208E+00       0.034     3364.120
     NS sqrt iter    4 1.00000000   0.269E-01       0.034     3362.655
     NS sqrt iter    5 1.00000000   0.128E-03       0.034     3351.416
     NS sqrt iter    6 1.00000000   0.379E-10       0.021     2286.098
     Symmetrizing Results
     Final NS sqrt iter    6 1.00000000   0.225E-11

     Est. extremal eigenvalues     -0.83387     2.57677  converged:  T
     TRS4 it   1 1.00000000   0.284E+02       0.007     2145.562   0.100E-11
     TRS4 it   2 1.00000000   0.234E+02       0.013     2200.141   0.100E-11
     TRS4 it   3 1.00000000   0.154E+02       0.013     2170.704   0.100E-11
     TRS4 it   4 1.00000000   0.889E+01       0.013     2188.237   0.100E-11
     TRS4 it   5 1.00000000   0.365E+01       0.013     2206.671   0.100E-11
     TRS4 it   6 1.00000000   0.907E+00       0.013     2196.661   0.100E-11
     TRS4 it   7 1.00000000   0.103E+00       0.013     2195.804   0.100E-11
     TRS4 it   8 1.00000000   0.196E-02       0.013     2179.993   0.100E-11
     TRS4 it   9 1.00000000   0.103E-05       0.013     2188.528   0.100E-11
     TRS4 it  10 1.00000000   0.872E-12       0.013     2185.692   0.100E-11
     Final TRS4 iteration   10 1.00000000   0.872E-12
     Chemical potential (mu):       0.05893
 
 PAO| energy:  -191.46140495942078      penalty:   5.0365061662178295E-004
 PAO|LS| adapt:  T T F
 PAO|LS| adapt: scan_steps:    0.0000000000000000       0.39615137082515062        0.0000000000000000     
 PAO|LS| adapt: energies:   -191.45683986895813       -191.46140495942078        0.0000000000000000     
 PAO| ======================= Iteration:        18 =============================

     Lanczos converged:  F threshold:   0.100E-02
     Est. extremal eigenvalues:    0.492E+01   0.135E+00
     Est. condition number :    0.364E+02

 Order=           3
     NS sqrt iter    1 1.00000000   0.127E+01       0.021     2664.333
     NS sqrt iter    2 1.00000000   0.642E+00       0.034     3352.336
     NS sqrt iter    3 1.00000000   0.205E+00       0.034     3355.681
     NS sqrt iter    4 1.00000000   0.260E-01       0.034     3364.510
     NS sqrt iter    5 1.00000000   0.117E-03       0.034     3357.960
     NS sqrt iter    6 1.00000000   0.290E-10       0.019     2243.452
     Symmetrizing Results
     Final NS sqrt iter    6 1.00000000   0.225E-11

     Est. extremal eigenvalues     -0.83378     2.57812  converged:  T
     TRS4 it   1 1.00000000   0.285E+02       0.007     2154.998   0.100E-11
     TRS4 it   2 1.00000000   0.234E+02       0.013     2186.824   0.100E-11
     TRS4 it   3 1.00000000   0.154E+02       0.013     2193.264   0.100E-11
     TRS4 it   4 1.00000000   0.885E+01       0.013     2183.625   0.100E-11
     TRS4 it   5 1.00000000   0.361E+01       0.013     2194.657   0.100E-11
     TRS4 it   6 1.00000000   0.887E+00       0.013     2186.851   0.100E-11
     TRS4 it   7 1.00000000   0.990E-01       0.013     2186.638   0.100E-11
     TRS4 it   8 1.00000000   0.180E-02       0.013     2196.431   0.100E-11
     TRS4 it   9 1.00000000   0.863E-06       0.013     2184.432   0.100E-11
     TRS4 it  10 1.00000000   0.647E-12       0.013     2186.114   0.100E-11
     Final TRS4 iteration   10 1.00000000   0.647E-12
     Chemical potential (mu):       0.06039
 
 PAO| energy:  -191.38895732927580      penalty:   5.0505544705902231E-004
 PAO|LS| adapt:  T T T
 PAO|LS| adapt: scan_steps:    0.0000000000000000       0.39615137082515062       0.79230274165030123     
 PAO|LS| adapt: energies:   -191.45683986895813       -191.46140495942078       -191.38895732927580     
 PAO|LS| adapt: suggested step_size:   0.22155838840566880     
 PAO|LS| adapt: predicted energy  -191.46888430691911     
 PAO| ======================= Iteration:        19 =============================

     Lanczos converged:  T threshold:   0.100E-02
     Est. extremal eigenvalues:    0.498E+01   0.134E+00
     Est. condition number :    0.371E+02

 Order=           3
     NS sqrt iter    1 1.00000000   0.129E+01       0.021     2657.910
     NS sqrt iter    2 1.00000000   0.650E+00       0.034     3338.692
     NS sqrt iter    3 1.00000000   0.209E+00       0.034     3349.341
     NS sqrt iter    4 1.00000000   0.273E-01       0.034     3334.830
     NS sqrt iter    5 1.00000000   0.134E-03       0.034     3338.623
     NS sqrt iter    6 1.00000000   0.428E-10       0.021     2337.496
     Symmetrizing Results
     Final NS sqrt iter    6 1.00000000   0.219E-11

     Est. extremal eigenvalues     -0.83385     2.57620  converged:  T
     TRS4 it   1 1.00000000   0.284E+02       0.007     2127.996   0.100E-11
     TRS4 it   2 1.00000000   0.234E+02       0.013     2204.073   0.100E-11
     TRS4 it   3 1.00000000   0.154E+02       0.013     2208.584   0.100E-11
     TRS4 it   4 1.00000000   0.891E+01       0.013     2191.269   0.100E-11
     TRS4 it   5 1.00000000   0.366E+01       0.013     2194.448   0.100E-11
     TRS4 it   6 1.00000000   0.916E+00       0.013     2180.048   0.100E-11
     TRS4 it   7 1.00000000   0.105E+00       0.013     2201.085   0.100E-11
     TRS4 it   8 1.00000000   0.204E-02       0.013     2185.630   0.100E-11
     TRS4 it   9 1.00000000   0.111E-05       0.013     2190.308   0.100E-11
     TRS4 it  10 1.00000000   0.106E-11       0.013     2201.513   0.100E-11
     Final TRS4 iteration   10 1.00000000   0.106E-11
     Chemical potential (mu):       0.05831
 
 PAO| energy:  -191.46887447832540      penalty:   5.0566888356904575E-004
 PAO|CG| trace_G_new    2.1997189970980647E-002
 PAO|CG| trace_G_prev   0.10883601039617366     
 PAO|CG| trace_G_mix   -4.0572264073824302E-004
 PAO|CG| trace_D   0.16531366271153528     
 PAO|CG| trace_D_Gnew  -3.8459155674622192E-005
 PAO|CG| beta:   0.20584099444816206     
 PAO| norm of gradient:  0.14831449683352146     
 PAO| energy improvement:  -1.2034609367276516E-002
 PAO| step     19                 -191.468874478  0.290E-03  0.222E+00     1.526
 PAO|LS| adapt:  T F F
 PAO|LS| adapt: scan_steps:    0.0000000000000000        0.0000000000000000        0.0000000000000000     
 PAO|LS| adapt: energies:   -191.46887447832540        0.0000000000000000        0.0000000000000000     
 PAO| ======================= Iteration:        20 =============================

     Lanczos converged:  T threshold:   0.100E-02
     Est. extremal eigenvalues:    0.497E+01   0.134E+00
     Est. condition number :    0.370E+02

 Order=           3
     NS sqrt iter    1 1.00000000   0.129E+01       0.021     2667.172
     NS sqrt iter    2 1.00000000   0.649E+00       0.034     3331.149
     NS sqrt iter    3 1.00000000   0.209E+00       0.034     3332.244
     NS sqrt iter    4 1.00000000   0.273E-01       0.034     3352.384
     NS sqrt iter    5 1.00000000   0.133E-03       0.034     3361.580
     NS sqrt iter    6 1.00000000   0.419E-10       0.021     2311.331
     Symmetrizing Results
     Final NS sqrt iter    6 1.00000000   0.220E-11

     Est. extremal eigenvalues     -0.83387     2.57567  converged:  T
     TRS4 it   1 1.00000000   0.284E+02       0.007     2150.621   0.100E-11
     TRS4 it   2 1.00000000   0.234E+02       0.013     2199.699   0.100E-11
     TRS4 it   3 1.00000000   0.154E+02       0.013     2203.981   0.100E-11
     TRS4 it   4 1.00000000   0.890E+01       0.013     2195.832   0.100E-11
     TRS4 it   5 1.00000000   0.365E+01       0.013     2209.589   0.100E-11
     TRS4 it   6 1.00000000   0.911E+00       0.013     2174.701   0.100E-11
     TRS4 it   7 1.00000000   0.104E+00       0.013     2194.579   0.100E-11
     TRS4 it   8 1.00000000   0.200E-02       0.013     2188.376   0.100E-11
     TRS4 it   9 1.00000000   0.107E-05       0.013     2213.182   0.100E-11
     TRS4 it  10 1.00000000   0.981E-12       0.013     2199.695   0.100E-11
     Final TRS4 iteration   10 1.00000000   0.981E-12
     Chemical potential (mu):       0.05859
 
 PAO| energy:  -191.47282757295699      penalty:   4.9600840879837117E-004
 PAO|LS| adapt:  T T F
 PAO|LS| adapt: scan_steps:    0.0000000000000000       0.22155838840566880        0.0000000000000000     
 PAO|LS| adapt: energies:   -191.46887447832540       -191.47282757295699        0.0000000000000000     
 PAO| ======================= Iteration:        21 =============================

     Lanczos converged:  F threshold:   0.100E-02
     Est. extremal eigenvalues:    0.497E+01   0.134E+00
     Est. condition number :    0.370E+02

 Order=           3
     NS sqrt iter    1 1.00000000   0.128E+01       0.022     2642.419
     NS sqrt iter    2 1.00000000   0.648E+00       0.034     3375.593
     NS sqrt iter    3 1.00000000   0.209E+00       0.034     3350.961
     NS sqrt iter    4 1.00000000   0.272E-01       0.034     3353.665
     NS sqrt iter    5 1.00000000   0.132E-03       0.034     3366.662
     NS sqrt iter    6 1.00000000   0.410E-10       0.021     2320.670
     Symmetrizing Results
     Final NS sqrt iter    6 1.00000000   0.221E-11

     Est. extremal eigenvalues     -0.83388     2.57514  converged:  T
     TRS4 it   1 1.00000000   0.284E+02       0.007     2147.191   0.100E-11
     TRS4 it   2 1.00000000   0.233E+02       0.013     2199.627   0.100E-11
     TRS4 it   3 1.00000000   0.154E+02       0.013     2194.233   0.100E-11
     TRS4 it   4 1.00000000   0.889E+01       0.013     2161.580   0.100E-11
     TRS4 it   5 1.00000000   0.364E+01       0.013     2186.204   0.100E-11
     TRS4 it   6 1.00000000   0.907E+00       0.013     2215.870   0.100E-11
     TRS4 it   7 1.00000000   0.103E+00       0.013     2217.512   0.100E-11
     TRS4 it   8 1.00000000   0.197E-02       0.013     2193.877   0.100E-11
     TRS4 it   9 1.00000000   0.103E-05       0.013     2168.628   0.100E-11
     TRS4 it  10 1.00000000   0.904E-12       0.013     2204.965   0.100E-11
     Final TRS4 iteration   10 1.00000000   0.904E-12
     Chemical potential (mu):       0.05888
 
 PAO| energy:  -191.47492243107018      penalty:   4.8679783850688661E-004
 PAO|LS| adapt:  T T F
 PAO|LS| adapt: scan_steps:    0.0000000000000000       0.44311677681133760        0.0000000000000000     
 PAO|LS| adapt: energies:   -191.46887447832540       -191.47492243107018        0.0000000000000000     
 PAO| ======================= Iteration:        22 =============================

     Lanczos converged:  F threshold:   0.100E-02
     Est. extremal eigenvalues:    0.495E+01   0.134E+00
     Est. condition number :    0.369E+02

 Order=           3
     NS sqrt iter    1 1.00000000   0.128E+01       0.021     2677.668
     NS sqrt iter    2 1.00000000   0.647E+00       0.034     3380.409
     NS sqrt iter    3 1.00000000   0.209E+00       0.034     3366.504
     NS sqrt iter    4 1.00000000   0.272E-01       0.034     3369.568
     NS sqrt iter    5 1.00000000   0.131E-03       0.034     3332.337
     NS sqrt iter    6 1.00000000   0.395E-10       0.021     2303.766
     Symmetrizing Results
     Final NS sqrt iter    6 1.00000000   0.224E-11

     Est. extremal eigenvalues     -0.83389     2.57411  converged:  T
     TRS4 it   1 1.00000000   0.284E+02       0.007     2106.880   0.100E-11
     TRS4 it   2 1.00000000   0.233E+02       0.013     2183.866   0.100E-11
     TRS4 it   3 1.00000000   0.154E+02       0.013     2181.193   0.100E-11
     TRS4 it   4 1.00000000   0.887E+01       0.013     2192.814   0.100E-11
     TRS4 it   5 1.00000000   0.362E+01       0.013     2197.962   0.100E-11
     TRS4 it   6 1.00000000   0.898E+00       0.013     2177.291   0.100E-11
     TRS4 it   7 1.00000000   0.102E+00       0.013     2196.719   0.100E-11
     TRS4 it   8 1.00000000   0.189E-02       0.013     2200.609   0.100E-11
     TRS4 it   9 1.00000000   0.953E-06       0.013     2195.970   0.100E-11
     TRS4 it  10 1.00000000   0.798E-12       0.013     2183.484   0.100E-11
     Final TRS4 iteration   10 1.00000000   0.798E-12
     Chemical potential (mu):       0.05944
 
 PAO| energy:  -191.47345515054829      penalty:   4.6969733130508356E-004
 PAO|LS| Need extra step
 PAO|LS| adapt:  T T T
 PAO|LS| adapt: scan_steps:    0.0000000000000000       0.44311677681133760       0.88623355362267520     
 PAO|LS| adapt: energies:   -191.46887447832540       -191.47492243107018       -191.47345515054829     
 PAO|LS| adapt: suggested step_size:   0.57816066959611911     
 PAO|LS| adapt: predicted energy  -191.47527143151484     
 PAO| ======================= Iteration:        23 =============================

     Lanczos converged:  F threshold:   0.100E-02
     Est. extremal eigenvalues:    0.496E+01   0.134E+00
     Est. condition number :    0.370E+02

 Order=           3
     NS sqrt iter    1 1.00000000   0.128E+01       0.021     2685.835
     NS sqrt iter    2 1.00000000   0.648E+00       0.034     3369.886
     NS sqrt iter    3 1.00000000   0.209E+00       0.034     3361.767
     NS sqrt iter    4 1.00000000   0.272E-01       0.034     3356.478
     NS sqrt iter    5 1.00000000   0.132E-03       0.034     3368.831
     NS sqrt iter    6 1.00000000   0.405E-10       0.021     2314.580
     Symmetrizing Results
     Final NS sqrt iter    6 1.00000000   0.222E-11

     Est. extremal eigenvalues     -0.83388     2.57482  converged:  T
     TRS4 it   1 1.00000000   0.284E+02       0.007     2157.573   0.100E-11
     TRS4 it   2 1.00000000   0.233E+02       0.013     2197.606   0.100E-11
     TRS4 it   3 1.00000000   0.154E+02       0.013     2170.293   0.100E-11
     TRS4 it   4 1.00000000   0.888E+01       0.013     2189.381   0.100E-11
     TRS4 it   5 1.00000000   0.364E+01       0.013     2163.463   0.100E-11
     TRS4 it   6 1.00000000   0.904E+00       0.013     2171.707   0.100E-11
     TRS4 it   7 1.00000000   0.103E+00       0.013     2187.169   0.100E-11
     TRS4 it   8 1.00000000   0.194E-02       0.013     2177.585   0.100E-11
     TRS4 it   9 1.00000000   0.101E-05       0.013     2177.638   0.100E-11
     TRS4 it  10 1.00000000   0.840E-12       0.013     2181.506   0.100E-11
     Final TRS4 iteration   10 1.00000000   0.840E-12
     Chemical potential (mu):       0.05905
 
 PAO| energy:  -191.47527904050216      penalty:   4.8140117417010272E-004
 PAO|CG| trace_G_new    1.7682339731812161E-002
 PAO|CG| trace_G_prev    2.1997189970980647E-002
 PAO|CG| trace_G_mix    1.1833835181425690E-004
 PAO|CG| trace_D    2.9017447937545019E-002
 PAO|CG| trace_D_Gnew  -4.4878581806666795E-005
 PAO|CG| beta:   0.79846568598847678     
 PAO| norm of gradient:  0.13297495904046056     
 PAO| energy improvement:  -6.4045621767547800E-003
 PAO| step     23                 -191.475279041  0.260E-03  0.578E+00     1.982
 PAO|LS| adapt:  T F F
 PAO|LS| adapt: scan_steps:    0.0000000000000000        0.0000000000000000        0.0000000000000000     
 PAO|LS| adapt: energies:   -191.47527904050216        0.0000000000000000        0.0000000000000000     
 PAO| ======================= Iteration:        24 =============================

     Lanczos converged:  F threshold:   0.100E-02
     Est. extremal eigenvalues:    0.494E+01   0.134E+00
     Est. condition number :    0.369E+02

 Order=           3
     NS sqrt iter    1 1.00000000   0.128E+01       0.021     2674.230
     NS sqrt iter    2 1.00000000   0.646E+00       0.034     3365.878
     NS sqrt iter    3 1.00000000   0.208E+00       0.034     3363.068
     NS sqrt iter    4 1.00000000   0.271E-01       0.034     3363.614
     NS sqrt iter    5 1.00000000   0.131E-03       0.034     3357.337
     NS sqrt iter    6 1.00000000   0.393E-10       0.021     2307.539
     Symmetrizing Results
     Final NS sqrt iter    6 1.00000000   0.224E-11

     Est. extremal eigenvalues     -0.83391     2.57283  converged:  T
     TRS4 it   1 1.00000000   0.284E+02       0.007     2114.456   0.100E-11
     TRS4 it   2 1.00000000   0.233E+02       0.013     2165.557   0.100E-11
     TRS4 it   3 1.00000000   0.154E+02       0.013     2189.868   0.100E-11
     TRS4 it   4 1.00000000   0.886E+01       0.013     2190.956   0.100E-11
     TRS4 it   5 1.00000000   0.361E+01       0.013     2181.454   0.100E-11
     TRS4 it   6 1.00000000   0.893E+00       0.013     2195.760   0.100E-11
     TRS4 it   7 1.00000000   0.100E+00       0.013     2191.124   0.100E-11
     TRS4 it   8 1.00000000   0.185E-02       0.013     2186.690   0.100E-11
     TRS4 it   9 1.00000000   0.908E-06       0.013     2203.901   0.100E-11
     TRS4 it  10 1.00000000   0.707E-12       0.013     2177.525   0.100E-11
     Final TRS4 iteration   10 1.00000000   0.707E-12
     Chemical potential (mu):       0.05981
 
 PAO| energy:  -191.47850931992014      penalty:   4.4284362653349046E-004
 PAO|LS| adapt:  T T F
 PAO|LS| adapt: scan_steps:    0.0000000000000000       0.57816066959611911        0.0000000000000000     
 PAO|LS| adapt: energies:   -191.47527904050216       -191.47850931992014        0.0000000000000000     
 PAO| ======================= Iteration:        25 =============================

     Lanczos converged:  F threshold:   0.100E-02
     Est. extremal eigenvalues:    0.493E+01   0.134E+00
     Est. condition number :    0.368E+02

 Order=           3
     NS sqrt iter    1 1.00000000   0.127E+01       0.021     2661.007
     NS sqrt iter    2 1.00000000   0.644E+00       0.034     3339.685
     NS sqrt iter    3 1.00000000   0.207E+00       0.034     3342.362
     NS sqrt iter    4 1.00000000   0.270E-01       0.034     3327.058
     NS sqrt iter    5 1.00000000   0.130E-03       0.034     3348.860
     NS sqrt iter    6 1.00000000   0.383E-10       0.021     2299.712
     Symmetrizing Results
     Final NS sqrt iter    6 1.00000000   0.224E-11

     Est. extremal eigenvalues     -0.83392     2.57092  converged:  T
     TRS4 it   1 1.00000000   0.284E+02       0.007     2142.816   0.100E-11
     TRS4 it   2 1.00000000   0.233E+02       0.013     2202.688   0.100E-11
     TRS4 it   3 1.00000000   0.154E+02       0.013     2192.686   0.100E-11
     TRS4 it   4 1.00000000   0.883E+01       0.013     2213.089   0.100E-11
     TRS4 it   5 1.00000000   0.359E+01       0.013     2173.540   0.100E-11
     TRS4 it   6 1.00000000   0.883E+00       0.013     2186.876   0.100E-11
     TRS4 it   7 1.00000000   0.982E-01       0.013     2173.611   0.100E-11
     TRS4 it   8 1.00000000   0.176E-02       0.013     2184.122   0.100E-11
     TRS4 it   9 1.00000000   0.821E-06       0.013     2180.407   0.100E-11
     TRS4 it  10 1.00000000   0.586E-12       0.013     2193.164   0.100E-11
     Final TRS4 iteration   10 1.00000000   0.586E-12
     Chemical potential (mu):       0.06058
 
 PAO| energy:  -191.46746303976641      penalty:   4.0881075952478374E-004
 PAO|LS| adapt:  T T T
 PAO|LS| adapt: scan_steps:    0.0000000000000000       0.57816066959611911        1.1563213391922382     
 PAO|LS| adapt: energies:   -191.47527904050216       -191.47850931992014       -191.46746303976641     
 PAO|LS| adapt: suggested step_size:   0.41989760221468242     
 PAO|LS| adapt: predicted energy  -191.47904419902733     
 PAO| ======================= Iteration:        26 =============================

     Lanczos converged:  F threshold:   0.100E-02
     Est. extremal eigenvalues:    0.495E+01   0.134E+00
     Est. condition number :    0.369E+02

 Order=           3
     NS sqrt iter    1 1.00000000   0.128E+01       0.021     2675.954
     NS sqrt iter    2 1.00000000   0.647E+00       0.034     3373.039
     NS sqrt iter    3 1.00000000   0.208E+00       0.034     3357.737
     NS sqrt iter    4 1.00000000   0.272E-01       0.034     3303.753
     NS sqrt iter    5 1.00000000   0.131E-03       0.034     3320.439
     NS sqrt iter    6 1.00000000   0.396E-10       0.021     2305.168
     Symmetrizing Results
     Final NS sqrt iter    6 1.00000000   0.224E-11

     Est. extremal eigenvalues     -0.83391     2.57336  converged:  T
     TRS4 it   1 1.00000000   0.284E+02       0.007     2131.157   0.100E-11
     TRS4 it   2 1.00000000   0.233E+02       0.013     2210.945   0.100E-11
     TRS4 it   3 1.00000000   0.154E+02       0.013     2187.853   0.100E-11
     TRS4 it   4 1.00000000   0.886E+01       0.013     2180.296   0.100E-11
     TRS4 it   5 1.00000000   0.362E+01       0.013     2188.725   0.100E-11
     TRS4 it   6 1.00000000   0.896E+00       0.013     2182.437   0.100E-11
     TRS4 it   7 1.00000000   0.101E+00       0.013     2187.951   0.100E-11
     TRS4 it   8 1.00000000   0.187E-02       0.013     2204.493   0.100E-11
     TRS4 it   9 1.00000000   0.934E-06       0.013     2194.739   0.100E-11
     TRS4 it  10 1.00000000   0.730E-12       0.013     2183.958   0.100E-11
     Final TRS4 iteration   10 1.00000000   0.730E-12
     Chemical potential (mu):       0.05961
 
 PAO| energy:  -191.47902832619280      penalty:   4.5293929125612010E-004
 PAO|CG| trace_G_new    1.4325381996001569E-002
 PAO|CG| trace_G_prev    1.7682339731812161E-002
 PAO|CG| trace_G_mix    2.7370741297129988E-004
 PAO|CG| trace_D    3.6254007734478740E-002
 PAO|CG| trace_D_Gnew  -8.3822391098099542E-005
 PAO|CG| beta:   0.79467280892414993     
 PAO| norm of gradient:  0.11968868783640987     
 PAO| energy improvement:  -3.7492856906453653E-003
 PAO| step     26                 -191.479028326  0.234E-03  0.420E+00     1.530
 PAO|LS| adapt:  T F F
 PAO|LS| adapt: scan_steps:    0.0000000000000000        0.0000000000000000        0.0000000000000000     
 PAO|LS| adapt: energies:   -191.47902832619280        0.0000000000000000        0.0000000000000000     
 PAO| ======================= Iteration:        27 =============================

     Lanczos converged:  F threshold:   0.100E-02
     Est. extremal eigenvalues:    0.493E+01   0.134E+00
     Est. condition number :    0.369E+02

 Order=           3
     NS sqrt iter    1 1.00000000   0.127E+01       0.021     2685.424
     NS sqrt iter    2 1.00000000   0.645E+00       0.034     3340.535
     NS sqrt iter    3 1.00000000   0.207E+00       0.034     3344.957
     NS sqrt iter    4 1.00000000   0.270E-01       0.034     3356.549
     NS sqrt iter    5 1.00000000   0.130E-03       0.034     3351.094
     NS sqrt iter    6 1.00000000   0.390E-10       0.021     2293.471
     Symmetrizing Results
     Final NS sqrt iter    6 1.00000000   0.224E-11

     Est. extremal eigenvalues     -0.83392     2.57190  converged:  T
     TRS4 it   1 1.00000000   0.284E+02       0.007     2130.822   0.100E-11
     TRS4 it   2 1.00000000   0.233E+02       0.013     2188.038   0.100E-11
     TRS4 it   3 1.00000000   0.154E+02       0.013     2189.262   0.100E-11
     TRS4 it   4 1.00000000   0.884E+01       0.013     2205.840   0.100E-11
     TRS4 it   5 1.00000000   0.360E+01       0.013     2200.857   0.100E-11
     TRS4 it   6 1.00000000   0.887E+00       0.013     2202.762   0.100E-11
     TRS4 it   7 1.00000000   0.991E-01       0.013     2195.431   0.100E-11
     TRS4 it   8 1.00000000   0.179E-02       0.013     2168.390   0.100E-11
     TRS4 it   9 1.00000000   0.856E-06       0.013     2181.932   0.100E-11
     TRS4 it  10 1.00000000   0.652E-12       0.013     2156.504   0.100E-11
     Final TRS4 iteration   10 1.00000000   0.652E-12
     Chemical potential (mu):       0.06026
 
 PAO| energy:  -191.48193686124071      penalty:   4.1742631329418859E-004
 PAO|LS| adapt:  T T F
 PAO|LS| adapt: scan_steps:    0.0000000000000000       0.41989760221468242        0.0000000000000000     
 PAO|LS| adapt: energies:   -191.47902832619280       -191.48193686124071        0.0000000000000000     
 PAO| ======================= Iteration:        28 =============================

     Lanczos converged:  F threshold:   0.100E-02
     Est. extremal eigenvalues:    0.491E+01   0.133E+00
     Est. condition number :    0.368E+02

 Order=           3
     NS sqrt iter    1 1.00000000   0.127E+01       0.021     2679.667
     NS sqrt iter    2 1.00000000   0.642E+00       0.034     3313.176
     NS sqrt iter    3 1.00000000   0.207E+00       0.034     3362.532
     NS sqrt iter    4 1.00000000   0.269E-01       0.034     3352.192
     NS sqrt iter    5 1.00000000   0.130E-03       0.034     3342.677
     NS sqrt iter    6 1.00000000   0.385E-10       0.021     2279.175
     Symmetrizing Results
     Final NS sqrt iter    6 1.00000000   0.221E-11

     Est. extremal eigenvalues     -0.83393     2.57046  converged:  T
     TRS4 it   1 1.00000000   0.285E+02       0.007     2143.962   0.100E-11
     TRS4 it   2 1.00000000   0.233E+02       0.013     2198.805   0.100E-11
     TRS4 it   3 1.00000000   0.154E+02       0.013     2180.845   0.100E-11
     TRS4 it   4 1.00000000   0.882E+01       0.013     2176.164   0.100E-11
     TRS4 it   5 1.00000000   0.358E+01       0.013     2181.900   0.100E-11
     TRS4 it   6 1.00000000   0.878E+00       0.013     2190.202   0.100E-11
     TRS4 it   7 1.00000000   0.971E-01       0.013     2208.234   0.100E-11
     TRS4 it   8 1.00000000   0.172E-02       0.013     2184.832   0.100E-11
     TRS4 it   9 1.00000000   0.786E-06       0.013     2189.646   0.100E-11
     TRS4 it  10 1.00000000   0.529E-12       0.013     2209.088   0.100E-11
     Final TRS4 iteration   10 1.00000000   0.529E-12
     Chemical potential (mu):       0.06090
 
 PAO| energy:  -191.47851256357848      penalty:   3.8510320902578477E-004
 PAO|LS| adapt:  T T T
 PAO|LS| adapt: scan_steps:    0.0000000000000000       0.41989760221468242       0.83979520442936484     
 PAO|LS| adapt: energies:   -191.47902832619280       -191.48193686124071       -191.47851256357848     
 PAO|LS| adapt: suggested step_size:   0.40279881759645492     
 PAO|LS| adapt: predicted energy  -191.48194211187433     
 PAO| ======================= Iteration:        29 =============================

     Lanczos converged:  F threshold:   0.100E-02
     Est. extremal eigenvalues:    0.493E+01   0.134E+00
     Est. condition number :    0.369E+02

 Order=           3
     NS sqrt iter    1 1.00000000   0.127E+01       0.021     2677.546
     NS sqrt iter    2 1.00000000   0.645E+00       0.034     3365.595
     NS sqrt iter    3 1.00000000   0.207E+00       0.034     3357.984
     NS sqrt iter    4 1.00000000   0.270E-01       0.034     3355.488
     NS sqrt iter    5 1.00000000   0.130E-03       0.034     3338.309
     NS sqrt iter    6 1.00000000   0.390E-10       0.021     2302.816
     Symmetrizing Results
     Final NS sqrt iter    6 1.00000000   0.224E-11

     Est. extremal eigenvalues     -0.83392     2.57196  converged:  T
     TRS4 it   1 1.00000000   0.284E+02       0.007     2142.623   0.100E-11
     TRS4 it   2 1.00000000   0.233E+02       0.013     2171.429   0.100E-11
     TRS4 it   3 1.00000000   0.154E+02       0.013     2155.798   0.100E-11
     TRS4 it   4 1.00000000   0.884E+01       0.013     2183.360   0.100E-11
     TRS4 it   5 1.00000000   0.360E+01       0.013     2193.573   0.100E-11
     TRS4 it   6 1.00000000   0.888E+00       0.013     2198.842   0.100E-11
     TRS4 it   7 1.00000000   0.992E-01       0.013     2215.744   0.100E-11
     TRS4 it   8 1.00000000   0.180E-02       0.013     2181.059   0.100E-11
     TRS4 it   9 1.00000000   0.859E-06       0.013     2206.237   0.100E-11
[...]
     TRS4 it   3 1.00000000   0.155E+02       0.013     2191.907   0.100E-11
     TRS4 it   4 1.00000000   0.917E+01       0.013     2199.236   0.100E-11
     TRS4 it   5 1.00000000   0.407E+01       0.013     2176.612   0.100E-11
     TRS4 it   6 1.00000000   0.124E+01       0.013     2190.630   0.100E-11
     TRS4 it   7 1.00000000   0.207E+00       0.013     2190.161   0.100E-11
     TRS4 it   8 1.00000000   0.845E-02       0.013     2183.524   0.100E-11
     TRS4 it   9 1.00000000   0.208E-04       0.013     2207.385   0.100E-11
     TRS4 it  10 1.00000000   0.395E-09       0.013     2187.954   0.100E-11
     TRS4 it  11 1.00000000   0.213E-13       0.013     2190.620   0.100E-11
     Final TRS4 iteration   11 1.00000000   0.213E-13
     Chemical potential (mu):       0.03177
 
 PAO| energy:  -191.09546942912783      penalty:   1.4962042894822810E-008
 PAO| Writing restart file.
     Est. extremal eigenvalues     -0.83387     2.55194  converged:  T
     TRS4 it   1 1.00000000   0.286E+02       0.007     2175.867   0.100E-11
     TRS4 it   2 1.00000000   0.234E+02       0.013     2179.017   0.100E-11
     TRS4 it   3 1.00000000   0.155E+02       0.013     2189.097   0.100E-11
     TRS4 it   4 1.00000000   0.917E+01       0.013     2171.467   0.100E-11
     TRS4 it   5 1.00000000   0.407E+01       0.013     2193.238   0.100E-11
     TRS4 it   6 1.00000000   0.124E+01       0.013     2178.075   0.100E-11
     TRS4 it   7 1.00000000   0.207E+00       0.013     2198.161   0.100E-11
     TRS4 it   8 1.00000000   0.845E-02       0.013     2210.481   0.100E-11
     TRS4 it   9 1.00000000   0.208E-04       0.013     2174.412   0.100E-11
     TRS4 it  10 1.00000000   0.395E-09       0.013     2177.670   0.100E-11
     TRS4 it  11 1.00000000   0.213E-13       0.013     2157.006   0.100E-11
     Final TRS4 iteration   11 1.00000000   0.213E-13
     Chemical potential (mu):       0.03177

 SCF     1     -1103.044386416     -1103.044386416    1.763621

*********************************************************
 Using MIXING_FRACTION=0.450 to mix KS matrix:  iscf=  2
 KS_nw=0.450*KS + 0.550*KS_old
*********************************************************
     Est. extremal eigenvalues     -0.83387     2.55194  converged:  T
     TRS4 it   1 1.00000000   0.286E+02       0.007     2110.054   0.100E-11
     TRS4 it   2 1.00000000   0.234E+02       0.013     2198.869   0.100E-11
     TRS4 it   3 1.00000000   0.155E+02       0.013     2200.022   0.100E-11
     TRS4 it   4 1.00000000   0.917E+01       0.013     2171.326   0.100E-11
     TRS4 it   5 1.00000000   0.407E+01       0.013     2200.861   0.100E-11
     TRS4 it   6 1.00000000   0.124E+01       0.013     2183.301   0.100E-11
     TRS4 it   7 1.00000000   0.207E+00       0.013     2178.900   0.100E-11
     TRS4 it   8 1.00000000   0.845E-02       0.013     2182.417   0.100E-11
     TRS4 it   9 1.00000000   0.208E-04       0.013     2179.833   0.100E-11
     TRS4 it  10 1.00000000   0.395E-09       0.013     2201.184   0.100E-11
     TRS4 it  11 1.00000000   0.284E-13       0.013     2191.735   0.100E-11
     Final TRS4 iteration   11 1.00000000   0.284E-13
     Chemical potential (mu):       0.03177

 SCF     2     -1103.044386416        -0.000000000    1.773052


 SCF run converged in     2 steps.

 PAO| Storing density matrix for ASPC guess in slot:           1

 ENERGY| Total FORCE_EVAL ( QS ) energy [a.u.]:            -1103.044386415823737

 -------------------------------------------------------------------------------
 -                                                                             -
 -                                DBCSR STATISTICS                             -
 -                                                                             -
 -------------------------------------------------------------------------------
 COUNTER                                    TOTAL       BLAS       SMM       ACC
 flops     5 x     5 x     4             23116800       0.0%    100.0%      0.0%     
 flops    13 x     5 x     4             29818880       0.0%    100.0%      0.0%     
 flops     5 x    13 x     4             29818880       0.0%    100.0%      0.0%     
 flops    13 x    13 x     4             39370240       0.0%    100.0%      0.0%     
 flops     4 x     4 x     5           6468403200       0.0%    100.0%      0.0%     
 flops     5 x     4 x     5           7995392000       0.0%    100.0%      0.0%     
 flops     4 x     4 x    13           8408924160       0.0%    100.0%      0.0%     
 flops    13 x     4 x     5          10394009600       0.0%    100.0%      0.0%     
 flops     5 x     4 x    13          10394009600       0.0%    100.0%      0.0%     
 flops    13 x     4 x    13          13512212480       0.0%    100.0%      0.0%     
 flops     5 x     4 x     4         404292716480       0.0%    100.0%      0.0%     
 flops    13 x     4 x     4         533775011328       0.0%    100.0%      0.0%     
 flops     4 x     4 x     4       29815127933696       0.0%    100.0%      0.0%     
 flops inhomo. stacks                           0       0.0%      0.0%      0.0%
 flops total                        30.810491E+12       0.0%    100.0%      0.0%
 flops max/rank                    972.423488E+09       0.0%    100.0%      0.0%
 matmuls inhomo. stacks                         0       0.0%      0.0%      0.0%
 matmuls total                       236891478300       0.0%    100.0%      0.0%
 number of processed stacks             241974533       0.0%    100.0%      0.0%
 average stack size                                     0.0     979.0       0.0
 marketing flops                    53.015029E+12
 -------------------------------------------------------------------------------
 # multiplications                          49705
 max memory usage/rank             617.779200E+06
 # max total images/rank                        2
 # max 3D layers                                1
 # MPI messages exchanged                20677280
 MPI messages size (bytes):
  total size                         2.463128E+12
  min size                           0.000000E+00
  max size                         541.696000E+03
  average size                     119.122430E+03
 MPI breakdown and total messages size (bytes):
             size <=      128              888114                    18816
       128 < size <=     8192              329328               1168532352
      8192 < size <=    32768               24897                549953280
     32768 < size <=   131072             8640535             635261912960
    131072 < size <=  4194304            10794406            1826562904320
   4194304 < size <= 16777216                   0                        0
  16777216 < size                               0                        0
 -------------------------------------------------------------------------------

 *** WARNING in dbcsr_mm.F:301 :: Using a non-square number of MPI ranks ***
 *** might lead to poor performance. Used ranks: 32 Suggested: 36 64     ***

 -------------------------------------------------------------------------------
 -                                                                             -
 -                      DBCSR MESSAGE PASSING PERFORMANCE                      -
 -                                                                             -
 -------------------------------------------------------------------------------
 ROUTINE             CALLS      AVE VOLUME [Bytes]
 MP_Bcast               14                     12.
 MP_Allreduce       298803                     37.
 MP_Alltoall        128475                  14626.
 MP_ISend          1662872                  55469.
 MP_IRecv          1626714                  56770.
 -------------------------------------------------------------------------------

 -------------------------------------------------------------------------------
 -                                                                             -
 -                                DBM STATISTICS                               -
 -                                                                             -
 -------------------------------------------------------------------------------
    M  x    N  x    K                                          COUNT     PERCENT
 -------------------------------------------------------------------------------

 -------------------------------------------------------------------------------
 -                                                                             -
 -                                GRID STATISTICS                              -
 -                                                                             -
 -------------------------------------------------------------------------------
 LP    KERNEL             BACKEND                              COUNT     PERCENT
 2     collocate ortho    CPU                               11479328      28.83%
 2     integrate ortho    CPU                               11479328      28.83%
 3     collocate ortho    CPU                                7375844      18.53%
 3     integrate ortho    CPU                                7375844      18.53%
 4     collocate ortho    CPU                                1049454       2.64%
 4     integrate ortho    CPU                                1049454       2.64%
 0     collocate general  CPU                                   6144       0.02%
 -------------------------------------------------------------------------------

 MEMORY| Estimated peak process memory [MiB]                                 590

 -------------------------------------------------------------------------------
 -                                                                             -
 -                         MESSAGE PASSING PERFORMANCE                         -
 -                                                                             -
 -------------------------------------------------------------------------------

 ROUTINE             CALLS      AVE VOLUME [Bytes]
 MP_Group                5
 MP_Bcast           406524                   1846.
 MP_Allreduce      1009877                    514.
 MP_Sync                 5
 MP_Alltoall           369                6361946.
 MP_SendRecv          1302                  18832.
 MP_ISendRecv         1302                  18832.
 MP_Wait              3696
 MP_ISend             2166                 108220.
 MP_IRecv             2166                 108236.
 -------------------------------------------------------------------------------


 -------------------------------------------------------------------------------
 -                                                                             -
 -                           R E F E R E N C E S                               -
 -                                                                             -
 -------------------------------------------------------------------------------
 
 CP2K version 2024.3 (Development Version), the CP2K developers group (2024).
 CP2K is freely available from https://www.cp2k.org/ .
 
 T. D. Kuehne, M. Iannuzzi, M. Del Ben, V. V. Rybkin, P. Seewald, F. Stein, T. 
 Laino, R. Z. Khaliullin, O. Schuett, F. Schiffmann, D. Golze, J. Wilhelm, S. 
 Chulkov, M. H. Bani-Hashemian, V. Weber, U. Borstnik, M. Taillefumier, A. S. 
 Jakobovits, A. Lazzaro, H. Pabst, T. Mueller, R. Schade, M. Guidon, S. 
 Andermatt, N. Holmberg, G. K. Schenter, A. Hehn, A. Bussy, F. Belleflamme, G. 
 Tabacchi, A. Gloess, M. Lass, I. Bethune, C. J. Mundy, C. Plessl, M. Watkins, 
 J. VandeVondele, M. Krack, J. Hutter.
 J. Chem. Phys. 152, 194103 (2020).
 CP2K: An electronic structure and molecular dynamics software package - 
 Quickstep: Efficient and accurate electronic structure calculations.
 https://doi.org/10.1063/5.0007045

 O. Schuett, J. VandeVondele.
 J. Chem. Theory Comput. 14, 4168-4175 (2018).
 Machine Learning Adaptive Basis Sets for Efficient Large Scale Density 
 Functional Theory Simulation.
 https://doi.org/10.1021/acs.jctc.8b00378

 O. Schuett, P. Messmer, J. Hutter, J. VandeVondele.
 Electronic Structure Calculations on Graphics Processing Units, 173-190 (2016).
 GPU-Accelerated Sparse Matrix-Matrix Multiplication for Linear Scaling Density 
 Functional Theory.
 https://doi.org/10.1002/9781118670712.ch8

 A. Heinecke, G. Henry, M. Hutchinson, H. Pabst.
 Proceedings of Intl. Supercomputing Conference, 981-991 (2016).
 LIBXSMM: Accelerating Small Matrix Multiplications by Runtime Code Generation.
 https://doi.org/10.1109/SC.2016.83

 J. Hutter, M. Iannuzzi, F. Schiffmann, J. VandeVondele.
 WIREs Comput Mol Sci. 4, 15-25 (2014).
 CP2K: atomistic simulations of condensed matter systems.
 https://doi.org/10.1002/wcms.1159

 U. Borstnik, J. VandeVondele, V. Weber, J. Hutter.
 Parallel Comput. 40, 47-58 (2014).
 Sparse matrix multiplication: The distributed block-compressed sparse row 
 library.
 https://doi.org/10.1016/j.parco.2014.03.012

 A. Marek, V. Blum, R. Johanni, V. Havu, B. Lang, T. Auckenthaler, A. Heinecke, 
 H. Bungartz, H. Lederer.
 J. Phys. Condens. Matter 26, 213201 (2014).
 The ELPA library: scalable parallel eigenvalue solutions for electronic 
 structure theory and computational science.
 https://doi.org/10.1088/0953-8984/26/21/213201

 J. VandeVondele, U. Borstnik, J. Hutter.
 J. Chem. Theory Comput. 8, 3565-3573 (2012).
 Linear Scaling Self-Consistent Field Calculations with Millions of Atoms in the 
 Condensed Phase.
 https://doi.org/10.1021/ct200897x

 J. VandeVondele, J. Hutter.
 J. Chem. Phys. 127, 114105 (2007).
 Gaussian basis sets for accurate calculations on molecular systems in gas and 
 condensed phases.
 https://doi.org/10.1063/1.2770708

 J. VandeVondele, M. Krack, F. Mohamed, M. Parrinello, T. Chassaing, J. Hutter.
 Comput. Phys. Commun. 167, 103-128 (2005).
 QUICKSTEP: Fast and accurate density functional calculations using a mixed 
 Gaussian and plane waves approach.
 https://doi.org/10.1016/j.cpc.2004.12.014

 M. Krack.
 Theor. Chem. Acc. 114, 145-152 (2005).
 Pseudopotentials for H to Kr optimized for gradient-corrected 
 exchange-correlation functionals.
 https://doi.org/10.1007/s00214-005-0655-y

 M. Frigo, S. G. Johnson.
 Proc. IEEE 93, 216-231 (2005).
 The design and implementation of FFTW3.
 https://doi.org/10.1109/JPROC.2004.840301

 A. M. N. Niklasson, C. J. Tymczak, M. Challacombe.
 J. Chem. Phys. 118, 8611-8620 (2003).
 Trace resetting density matrix purification in O(N) self-consistent-field 
 theory.
 https://doi.org/10.1063/1.1559913

 C. Hartwigsen, S. Goedecker, J. Hutter.
 Phys. Rev. B 58, 3641-3662 (1998).
 Relativistic separable dual-space Gaussian pseudopotentials from H to Rn.
 https://doi.org/10.1103/PhysRevB.58.3641

 G. Lippert, J. Hutter, M. Parrinello.
 Mol. Phys. 92, 477-487 (1997).
 A hybrid Gaussian and plane wave density functional scheme.
 https://doi.org/10.1080/002689797170220

 S. Goedecker, M. Teter, J. Hutter.
 Phys. Rev. B 54, 1703-1710 (1996).
 Separable dual-space Gaussian pseudopotentials.
 https://doi.org/10.1103/PhysRevB.54.1703

 J. P. Perdew, K. Burke, M. Ernzerhof.
 Phys. Rev. Lett. 77, 3865-3868 (1996).
 Generalized gradient approximation made simple.
 https://doi.org/10.1103/PhysRevLett.77.3865


 -------------------------------------------------------------------------------
 -                                                                             -
 -                                T I M I N G                                  -
 -                                                                             -
 -------------------------------------------------------------------------------
 SUBROUTINE                       CALLS  ASD         SELF TIME        TOTAL TIME
                                MAXIMUM       AVERAGE  MAXIMUM  AVERAGE  MAXIMUM
 CP2K                                 1  1.0    0.012    0.015  451.195  451.196
 qs_energies                          1  2.0    0.000    0.000  451.029  451.030
 ls_scf                               1  3.0    0.000    0.000  449.985  449.986
 pao_update                           6  4.0    0.006    0.024  423.740  423.741
 pao_calc_energy                    813  5.0    0.003    0.019  380.701  380.706
 dbcsr_multiply_generic           49705  8.4    1.383    1.471  348.517  348.819
 multiply_cannon                  49705  9.4    2.562    2.926  281.017  286.073
 multiply_cannon_loop             49705 10.4    1.831    2.048  270.472  275.136
 ls_scf_init_matrix_S               819  7.0    0.008    0.009  214.990  215.071
 pao_rebuild_S                      813  6.0    0.002    0.003  213.408  213.488
 matrix_sqrt_Newton_Schulz          819  8.0    0.170    0.278  199.734  199.767
 multiply_cannon_multrec         397640 11.4  177.242  178.981  178.055  179.775
 pao_dm_trs4                        813  6.0    0.006    0.006  166.905  166.938
 density_matrix_trs4                826  7.0    0.212    0.352  160.826  160.915
 mp_waitall_1                   3182650 12.6   89.531   96.742   89.531   96.742
 multiply_cannon_metrocomm3      397640 11.4    0.695    0.749   71.487   76.585
 arnoldi_extremal                  1645  8.5    0.013    0.015   67.448   67.485
 arnoldi_normal_ev                 1645  9.5    0.039    0.067   67.431   67.468
 build_subspace                    6569 10.6    0.399    0.430   59.195   59.238
 dbcsr_matrix_vector_mult        200360 11.6    0.857    1.290   55.435   56.096
 make_m2s                         99410  9.4    0.553    0.731   51.414   52.626
 make_images                      99410 10.4    7.326    7.514   50.043   51.084
 dbcsr_matrix_vector_mult_local  200360 12.6   47.147   47.916   47.371   48.138
 pao_calc_AB                       1079  5.8    0.002    0.002   42.576   42.578
 pao_calc_AB_equi                  1079  6.8    0.040    0.099   42.575   42.577
 pao_calc_grad_lnv_wrt_AB           265  7.0    0.020    0.023   42.152   42.211
 make_images_data                 99410 11.4    0.870    1.109   22.110   24.522
 ls_scf_main                          6  4.0    0.000    0.001   22.968   22.969
 hybrid_alltoall_any             101044 12.4    0.909    1.925   17.299   21.334
 ls_scf_dm_to_ks                     13  5.0    0.000    0.000   20.239   20.242
 mp_sum_l                        202993  9.5    8.578   18.652    8.578   18.652
 matrix_qs_to_ls                   1645  7.5    0.016    0.021   17.229   17.469
 dbcsr_multiply_generic_mpsum_f   36410  9.5    0.027    0.033    5.144   13.067
 calculate_norms                 742192 11.4   11.511   12.286   11.511   12.286
 qs_ks_update_qs_env                 14  6.0    0.000    0.000   12.137   12.139
 rebuild_ks_matrix                   14  7.0    0.000    0.000   12.127   12.129
 qs_ks_build_kohn_sham_matrix        14  8.0    0.002    0.003   12.127   12.129
 make_images_pack                 99410 11.4   11.000   11.314   11.135   11.450
 qs_rho_update_rho_low               14  6.0    0.000    0.000    9.574    9.576
 calculate_rho_elec                  14  7.0    0.005    0.005    9.574    9.576
 sum_up_and_integrate                14  9.0    0.000    0.000    9.160    9.162
 integrate_v_rspace                  14 10.0    0.000    0.000    9.147    9.149
 -------------------------------------------------------------------------------

 The number of warnings for this run is : 1
 
 -------------------------------------------------------------------------------
  **** **** ******  **  PROGRAM ENDED AT                 2024-09-23 23:53:25.193
 ***** ** ***  *** **   PROGRAM RAN ON                                    moritz
 **    ****   ******    PROGRAM RAN BY                                       ole
 ***** **    ** ** **   PROGRAM PROCESS ID                                164526
  **** **  *******  **  PROGRAM STOPPED IN /home/ole/git/pao_ml_equivar/64H2O_MD
                                           /Frame1200
