     192
 i =     1200, time =     1800.000, E =     -1100.0628520886
  O         5.3542914211       -5.0075057070        4.6893165564
  H         6.2467821719       -5.4892610206        4.6294233331
  H         5.2168926903       -4.7700517495        5.6733960346
  O        -4.8214183286        2.5563680807        4.2763279981
  H        -4.4394284358        1.7753536070        3.7267675751
  H        -4.6012387411        2.2060078631        5.1941996739
  O         3.9759458933        2.5475315623        4.4338972456
  H         3.4329340910        3.1330758349        5.0322784482
  H         4.1387490366        3.0963973546        3.6469027825
  O        -2.6299343541        0.0219458379       -4.2973253271
  H        -2.2140441275        0.4624103637       -3.5262127198
  H        -1.8793943965       -0.4968458800       -4.6566206234
  O        -3.7928526805        4.7800944235        5.8851296626
  H        -4.0071721896        3.9705468254        5.3989956024
  H        -3.6661491037        5.4974561868        5.2847399287
  O         8.7524204649        0.4928333275        2.9148917216
  H         8.1020031740       -0.2430936297        2.8774129621
  H         8.7272648168        0.8634857525        2.0236464047
  O         4.1788912356       -4.9977317776       -0.1670944995
  H         3.8663393651       -4.2727181060        0.3694344719
  H         4.4210270390       -4.5633190225       -1.0370358844
  O        -1.9569084511       -3.2190799174       -1.3545576141
  H        -2.5322105520       -2.9507184178       -2.0630247213
  H        -1.8779474372       -2.4888744408       -0.7353949461
  O         5.1577498257       -2.8418383434        3.2279539960
  H         5.1605628517       -3.6941507899        3.6980051401
  H         4.5679567691       -2.7647645237        2.4537984408
  O         2.7833922867        5.0110592836        6.1987860495
  H         2.1200408414        4.2928728913        6.2700442808
  H         3.1516458467        5.2650448030        7.0777941940
  O         4.8926697723       -3.6180749880       -2.4970418425
  H         4.6243940768       -3.7655714563       -3.4210032119
  H         5.5519996137       -2.9355650077       -2.5099802665
  O         3.0723051800       -2.7227535123        1.0041006663
  H         2.1369208444       -3.0392217192        0.9960183193
  H         3.1350188380       -2.1438458755        0.2630139782
  O         1.9330608299       -4.5345125969       -5.1548355072
  H         2.3043539249       -5.2729370276       -4.5776977082
  H         1.4366940208       -4.8410965023       -5.9350179915
  O         5.6081696191        4.8647058028       -2.9173219125
  H         5.5979862595        3.9516281041       -2.7343499403
  H         5.9818194616        5.3313091011       -2.1309104190
  O         2.7934399329       -0.7887612400        4.6850632150
  H         3.6239814246       -1.1737811426        4.4748573348
  H         2.4961106357       -0.3606843141        3.8155280325
  O         1.1919766851        2.8980246733        5.6606352716
  H         1.3790300915        2.0077097370        5.9636563088
  H         0.6739016612        2.7055166900        4.8261724861
  O        -0.9773401415       -3.3258848629        2.9566585973
  H        -0.3822465342       -3.3399693494        2.1620088396
  H        -0.4939514634       -4.0084632980        3.4893992968
  O        -2.2395150938        3.4662790135        2.3158178983
  H        -1.5053032316        2.9191609953        2.6842942021
  H        -3.0411139560        3.4888792921        2.8761824327
  O         1.3333226673        0.3265157440       -5.8069352497
  H         2.0550106047       -0.1634210512       -6.2334517880
  H         1.7453354775        0.4843917564       -4.9339749012
  O        -0.9007195549       -1.2931786440        0.5138361372
  H        -1.1286925060       -0.8376263274        1.3403086968
  H        -0.2412588071       -1.9901029237        0.7137793477
  O        -3.7396390299        3.3461006014       -2.5032720047
  H        -3.6988644667        4.3666146274       -2.5464077542
  H        -2.7915306873        3.1576080679       -2.3445570511
  O         4.3480502618        4.3550531744        2.3479309015
  H         4.1316538001        4.0648128726        1.4152123739
  H         3.6918610173        4.9941810258        2.5518363360
  O         5.5548624159        0.2599464989       -3.4615948491
  H         5.8562699214       -0.1753646027       -4.3466198558
  H         5.8279311399       -0.4362711922       -2.7505800627
  O        -3.8701822106        6.1504496003       -2.6931953951
  H        -4.3770606892        6.5247227687       -1.9441906851
  H        -4.4917189630        6.1909326474       -3.4519843198
  O         6.2148085345        0.3036783883        0.4590520536
  H         6.5132942184       -0.2338918658        1.1790879786
  H         5.2496485959        0.2116530547        0.2634285855
  O         3.5794318033        0.5231407768       -0.3272159784
  H         3.7604182884        1.4714978912       -0.4955785304
  H         3.2534917964        0.2961202931       -1.2310037868
  O        -5.8433941246       -6.1378134478       -0.6561573694
  H        -5.5897703155       -6.7544174259        0.0535303894
  H        -6.8262447134       -5.8363970118       -0.3427662737
  O        -5.7572683844        4.7173566378        1.4076420158
  H        -6.6183809847        4.5731175404        1.8618855902
  H        -5.3459010005        3.8164660090        1.3151867725
  O         5.4038914632        0.6207529731       -6.9326985231
  H         6.1059647348        1.2702046379       -6.7687124917
  H         4.8066776507        1.2391709497       -7.3956216653
  O         2.5752735693       -2.0842139992       -1.7551897539
  H         3.2676401772       -2.3475728643       -2.3517840442
  H         1.7789138263       -2.2786021156       -2.2530721678
  O         4.1366712980        3.2107315921       -0.3140819768
  H         4.9873508217        3.1646129620       -0.8726875410
  H         3.5604167734        3.9269596865       -0.5831504059
  O        -1.1185004565       -0.4520805500        3.6121330039
  H        -0.9039088259       -1.3328346651        3.9944807806
  H        -2.0570126896       -0.3558708356        3.4243900978
  O         1.3013987113       -5.8333304870        1.8958967345
  H         1.7169294406       -6.2786307967        1.1090846723
  H         1.9977585045       -5.9948671277        2.6296208728
  O         0.1595574825       -3.2656722913       -3.4169371398
  H        -0.4997766143       -3.9821442499       -3.4903003868
  H         0.9536915584       -3.7357104614       -3.7911600214
  O        -4.3219136324        2.3306375504        0.8353116586
  H        -3.5043413851        2.7126466594        0.5083574689
  H        -4.8427152519        2.0869696990        0.0809131309
  O         4.5957919110       -3.6745035356       -5.1430880005
  H         3.6335667163       -3.5979743172       -5.3616653078
  H         5.0111492361       -2.7580368412       -5.4094866798
  O        -0.9548177869        3.0272431564       -2.5873470985
  H        -1.1354872365        3.1740244934       -3.5263403303
  H        -0.6405049113        3.9109890660       -2.2644875425
  O        -4.5713024895       -6.3126130074        3.6988982836
  H        -4.2611292947       -5.4741235134        3.3801947343
  H        -5.0328224945       -6.8110322066        2.9600031188
  O         2.9329245319        6.2556668390        3.8297334714
  H         3.8298172473        6.6006157215        4.0410351691
  H         2.6827809196        5.8664867137        4.6999899182
  O        -4.3035410619        1.7796202348       -5.6480678420
  H        -3.7027435621        1.1044163170       -5.3782135742
  H        -4.5425293505        2.2464918655       -4.7974241627
  O         2.1784197479        0.8581896012        2.2173171436
  H         2.6290026023        0.7108111179        1.4051541500
  H         2.9027294270        1.2582976092        2.7079662837
  O        -5.2192315216       -1.3934774686        2.5086465976
  H        -5.9624201198       -1.6324503995        3.0780155664
  H        -4.6928815509       -2.1822458863        2.3748017265
  O        -0.0780586304        2.0782508679        3.3309540831
  H         0.7554027173        2.0127993994        2.8203167399
  H        -0.4234358369        1.2055451110        3.5615443825
  O        -2.0921576851        4.9299063611       -0.2145883892
  H        -2.0672414866        4.4653297839        0.6167103168
  H        -2.5878322396        5.7395045637       -0.0580763978
  O        -0.7444325345       -1.6059238652       -5.3750327332
  H        -0.3113786390       -2.0569204924       -4.6217515630
  H        -0.0487129535       -1.0329330553       -5.8293383078
  O        -6.1786387922        2.6689346805       -1.7543364059
  H        -5.3123605642        3.0185665411       -2.1701878041
  H        -6.2600899465        1.7014780565       -2.0751201954
  O         6.5177549063       -1.5087896618       -1.6609425706
  H         7.4311292553       -1.7071873981       -1.9290623933
  H         6.5260181560       -0.9030707578       -0.9217745255
  O        -1.7156027854        0.5960213825       -1.6833938135
  H        -1.2484102792        1.4179580774       -1.8409781412
  H        -1.1708143781        0.0233194018       -1.0932182091
  O        -0.0019718293        5.5216086403       -1.7659521018
  H        -0.4774916653        6.1563552745       -2.3233638843
  H        -0.5557237139        5.3246495380       -1.0229066931
  O         5.8161665139       -1.5259158034        6.9886861541
  H         6.6178158359       -1.9895106541        6.6658798225
  H         5.5124931393       -0.7794805081        6.3644203652
  O        -1.3121650496       -5.8095270019       -3.7318692370
  H        -1.2348120579       -6.6264133070       -4.3126764371
  H        -2.2471210768       -5.8159231146       -3.5471694536
  O        -3.8059137594       -2.0603421533       -3.0801571213
  H        -4.3535685656       -2.5165033280       -3.7868636322
  H        -3.3386191390       -1.3365595003       -3.5612539329
  O         2.4269292992        5.3962144645       -0.3647750999
  H         1.6275730244        5.6373593623       -0.9312527723
  H         3.0456457507        6.1699780361       -0.4451482813
  O        -4.5704859032       -3.4448220417       -5.4242832920
  H        -3.6768944220       -3.6796263339       -5.8153956952
  H        -5.1051877336       -4.2568649521       -5.3302813495
  O        -0.8839823279        5.6035448492        3.2605917604
  H        -1.3145840343        4.8340352555        2.7888720252
  H        -0.0612032698        5.7138402367        2.7481985062
  O        -1.8551180037       -4.1392642628       -6.0280382814
  H        -1.8034161792       -4.7005384939       -5.2367614919
  H        -1.5412709834       -3.2775683593       -5.7984671410
  O        -3.8591268309       -3.7764569686        2.5116672094
  H        -2.9093996289       -3.5427448864        2.7961537377
  H        -3.7507668092       -4.0881346522        1.5806350440
  O         3.0921999315        5.8784836895       -3.5015026972
  H         3.9788735985        5.7540326300       -3.1854231050
  H         2.5925833869        5.1165717811       -3.1440740726
  O         2.7702528799        0.3628795899       -3.2483719054
  H         2.5850137569       -0.4406875786       -2.7730448817
  H         3.7508516410        0.2301049971       -3.4154962933
  O        -1.3688687628        4.4062433987        7.2623619238
  H        -0.8705511615        3.9424187851        6.5998891136
  H        -2.2287345274        4.5107417227        6.7902655442
  O         0.4459007218       -3.7757625709        0.5445148591
  H         0.7037051170       -4.6247134021        1.0120819814
  H        -0.1788946965       -4.1005582100       -0.1627681203
  O         7.0165088195        6.1653502246        7.6126002608
  H         6.2270186950        5.7817570472        8.0308109389
  H         7.4653813376        5.4465473559        7.1188650063
  O         0.1450698122       -5.2189759964        5.2071521308
  H         0.0246209981       -5.9241505222        4.5710592207
  H        -0.7675247569       -4.9535683861        5.4056316935
  O        -3.3574632964       -4.9455736598        0.0837206556
  H        -4.2403611211       -5.1756846045       -0.2730153889
  H        -2.8863288211       -4.4833379190       -0.5766645341
