 DBCSR| CPU Multiplication driver                                           XSMM (U)
 DBCSR| Multrec recursion limit                                              512 (U)
 DBCSR| Multiplication stack size                                           1000 (D)
 DBCSR| Maximum elements for images                                    UNLIMITED (U)
 DBCSR| Multiplicative factor virtual images                                   1 (U)
 DBCSR| Use multiplication densification                                       T (D)
 DBCSR| Multiplication size stacks                                             3 (U)
 DBCSR| Use memory pool for CPU allocation                                     F (U)
 DBCSR| Number of 3D layers                                               SINGLE (U)
 DBCSR| Use MPI memory allocation                                              F (U)
 DBCSR| Use RMA algorithm                                                      F (U)
 DBCSR| Use Communication thread                                               T (U)
 DBCSR| Communication thread load                                             87 (D)
 DBCSR| MPI: My process id                                                     0
 DBCSR| MPI: Number of processes                                              32
 DBCSR| OMP: Current number of threads                                         1
 DBCSR| OMP: Max number of threads                                             1
 DBCSR| Split modifier for TAS multiplication algorithm                  1.0E+00 (U)


  **** **** ******  **  PROGRAM STARTED AT               2024-09-23 17:53:46.487
 ***** ** ***  *** **   PROGRAM STARTED ON                                moritz
 **    ****   ******    PROGRAM STARTED BY                                   ole
 ***** **    ** ** **   PROGRAM PROCESS ID                                161392
  **** **  *******  **  PROGRAM STARTED IN /home/ole/git/pao_ml_equivar/64H2O_MD
                                           /Frame6800

 CP2K| version string:                 CP2K version 2024.3 (Development Version)
 CP2K| source code revision number:                                  git:3f890bb
 CP2K| cp2kflags: omp libint fftw3 libxc libgrpp pexsi elpa parallel scalapack c
 CP2K|            osma quip deepmd xsmm plumed2 spglib libdftd4 sirius libvori l
 CP2K|            libbqb libvdwxc hdf5
 CP2K| is freely available from                            https://www.cp2k.org/
 CP2K| Program compiled at                          Mo 23 Sep 2024 17:17:04 CEST
 CP2K| Program compiled on                                                moritz
 CP2K| Program compiled for                                                local
 CP2K| Data directory path                               /home/ole/git/cp2k/data
 CP2K| Input file name                                             64H2O_ref.inp

 GLOBAL| Force Environment number                                              1
 GLOBAL| Basis set file name                                        BASIS_MOLOPT
 GLOBAL| Potential file name                                      GTH_POTENTIALS
 GLOBAL| MM Potential file name                                     MM_POTENTIAL
 GLOBAL| Coordinate file name                                         coords.xyz
 GLOBAL| Method name                                                        CP2K
 GLOBAL| Project name                                                  64H2O_ref
 GLOBAL| Run type                                                         ENERGY
 GLOBAL| FFT library                                                       FFTW3
 GLOBAL| Diagonalization library                                            ELPA
 GLOBAL| DGEMM library                                                      BLAS
 GLOBAL| Minimum number of eigenvectors for ELPA usage                        16
 GLOBAL| Orthonormality check for eigenvectors                          DISABLED
 GLOBAL| Matrix multiplication library                                     COSMA
 GLOBAL| All-to-all communication in single precision                          F
 GLOBAL| FFTs using library dependent lengths                                  F
 GLOBAL| Grid backend                                                       AUTO
 GLOBAL| Global print level                                                  LOW
 GLOBAL| MPI I/O enabled                                                       T
 GLOBAL| Total number of message passing processes                            32
 GLOBAL| Number of threads for this process                                    1
 GLOBAL| This output is from process                                           0
 GLOBAL| Stack size for threads created by OpenMP (OMP_STACKSIZE)        default
 GLOBAL| CPU model name           AMD Ryzen Threadripper 3970X 32-Core Processor
 GLOBAL| CPUID                                                              1002

 MEMORY| system memory details [Kb]
 MEMORY|                        rank 0           min           max       average
 MEMORY| MemTotal            131752136     131752136     131752136     131752136
 MEMORY| MemFree             117512400     117512400     117512400     117512400
 MEMORY| Buffers                261172        261172        261172        261172
 MEMORY| Cached                7874880       7874880       7874880       7874880
 MEMORY| Slab                   735880        735880        735880        735880
 MEMORY| SReclaimable           292876        292876        292876        292876
 MEMORY| MemLikelyFree       125941328     125941328     125941328     125941328


 GENERATE|  Preliminary Number of Bonds generated:                             0
 GENERATE|  Achieved consistency in connectivity generation.

 *******************************************************************************
 *******************************************************************************
 **                                                                           **
 **     #####                         ##              ##                      **
 **    ##   ##            ##          ##              ##                      **
 **   ##     ##                       ##            ######                    **
 **   ##     ##  ##   ##  ##   #####  ##  ##   ####   ##    #####    #####    **
 **   ##     ##  ##   ##  ##  ##      ## ##   ##      ##   ##   ##  ##   ##   **
 **   ##  ## ##  ##   ##  ##  ##      ####     ###    ##   ######   ######    **
 **    ##  ###   ##   ##  ##  ##      ## ##      ##   ##   ##       ##        **
 **     #######   #####   ##   #####  ##  ##  ####    ##    #####   ##        **
 **           ##                                                    ##        **
 **                                                                           **
 **                                                ... make the atoms dance   **
 **                                                                           **
 **            Copyright (C) by CP2K developers group (2000-2024)             **
 **                      J. Chem. Phys. 152, 194103 (2020)                    **
 **                                                                           **
 *******************************************************************************


 TOTAL NUMBERS AND MAXIMUM NUMBERS

  Total number of            - Atomic kinds:                                   2
                             - Atoms:                                        192
                             - Shell sets:                                   192
                             - Shells:                                       704
                             - Primitive Cartesian functions:               1344
                             - Cartesian basis functions:                   1536
                             - Spherical basis functions:                   1472

  Maximum angular momentum of- Orbital basis functions:                        2
                             - Local part of the GTH pseudopotential:          2
                             - Non-local part of the GTH pseudopotential:      0

 ------------------------------ Linear scaling SCF -----------------------------
 eps_scf:                                                              0.100E-07
 eps_filter:                                                           0.100E-11
 mixing_fraction:                                                      0.450E+00
 max_scf:                                                                     25
 fixed chemical potential (mu)                                                 F
 has unit metric:                                                              F
 Computing inv(S):                                                             T
 Computing sqrt(S):                                                            T
 Computing S preconditioner                                                    F
 S sqrt method:                                                     NEWTONSCHULZ
 S sqrt order:                                                                 3
 Extrapolation order:                                                          1
 S preconditioner type                                                      NONE
 Polarized Atomic Orbitals (PAO)                                               F
 Purification method                                   Trace resetting 4th order
 Cluster type                                                             ATOMIC
 Computing Chebyshev                                                       FALSE
 Using PAO                                                                     F
 -------------------------------------------------------------------------------


     Lanczos converged:  F threshold:   0.100E-02
     Est. extremal eigenvalues:    0.861E+01   0.598E-02
     Est. condition number :    0.144E+04

 Order=           3
     NS sqrt iter    1 1.00000000   0.222E+01       0.065     6159.479
     NS sqrt iter    2 1.00000000   0.117E+01       0.098     8114.342
     NS sqrt iter    3 1.00000000   0.578E+00       0.099     8056.627
     NS sqrt iter    4 1.00000000   0.333E+00       0.097     8224.560
     NS sqrt iter    5 1.00000000   0.225E+00       0.098     8097.641
     NS sqrt iter    6 1.00000000   0.105E+00       0.099     8039.127
     NS sqrt iter    7 1.00000000   0.131E-01       0.097     8232.318
     NS sqrt iter    8 1.00000000   0.649E-04       0.098     8101.245
     NS sqrt iter    9 1.00000000   0.342E-10       0.059     5788.647
     Symmetrizing Results
     Final NS sqrt iter    9 1.00000000   0.723E-11



 Guess for atomic kind: O

 Electronic structure
    Total number of core electrons                                          2.00
    Total number of valence electrons                                       6.00
    Total number of electrons                                               8.00
    Multiplicity                                                   not specified
    S   [  2.00] 2.00
    P      4.00


 *******************************************************************************
                  Iteration          Convergence                     Energy [au]
 *******************************************************************************
                          1        0.708315                     -15.576645311500
                          2        0.608879                     -15.587933561584
                          3        0.102828E-01                 -15.656849565404
                          4        0.113889E-02                 -15.656866888140
                          5        0.434197E-03                 -15.656867072159
                          6        0.263771E-03                 -15.656867091904
                          7        0.478536E-06                 -15.656867103452

 Energy components [Hartree]           Total Energy ::          -15.656867103452
                                        Band Energy ::           -3.000198112285
                                     Kinetic Energy ::           11.759971203220
                                   Potential Energy ::          -27.416838306672
                                      Virial (-V/T) ::            2.331369510426
                                        Core Energy ::          -26.140716385623
                                          XC Energy ::           -3.154051012914
                                     Coulomb Energy ::           13.637900295084
                       Total Pseudopotential Energy ::          -37.935781716540
                       Local Pseudopotential Energy ::          -39.218907440693
                    Nonlocal Pseudopotential Energy ::            1.283125724153
                                        Confinement ::            0.350941276976

 Orbital energies  State     L     Occupation   Energy[a.u.]          Energy[eV]

                       1     0          2.000      -0.864471          -23.523463

                       1     1          4.000      -0.317814           -8.648154


 Total Electron Density at R=0:                                         0.000068

 Guess for atomic kind: H

 Electronic structure
    Total number of core electrons                                          0.00
    Total number of valence electrons                                       1.00
    Total number of electrons                                               1.00
    Multiplicity                                                   not specified
    S      1.00


 *******************************************************************************
                  Iteration          Convergence                     Energy [au]
 *******************************************************************************
                          1        0.437545E-02                  -0.424159432110
                          2        0.531356E-03                  -0.424178438213
                          3        0.259176E-06                  -0.424178722480

 Energy components [Hartree]           Total Energy ::           -0.424178722480
                                        Band Energy ::           -0.199015229016
                                     Kinetic Energy ::            0.464007633961
                                   Potential Energy ::           -0.888186356441
                                      Virial (-V/T) ::            1.914163240935
                                        Core Energy ::           -0.479160803564
                                          XC Energy ::           -0.244352904054
                                     Coulomb Energy ::            0.299334985138
                       Total Pseudopotential Energy ::           -0.962295316385
                       Local Pseudopotential Energy ::           -0.962295316385
                    Nonlocal Pseudopotential Energy ::            0.000000000000
                                        Confinement ::            0.191268788606

 Orbital energies  State     L     Occupation   Energy[a.u.]          Energy[eV]

                       1     0          1.000      -0.199015           -5.415480


 Total Electron Density at R=0:                                         0.242907
 Re-scaling the density matrix to get the right number of electrons
                  # Electrons              Trace(P)               Scaling factor
                          512               512.001                        1.000
 Energy with the initial guess:     -1095.649582739

     Est. extremal eigenvalues     -0.94215     5.19682  converged:  F
     TRS4 it   1 1.00000000   0.566E+02       0.019     5369.690   0.100E-11
     TRS4 it   2 1.00000000   0.537E+02       0.019     5388.348   0.100E-11
     TRS4 it   3 1.00000000   0.336E+02       0.036     5509.032   0.100E-11
     TRS4 it   4 1.00000000   0.177E+02       0.036     5559.699   0.100E-11
     TRS4 it   5 1.00000000   0.107E+02       0.035     5666.496   0.100E-11
     TRS4 it   6 1.00000000   0.486E+01       0.036     5513.208   0.100E-11
     TRS4 it   7 1.00000000   0.145E+01       0.036     5557.475   0.100E-11
     TRS4 it   8 1.00000000   0.219E+00       0.036     5602.365   0.100E-11
     TRS4 it   9 1.00000000   0.948E-02       0.036     5573.839   0.100E-11
     TRS4 it  10 1.00000000   0.272E-04       0.036     5534.913   0.100E-11
     TRS4 it  11 1.00000000   0.770E-10       0.036     5551.732   0.100E-11
     Final TRS4 iteration   11 1.00000000   0.770E-10
     Chemical potential (mu):      -0.10644

 SCF     1     -1097.922483161     -1097.922483161    2.079597

*********************************************************
 Using MIXING_FRACTION=0.450 to mix KS matrix:  iscf=  2
 KS_nw=0.450*KS + 0.550*KS_old
*********************************************************
     Est. extremal eigenvalues     -0.84766     5.28412  converged:  T
     TRS4 it   1 1.00000000   0.561E+02       0.019     5361.225   0.100E-11
     TRS4 it   2 1.00000000   0.541E+02       0.018     5597.267   0.100E-11
     TRS4 it   3 1.00000000   0.348E+02       0.037     5443.806   0.100E-11
     TRS4 it   4 1.00000000   0.186E+02       0.036     5591.155   0.100E-11
     TRS4 it   5 1.00000000   0.122E+02       0.036     5539.188   0.100E-11
     TRS4 it   6 1.00000000   0.643E+01       0.036     5517.575   0.100E-11
     TRS4 it   7 1.00000000   0.260E+01       0.036     5597.587   0.100E-11
     TRS4 it   8 1.00000000   0.729E+00       0.036     5510.177   0.100E-11
     TRS4 it   9 1.00000000   0.112E+00       0.036     5526.086   0.100E-11
     TRS4 it  10 1.00000000   0.635E-02       0.036     5516.919   0.100E-11
     TRS4 it  11 1.00000000   0.144E-04       0.036     5568.459   0.100E-11
     TRS4 it  12 1.00000000   0.937E-10       0.036     5611.259   0.100E-11
     Final TRS4 iteration   12 1.00000000   0.937E-10
     Chemical potential (mu):      -0.01671

 SCF     2     -1102.956519414        -5.034036253    2.071051

*********************************************************
 Using MIXING_FRACTION=0.450 to mix KS matrix:  iscf=  3
 KS_nw=0.450*KS + 0.550*KS_old
*********************************************************
     Est. extremal eigenvalues     -0.85367     5.27585  converged:  T
     TRS4 it   1 1.00000000   0.561E+02       0.019     5381.653   0.100E-11
     TRS4 it   2 1.00000000   0.540E+02       0.018     5428.512   0.100E-11
     TRS4 it   3 1.00000000   0.346E+02       0.036     5622.535   0.100E-11
     TRS4 it   4 1.00000000   0.185E+02       0.036     5564.104   0.100E-11
     TRS4 it   5 1.00000000   0.119E+02       0.036     5586.027   0.100E-11
     TRS4 it   6 1.00000000   0.617E+01       0.036     5580.952   0.100E-11
     TRS4 it   7 1.00000000   0.240E+01       0.036     5542.372   0.100E-11
     TRS4 it   8 1.00000000   0.628E+00       0.035     5659.850   0.100E-11
     TRS4 it   9 1.00000000   0.846E-01       0.036     5578.871   0.100E-11
     TRS4 it  10 1.00000000   0.355E-02       0.036     5637.513   0.100E-11
     TRS4 it  11 1.00000000   0.471E-05       0.036     5562.615   0.100E-11
     TRS4 it  12 1.00000000   0.129E-10       0.036     5638.787   0.100E-11
     Final TRS4 iteration   12 1.00000000   0.129E-10
     Chemical potential (mu):      -0.02526

 SCF     3     -1103.118392224        -0.161872810    2.087033

*********************************************************
 Using MIXING_FRACTION=0.450 to mix KS matrix:  iscf=  4
 KS_nw=0.450*KS + 0.550*KS_old
*********************************************************
     Est. extremal eigenvalues     -0.85165     5.28132  converged:  T
     TRS4 it   1 1.00000000   0.561E+02       0.019     5378.958   0.100E-11
     TRS4 it   2 1.00000000   0.540E+02       0.018     5438.819   0.100E-11
     TRS4 it   3 1.00000000   0.347E+02       0.036     5602.442   0.100E-11
     TRS4 it   4 1.00000000   0.186E+02       0.036     5637.850   0.100E-11
     TRS4 it   5 1.00000000   0.121E+02       0.036     5605.753   0.100E-11
     TRS4 it   6 1.00000000   0.629E+01       0.036     5647.538   0.100E-11
     TRS4 it   7 1.00000000   0.249E+01       0.036     5588.017   0.100E-11
     TRS4 it   8 1.00000000   0.673E+00       0.036     5637.049   0.100E-11
     TRS4 it   9 1.00000000   0.973E-01       0.036     5575.702   0.100E-11
     TRS4 it  10 1.00000000   0.490E-02       0.036     5649.653   0.100E-11
     TRS4 it  11 1.00000000   0.110E-04       0.036     5635.654   0.100E-11
     TRS4 it  12 1.00000000   0.843E-10       0.036     5550.405   0.100E-11
     Final TRS4 iteration   12 1.00000000   0.843E-10
     Chemical potential (mu):      -0.01862

 SCF     4     -1103.126467783        -0.008075559    2.076851

*********************************************************
 Using MIXING_FRACTION=0.450 to mix KS matrix:  iscf=  5
 KS_nw=0.450*KS + 0.550*KS_old
*********************************************************
     Est. extremal eigenvalues     -0.85000     5.28212  converged:  T
     TRS4 it   1 1.00000000   0.561E+02       0.019     5289.983   0.100E-11
     TRS4 it   2 1.00000000   0.540E+02       0.018     5444.190   0.100E-11
     TRS4 it   3 1.00000000   0.347E+02       0.037     5484.070   0.100E-11
     TRS4 it   4 1.00000000   0.186E+02       0.036     5633.238   0.100E-11
     TRS4 it   5 1.00000000   0.120E+02       0.035     5771.894   0.100E-11
     TRS4 it   6 1.00000000   0.627E+01       0.036     5571.544   0.100E-11
     TRS4 it   7 1.00000000   0.248E+01       0.035     5662.062   0.100E-11
     TRS4 it   8 1.00000000   0.671E+00       0.035     5664.791   0.100E-11
     TRS4 it   9 1.00000000   0.970E-01       0.036     5620.989   0.100E-11
     TRS4 it  10 1.00000000   0.489E-02       0.036     5572.542   0.100E-11
     TRS4 it  11 1.00000000   0.114E-04       0.036     5640.299   0.100E-11
     TRS4 it  12 1.00000000   0.948E-10       0.035     5720.618   0.100E-11
     Final TRS4 iteration   12 1.00000000   0.948E-10
     Chemical potential (mu):      -0.01771

 SCF     5     -1103.127089236        -0.000621453    2.076434

*********************************************************
 Using MIXING_FRACTION=0.450 to mix KS matrix:  iscf=  6
 KS_nw=0.450*KS + 0.550*KS_old
*********************************************************
     Est. extremal eigenvalues     -0.84969     5.28292  converged:  T
     TRS4 it   1 1.00000000   0.561E+02       0.019     5344.060   0.100E-11
     TRS4 it   2 1.00000000   0.540E+02       0.018     5427.831   0.100E-11
     TRS4 it   3 1.00000000   0.347E+02       0.036     5599.729   0.100E-11
     TRS4 it   4 1.00000000   0.186E+02       0.036     5645.736   0.100E-11
     TRS4 it   5 1.00000000   0.121E+02       0.036     5588.985   0.100E-11
     TRS4 it   6 1.00000000   0.629E+01       0.036     5585.478   0.100E-11
     TRS4 it   7 1.00000000   0.249E+01       0.035     5713.320   0.100E-11
     TRS4 it   8 1.00000000   0.676E+00       0.035     5661.342   0.100E-11
     TRS4 it   9 1.00000000   0.987E-01       0.036     5611.736   0.100E-11
     TRS4 it  10 1.00000000   0.510E-02       0.036     5602.470   0.100E-11
     TRS4 it  11 1.00000000   0.129E-04       0.035     5800.762   0.100E-11
     TRS4 it  12 1.00000000   0.127E-09       0.036     5578.428   0.100E-11
     Final TRS4 iteration   12 1.00000000   0.127E-09
     Chemical potential (mu):      -0.01662

 SCF     6     -1103.127180254        -0.000091019    2.080740

*********************************************************
 Using MIXING_FRACTION=0.450 to mix KS matrix:  iscf=  7
 KS_nw=0.450*KS + 0.550*KS_old
*********************************************************
     Est. extremal eigenvalues     -0.84924     5.28325  converged:  T
     TRS4 it   1 1.00000000   0.561E+02       0.019     5422.394   0.100E-11
     TRS4 it   2 1.00000000   0.540E+02       0.019     5386.860   0.100E-11
     TRS4 it   3 1.00000000   0.347E+02       0.037     5467.688   0.100E-11
     TRS4 it   4 1.00000000   0.186E+02       0.035     5685.540   0.100E-11
     TRS4 it   5 1.00000000   0.121E+02       0.036     5571.610   0.100E-11
     TRS4 it   6 1.00000000   0.629E+01       0.036     5589.362   0.100E-11
     TRS4 it   7 1.00000000   0.249E+01       0.036     5589.354   0.100E-11
     TRS4 it   8 1.00000000   0.677E+00       0.036     5609.862   0.100E-11
     TRS4 it   9 1.00000000   0.990E-01       0.036     5521.606   0.100E-11
     TRS4 it  10 1.00000000   0.515E-02       0.036     5651.523   0.100E-11
     TRS4 it  11 1.00000000   0.133E-04       0.036     5571.264   0.100E-11
     TRS4 it  12 1.00000000   0.136E-09       0.036     5565.458   0.100E-11
     Final TRS4 iteration   12 1.00000000   0.136E-09
     Chemical potential (mu):      -0.01622

 SCF     7     -1103.127199708        -0.000019453    2.079061

*********************************************************
 Using MIXING_FRACTION=0.450 to mix KS matrix:  iscf=  8
 KS_nw=0.450*KS + 0.550*KS_old
*********************************************************
     Est. extremal eigenvalues     -0.84910     5.28343  converged:  T
     TRS4 it   1 1.00000000   0.561E+02       0.019     5391.858   0.100E-11
     TRS4 it   2 1.00000000   0.540E+02       0.019     5381.307   0.100E-11
     TRS4 it   3 1.00000000   0.347E+02       0.036     5507.674   0.100E-11
     TRS4 it   4 1.00000000   0.186E+02       0.036     5562.173   0.100E-11
     TRS4 it   5 1.00000000   0.121E+02       0.036     5531.055   0.100E-11
     TRS4 it   6 1.00000000   0.629E+01       0.036     5614.102   0.100E-11
     TRS4 it   7 1.00000000   0.249E+01       0.036     5597.567   0.100E-11
     TRS4 it   8 1.00000000   0.678E+00       0.036     5628.794   0.100E-11
     TRS4 it   9 1.00000000   0.993E-01       0.036     5640.218   0.100E-11
     TRS4 it  10 1.00000000   0.519E-02       0.036     5537.170   0.100E-11
     TRS4 it  11 1.00000000   0.136E-04       0.035     5665.877   0.100E-11
     TRS4 it  12 1.00000000   0.144E-09       0.036     5537.847   0.100E-11
     Final TRS4 iteration   12 1.00000000   0.144E-09
     Chemical potential (mu):      -0.01597

 SCF     8     -1103.127204475        -0.000004767    2.150730


 SCF run converged in     8 steps.

 Writing restart DM 64H2O_ref_LS_DM_SPIN_1_RESTART.dm with checksum:       0.62102492E+04

 ENERGY| Total FORCE_EVAL ( QS ) energy [a.u.]:            -1103.127204474963037

 -------------------------------------------------------------------------------
 -                                                                             -
 -                                DBCSR STATISTICS                             -
 -                                                                             -
 -------------------------------------------------------------------------------
 COUNTER                                    TOTAL       BLAS       SMM       ACC
 flops     5 x     5 x     5          79277464750       0.0%    100.0%      0.0%     
 flops     5 x    13 x     5         102652875650       0.0%    100.0%      0.0%     
 flops    13 x     5 x     5         102658002200       0.0%    100.0%      0.0%     
 flops     5 x     5 x    13         103166758500       0.0%    100.0%      0.0%     
 flops     5 x    13 x    13         133629319070       0.0%    100.0%      0.0%     
 flops    13 x     5 x    13         133630042390       0.0%    100.0%      0.0%     
 flops    13 x    13 x     5         134780105980       0.0%    100.0%      0.0%     
 flops    13 x    13 x    13         175497840778       0.0%    100.0%      0.0%     
 flops inhomo. stacks                           0       0.0%      0.0%      0.0%
 flops total                       965.292409E+09       0.0%    100.0%      0.0%
 flops max/rank                     30.970425E+09       0.0%    100.0%      0.0%
 matmuls inhomo. stacks                         0       0.0%      0.0%      0.0%
 matmuls total                         1069524351       0.0%    100.0%      0.0%
 number of processed stacks               1514601       0.0%    100.0%      0.0%
 average stack size                                     0.0     706.1       0.0
 marketing flops                     1.569237E+12
 -------------------------------------------------------------------------------
 # multiplications                            246
 max memory usage/rank             621.752320E+06
 # max total images/rank                        2
 # max 3D layers                                1
 # MPI messages exchanged                  102336
 MPI messages size (bytes):
  total size                        42.317873E+09
  min size                           0.000000E+00
  max size                         541.696000E+03
  average size                     413.518938E+03
 MPI breakdown and total messages size (bytes):
             size <=      128                 312                        0
       128 < size <=     8192                  42                   279312
      8192 < size <=    32768                  62                   841968
     32768 < size <=   131072                  36                  4492656
    131072 < size <=  4194304              101884              42312260624
   4194304 < size <= 16777216                   0                        0
  16777216 < size                               0                        0
 -------------------------------------------------------------------------------

 *** WARNING in dbcsr_mm.F:301 :: Using a non-square number of MPI ranks ***
 *** might lead to poor performance. Used ranks: 32 Suggested: 36 64     ***

 -------------------------------------------------------------------------------
 -                                                                             -
 -                      DBCSR MESSAGE PASSING PERFORMANCE                      -
 -                                                                             -
 -------------------------------------------------------------------------------
 ROUTINE             CALLS      AVE VOLUME [Bytes]
 MP_Bcast                9                     12.
 MP_Allreduce         1762                     34.
 MP_Alltoall           546                  34827.
 MP_ISend             8604                 170593.
 MP_IRecv             8238                 178790.
 -------------------------------------------------------------------------------

 -------------------------------------------------------------------------------
 -                                                                             -
 -                                DBM STATISTICS                               -
 -                                                                             -
 -------------------------------------------------------------------------------
    M  x    N  x    K                                          COUNT     PERCENT
 -------------------------------------------------------------------------------

 -------------------------------------------------------------------------------
 -                                                                             -
 -                                GRID STATISTICS                              -
 -                                                                             -
 -------------------------------------------------------------------------------
 LP    KERNEL             BACKEND                              COUNT     PERCENT
 2     collocate ortho    CPU                                7373907      28.83%
 2     integrate ortho    CPU                                7373907      28.83%
 3     collocate ortho    CPU                                4740291      18.53%
 3     integrate ortho    CPU                                4740291      18.53%
 4     collocate ortho    CPU                                 673002       2.63%
 4     integrate ortho    CPU                                 673002       2.63%
 0     collocate general  CPU                                   6144       0.02%
 -------------------------------------------------------------------------------

 MEMORY| Estimated peak process memory [MiB]                                 594

 -------------------------------------------------------------------------------
 -                                                                             -
 -                         MESSAGE PASSING PERFORMANCE                         -
 -                                                                             -
 -------------------------------------------------------------------------------

 ROUTINE             CALLS      AVE VOLUME [Bytes]
 MP_Group                5
 MP_Bcast             2357                 165394.
 MP_Allreduce         6331                    940.
 MP_Sync                 5
 MP_Alltoall           244               11526244.
 MP_SendRecv           837                  18832.
 MP_ISendRecv          837                  18832.
 MP_Wait              2391
 MP_ISend             1406                 108579.
 MP_IRecv             1406                 108603.
 -------------------------------------------------------------------------------


 -------------------------------------------------------------------------------
 -                                                                             -
 -                           R E F E R E N C E S                               -
 -                                                                             -
 -------------------------------------------------------------------------------
 
 CP2K version 2024.3 (Development Version), the CP2K developers group (2024).
 CP2K is freely available from https://www.cp2k.org/ .
 
 T. D. Kuehne, M. Iannuzzi, M. Del Ben, V. V. Rybkin, P. Seewald, F. Stein, T. 
 Laino, R. Z. Khaliullin, O. Schuett, F. Schiffmann, D. Golze, J. Wilhelm, S. 
 Chulkov, M. H. Bani-Hashemian, V. Weber, U. Borstnik, M. Taillefumier, A. S. 
 Jakobovits, A. Lazzaro, H. Pabst, T. Mueller, R. Schade, M. Guidon, S. 
 Andermatt, N. Holmberg, G. K. Schenter, A. Hehn, A. Bussy, F. Belleflamme, G. 
 Tabacchi, A. Gloess, M. Lass, I. Bethune, C. J. Mundy, C. Plessl, M. Watkins, 
 J. VandeVondele, M. Krack, J. Hutter.
 J. Chem. Phys. 152, 194103 (2020).
 CP2K: An electronic structure and molecular dynamics software package - 
 Quickstep: Efficient and accurate electronic structure calculations.
 https://doi.org/10.1063/5.0007045

 O. Schuett, P. Messmer, J. Hutter, J. VandeVondele.
 Electronic Structure Calculations on Graphics Processing Units, 173-190 (2016).
 GPU-Accelerated Sparse Matrix-Matrix Multiplication for Linear Scaling Density 
 Functional Theory.
 https://doi.org/10.1002/9781118670712.ch8

 A. Heinecke, G. Henry, M. Hutchinson, H. Pabst.
 Proceedings of Intl. Supercomputing Conference, 981-991 (2016).
 LIBXSMM: Accelerating Small Matrix Multiplications by Runtime Code Generation.
 https://doi.org/10.1109/SC.2016.83

 J. Hutter, M. Iannuzzi, F. Schiffmann, J. VandeVondele.
 WIREs Comput Mol Sci. 4, 15-25 (2014).
 CP2K: atomistic simulations of condensed matter systems.
 https://doi.org/10.1002/wcms.1159

 U. Borstnik, J. VandeVondele, V. Weber, J. Hutter.
 Parallel Comput. 40, 47-58 (2014).
 Sparse matrix multiplication: The distributed block-compressed sparse row 
 library.
 https://doi.org/10.1016/j.parco.2014.03.012

 A. Marek, V. Blum, R. Johanni, V. Havu, B. Lang, T. Auckenthaler, A. Heinecke, 
 H. Bungartz, H. Lederer.
 J. Phys. Condens. Matter 26, 213201 (2014).
 The ELPA library: scalable parallel eigenvalue solutions for electronic 
 structure theory and computational science.
 https://doi.org/10.1088/0953-8984/26/21/213201

 J. VandeVondele, U. Borstnik, J. Hutter.
 J. Chem. Theory Comput. 8, 3565-3573 (2012).
 Linear Scaling Self-Consistent Field Calculations with Millions of Atoms in the 
 Condensed Phase.
 https://doi.org/10.1021/ct200897x

 J. VandeVondele, J. Hutter.
 J. Chem. Phys. 127, 114105 (2007).
 Gaussian basis sets for accurate calculations on molecular systems in gas and 
 condensed phases.
 https://doi.org/10.1063/1.2770708

 J. VandeVondele, M. Krack, F. Mohamed, M. Parrinello, T. Chassaing, J. Hutter.
 Comput. Phys. Commun. 167, 103-128 (2005).
 QUICKSTEP: Fast and accurate density functional calculations using a mixed 
 Gaussian and plane waves approach.
 https://doi.org/10.1016/j.cpc.2004.12.014

 M. Krack.
 Theor. Chem. Acc. 114, 145-152 (2005).
 Pseudopotentials for H to Kr optimized for gradient-corrected 
 exchange-correlation functionals.
 https://doi.org/10.1007/s00214-005-0655-y

 M. Frigo, S. G. Johnson.
 Proc. IEEE 93, 216-231 (2005).
 The design and implementation of FFTW3.
 https://doi.org/10.1109/JPROC.2004.840301

 A. M. N. Niklasson, C. J. Tymczak, M. Challacombe.
 J. Chem. Phys. 118, 8611-8620 (2003).
 Trace resetting density matrix purification in O(N) self-consistent-field 
 theory.
 https://doi.org/10.1063/1.1559913

 C. Hartwigsen, S. Goedecker, J. Hutter.
 Phys. Rev. B 58, 3641-3662 (1998).
 Relativistic separable dual-space Gaussian pseudopotentials from H to Rn.
 https://doi.org/10.1103/PhysRevB.58.3641

 G. Lippert, J. Hutter, M. Parrinello.
 Mol. Phys. 92, 477-487 (1997).
 A hybrid Gaussian and plane wave density functional scheme.
 https://doi.org/10.1080/002689797170220

 S. Goedecker, M. Teter, J. Hutter.
 Phys. Rev. B 54, 1703-1710 (1996).
 Separable dual-space Gaussian pseudopotentials.
 https://doi.org/10.1103/PhysRevB.54.1703

 J. P. Perdew, K. Burke, M. Ernzerhof.
 Phys. Rev. Lett. 77, 3865-3868 (1996).
 Generalized gradient approximation made simple.
 https://doi.org/10.1103/PhysRevLett.77.3865


 -------------------------------------------------------------------------------
 -                                                                             -
 -                                T I M I N G                                  -
 -                                                                             -
 -------------------------------------------------------------------------------
 SUBROUTINE                       CALLS  ASD         SELF TIME        TOTAL TIME
                                MAXIMUM       AVERAGE  MAXIMUM  AVERAGE  MAXIMUM
 CP2K                                 1  1.0    0.012    0.017   20.601   20.602
 qs_energies                          1  2.0    0.000    0.000   20.446   20.446
 ls_scf                               1  3.0    0.000    0.000   19.239   19.240
 ls_scf_main                          1  4.0    0.000    0.000   16.702   16.702
 ls_scf_dm_to_ks                      8  5.0    0.000    0.000   12.471   12.476
 qs_ks_update_qs_env                  9  6.1    0.000    0.000    7.831    7.832
 rebuild_ks_matrix                    9  7.1    0.000    0.000    7.825    7.826
 qs_ks_build_kohn_sham_matrix         9  8.1    0.002    0.002    7.824    7.825
 qs_rho_update_rho_low                9  6.1    0.000    0.000    6.195    6.200
 calculate_rho_elec                   9  7.1    0.003    0.003    6.195    6.200
 sum_up_and_integrate                 9  9.1    0.000    0.000    5.925    5.926
 integrate_v_rspace                   9 10.1    0.000    0.000    5.916    5.918
 grid_collocate_task_list             9  8.1    5.440    5.558    5.440    5.558
 grid_integrate_task_list             9 11.1    5.200    5.300    5.200    5.300
 dbcsr_multiply_generic             246  6.2    0.012    0.013    4.612    4.619
 density_matrix_trs4                  8  5.0    0.004    0.006    4.226    4.231
 multiply_cannon                    246  7.2    0.018    0.025    3.735    3.843
 multiply_cannon_loop               246  8.2    0.019    0.021    3.661    3.717
 ls_scf_init_scf                      1  4.0    0.000    0.000    2.475    2.476
 multiply_cannon_multrec           1968  9.2    2.099    2.158    2.105    2.164
 mp_waitall_1                     16729 10.5    1.698    1.802    1.698    1.802
 fft_wrap_pw1pw2                    172 11.3    0.003    0.004    1.764    1.784
 fft_wrap_pw1pw2_200                100 12.8    0.103    0.108    1.691    1.719
 qs_vxc_create                        9  9.1    0.000    0.000    1.552    1.583
 xc_vxc_pw_create                     9 10.1    0.013    0.019    1.552    1.582
 ls_scf_initial_guess                 1  5.0    0.000    0.000    1.559    1.560
 ls_scf_qs_atomic_guess               1  6.0    0.000    0.000    1.559    1.560
 multiply_cannon_metrocomm3        1968  9.2    0.005    0.006    1.316    1.411
 fft3d_ps                           172 13.3    0.720    0.790    1.326    1.381
 qs_energies_init_hamiltonians        1  3.0    0.000    0.000    1.206    1.206
 xc_pw_derive                        54 12.1    0.001    0.001    1.100    1.187
 build_core_hamiltonian_matrix        1  4.0    0.000    0.000    0.727    1.017
 ls_scf_init_matrix_S                 1  5.0    0.000    0.000    0.916    0.917
 matrix_sqrt_Newton_Schulz            1  6.0    0.001    0.001    0.892    0.892
 mp_waitany                        1406 12.5    0.708    0.874    0.708    0.874
 density_rs2pw                        9  8.1    0.000    0.000    0.722    0.824
 xc_rho_set_and_dset_create           9 11.1    0.020    0.027    0.782    0.806
 transfer_rs2pw                      46  9.0    0.001    0.001    0.649    0.802
 xc_pw_divergence                     9 11.1    0.000    0.000    0.737    0.777
 build_core_ppl                       1  5.0    0.500    0.753    0.500    0.753
 make_m2s                           492  7.2    0.005    0.006    0.684    0.697
 transfer_rs2pw_200                  10  9.8    0.039    0.058    0.545    0.695
 make_images                        492  8.2    0.039    0.040    0.674    0.688
 mp_alltoall_z22v                   172 15.3    0.428    0.629    0.428    0.629
 potential_pw2rs                      9 11.1    0.001    0.001    0.598    0.599
 qs_env_update_s_mstruct              1  4.0    0.000    0.000    0.461    0.548
 arnoldi_extremal                     9  6.1    0.000    0.000    0.418    0.419
 arnoldi_normal_ev                    9  7.1    0.000    0.001    0.417    0.418
 make_images_data                   492  9.2    0.005    0.007    0.375    0.412
 -------------------------------------------------------------------------------

 The number of warnings for this run is : 1
 
 -------------------------------------------------------------------------------
  **** **** ******  **  PROGRAM ENDED AT                 2024-09-23 17:54:07.656
 ***** ** ***  *** **   PROGRAM RAN ON                                    moritz
 **    ****   ******    PROGRAM RAN BY                                       ole
 ***** **    ** ** **   PROGRAM PROCESS ID                                161392
  **** **  *******  **  PROGRAM STOPPED IN /home/ole/git/pao_ml_equivar/64H2O_MD
                                           /Frame6800
