 DBCSR| CPU Multiplication driver                                           XSMM (U)
 DBCSR| Multrec recursion limit                                              512 (U)
 DBCSR| Multiplication stack size                                           1000 (D)
 DBCSR| Maximum elements for images                                    UNLIMITED (U)
 DBCSR| Multiplicative factor virtual images                                   1 (U)
 DBCSR| Use multiplication densification                                       T (D)
 DBCSR| Multiplication size stacks                                             3 (U)
 DBCSR| Use memory pool for CPU allocation                                     F (U)
 DBCSR| Number of 3D layers                                               SINGLE (U)
 DBCSR| Use MPI memory allocation                                              F (U)
 DBCSR| Use RMA algorithm                                                      F (U)
 DBCSR| Use Communication thread                                               T (U)
 DBCSR| Communication thread load                                             87 (D)
 DBCSR| MPI: My process id                                                     0
 DBCSR| MPI: Number of processes                                              32
 DBCSR| OMP: Current number of threads                                         1
 DBCSR| OMP: Max number of threads                                             1
 DBCSR| Split modifier for TAS multiplication algorithm                  1.0E+00 (U)


  **** **** ******  **  PROGRAM STARTED AT               2024-09-24 06:40:58.362
 ***** ** ***  *** **   PROGRAM STARTED ON                                moritz
 **    ****   ******    PROGRAM STARTED BY                                   ole
 ***** **    ** ** **   PROGRAM PROCESS ID                                170484
  **** **  *******  **  PROGRAM STARTED IN /home/ole/git/pao_ml_equivar/64H2O_MD
                                           /Frame6800

 CP2K| version string:                 CP2K version 2024.3 (Development Version)
 CP2K| source code revision number:                                  git:3f890bb
 CP2K| cp2kflags: omp libint fftw3 libxc libgrpp pexsi elpa parallel scalapack c
 CP2K|            osma quip deepmd xsmm plumed2 spglib libdftd4 sirius libvori l
 CP2K|            libbqb libvdwxc hdf5
 CP2K| is freely available from                            https://www.cp2k.org/
 CP2K| Program compiled at                          Mo 23 Sep 2024 17:17:04 CEST
 CP2K| Program compiled on                                                moritz
 CP2K| Program compiled for                                                local
 CP2K| Data directory path                               /home/ole/git/cp2k/data
 CP2K| Input file name                                           64H2O_pao44.inp

 GLOBAL| Force Environment number                                              1
 GLOBAL| Basis set file name                                        BASIS_MOLOPT
 GLOBAL| Potential file name                                      GTH_POTENTIALS
 GLOBAL| MM Potential file name                                     MM_POTENTIAL
 GLOBAL| Coordinate file name                                         coords.xyz
 GLOBAL| Method name                                                        CP2K
 GLOBAL| Project name                                                64H2O_pao44
 GLOBAL| Run type                                                         ENERGY
 GLOBAL| FFT library                                                       FFTW3
 GLOBAL| Diagonalization library                                            ELPA
 GLOBAL| DGEMM library                                                      BLAS
 GLOBAL| Minimum number of eigenvectors for ELPA usage                        16
 GLOBAL| Orthonormality check for eigenvectors                          DISABLED
 GLOBAL| Matrix multiplication library                                     COSMA
 GLOBAL| All-to-all communication in single precision                          F
 GLOBAL| FFTs using library dependent lengths                                  F
 GLOBAL| Grid backend                                                       AUTO
 GLOBAL| Global print level                                                  LOW
 GLOBAL| MPI I/O enabled                                                       T
 GLOBAL| Total number of message passing processes                            32
 GLOBAL| Number of threads for this process                                    1
 GLOBAL| This output is from process                                           0
 GLOBAL| Stack size for threads created by OpenMP (OMP_STACKSIZE)        default
 GLOBAL| CPU model name           AMD Ryzen Threadripper 3970X 32-Core Processor
 GLOBAL| CPUID                                                              1002

 MEMORY| system memory details [Kb]
 MEMORY|                        rank 0           min           max       average
 MEMORY| MemTotal            131752136     131752136     131752136     131752136
 MEMORY| MemFree             114295220     114295220     114295220     114295220
 MEMORY| Buffers               2031836       2031836       2031836       2031836
 MEMORY| Cached                8729152       8729152       8729156       8729153
 MEMORY| Slab                  1643724       1643724       1643724       1643724
 MEMORY| SReclaimable          1146780       1146780       1146780       1146780
 MEMORY| MemLikelyFree       126202988     126202988     126202992     126202989


 GENERATE|  Preliminary Number of Bonds generated:                             0
 GENERATE|  Achieved consistency in connectivity generation.

 *******************************************************************************
 *******************************************************************************
 **                                                                           **
 **     #####                         ##              ##                      **
 **    ##   ##            ##          ##              ##                      **
 **   ##     ##                       ##            ######                    **
 **   ##     ##  ##   ##  ##   #####  ##  ##   ####   ##    #####    #####    **
 **   ##     ##  ##   ##  ##  ##      ## ##   ##      ##   ##   ##  ##   ##   **
 **   ##  ## ##  ##   ##  ##  ##      ####     ###    ##   ######   ######    **
 **    ##  ###   ##   ##  ##  ##      ## ##      ##   ##   ##       ##        **
 **     #######   #####   ##   #####  ##  ##  ####    ##    #####   ##        **
 **           ##                                                    ##        **
 **                                                                           **
 **                                                ... make the atoms dance   **
 **                                                                           **
 **            Copyright (C) by CP2K developers group (2000-2024)             **
 **                      J. Chem. Phys. 152, 194103 (2020)                    **
 **                                                                           **
 *******************************************************************************


 TOTAL NUMBERS AND MAXIMUM NUMBERS

  Total number of            - Atomic kinds:                                   2
                             - Atoms:                                        192
                             - Shell sets:                                   192
                             - Shells:                                       704
                             - Primitive Cartesian functions:               1344
                             - Cartesian basis functions:                   1536
                             - Spherical basis functions:                   1472

  Maximum angular momentum of- Orbital basis functions:                        2
                             - Local part of the GTH pseudopotential:          2
                             - Non-local part of the GTH pseudopotential:      0

 ------------------------------ Linear scaling SCF -----------------------------
 eps_scf:                                                              0.100E-07
 eps_filter:                                                           0.100E-11
 mixing_fraction:                                                      0.450E+00
 max_scf:                                                                     25
 fixed chemical potential (mu)                                                 F
 has unit metric:                                                              F
 Computing inv(S):                                                             T
 Computing sqrt(S):                                                            T
 Computing S preconditioner                                                    F
 S sqrt method:                                                     NEWTONSCHULZ
 S sqrt order:                                                                 3
 Extrapolation order:                                                          1
 S preconditioner type                                                      NONE
 Polarized Atomic Orbitals (PAO)                                               T
 Purification method                                   Trace resetting 4th order
 Cluster type                                                             ATOMIC
 Computing Chebyshev                                                       FALSE
 Using PAO                                                                     T
 -------------------------------------------------------------------------------

 
 PAO|                                  EPS_PAO                           0.5E-06
 PAO|                                  MIXING                            0.5E+00
 PAO|                                  MAX_PAO                              1500
 PAO|                                  MAX_CYCLES                           1000
 PAO|                                  PARAMETERIZATION              EQUIVARIANT
 PAO|                                  PRECONDITION                            F
 PAO|                                  REGULARIZATION                    0.0E+00
 PAO|                                  EPS_PGF                           0.1E-09
 PAO|                                  PENALTY_DISTANCE                  0.1E+00
 PAO|                                  PENALTY_STRENGTH                  0.5E-02
 PAO|                                  LINPOT_PRECONDITION_DELTA         0.0E+00
 PAO|                                  LINPOT_INITGUESS_DELT             0.0E+00
 PAO|                                  LINPOT_REGULARIZATION_DELTA       0.0E+00
 PAO|                                  LINPOT_REGULARIZATION_STRENGTH    0.0E+00
 PAO|                                  OPTIMIZER                              CG
 PAO|                                  CG_INIT_STEPS                           2
 PAO|                                  CG_RESET_LIMIT                    0.1E+00
 PAO|                                  CHECK_UNITARY_TOL                -0.1E+01
 PAO|                                  CHECK_GRADIENT_TOL               -0.1E+01
 PAO|                                  NUM_GRADIENT_ORDER                      2
 PAO|                                  NUM_GRADIENT_EPS                  0.1E-07
 PAO|                                  PRINT%RESTART%WRITE_CYCLES            100
 PAO|                                  RESTART_FILE 
 PAO|                                  PREOPT_DM_FILE 64H2O_ref_LS_DM_SPIN_1_RESTART.dm
 PAO|                                  MACHINE_LEARNING%METHOD       GAUSSIAN_PR
 PAO|                                  MACHINE_LEARNING%PRIOR               ZERO
 PAO|                                  MACHINE_LEARNING%DESCRIPTOR     POTENTIAL
 PAO|                                  MACHINE_LEARNING%TOLERANCE        0.1E-01
 PAO|                                  MACHINE_LEARNING%GP_NOISE_VAR     0.1E+00
 PAO|                                  MACHINE_LEARNING%GP_SCALE         0.5E-01
 

 Calculating atomic Fock matrix for atomic kind: O

 Electronic structure
    Total number of core electrons                                          2.00
    Total number of valence electrons                                       6.00
    Total number of electrons                                               8.00
    Multiplicity                                                   not specified
    S   [  2.00] 2.00
    P      4.00


 *******************************************************************************
                  Iteration          Convergence                     Energy [au]
 *******************************************************************************
                          1        0.708315                     -15.576645311500
                          2        0.608879                     -15.587933561584
                          3        0.102828E-01                 -15.656849565404
                          4        0.113889E-02                 -15.656866888140
                          5        0.434197E-03                 -15.656867072159
                          6        0.263771E-03                 -15.656867091904
                          7        0.478536E-06                 -15.656867103452

 Energy components [Hartree]           Total Energy ::          -15.656867103452
                                        Band Energy ::           -3.000198112285
                                     Kinetic Energy ::           11.759971203220
                                   Potential Energy ::          -27.416838306672
                                      Virial (-V/T) ::            2.331369510426
                                        Core Energy ::          -26.140716385623
                                          XC Energy ::           -3.154051012914
                                     Coulomb Energy ::           13.637900295084
                       Total Pseudopotential Energy ::          -37.935781716540
                       Local Pseudopotential Energy ::          -39.218907440693
                    Nonlocal Pseudopotential Energy ::            1.283125724153
                                        Confinement ::            0.350941276976

 Orbital energies  State     L     Occupation   Energy[a.u.]          Energy[eV]

                       1     0          2.000      -0.864471          -23.523463

                       1     1          4.000      -0.317814           -8.648154


 Total Electron Density at R=0:                                         0.000068

 Calculating atomic Fock matrix for atomic kind: H

 Electronic structure
    Total number of core electrons                                          0.00
    Total number of valence electrons                                       1.00
    Total number of electrons                                               1.00
    Multiplicity                                                   not specified
    S      1.00


 *******************************************************************************
                  Iteration          Convergence                     Energy [au]
 *******************************************************************************
                          1        0.437545E-02                  -0.424159432110
                          2        0.531356E-03                  -0.424178438213
                          3        0.259176E-06                  -0.424178722480

 Energy components [Hartree]           Total Energy ::           -0.424178722480
                                        Band Energy ::           -0.199015229016
                                     Kinetic Energy ::            0.464007633961
                                   Potential Energy ::           -0.888186356441
                                      Virial (-V/T) ::            1.914163240935
                                        Core Energy ::           -0.479160803564
                                          XC Energy ::           -0.244352904054
                                     Coulomb Energy ::            0.299334985138
                       Total Pseudopotential Energy ::           -0.962295316385
                       Local Pseudopotential Energy ::           -0.962295316385
                    Nonlocal Pseudopotential Energy ::            0.000000000000
                                        Confinement ::            0.191268788606

 Orbital energies  State     L     Occupation   Energy[a.u.]          Energy[eV]

                       1     0          1.000      -0.199015           -5.415480


 Total Electron Density at R=0:                                         0.242907
 PAO| Made initial guess for matrix_X with norm:   27.712812921102035     

     Lanczos converged:  F threshold:   0.100E-02
     Est. extremal eigenvalues:    0.621E+01   0.930E-01
     Est. condition number :    0.668E+02

 Order=           3
     NS sqrt iter    1 1.00000000   0.152E+01       0.022     2637.206
     NS sqrt iter    2 1.00000000   0.823E+00       0.034     3351.378
     NS sqrt iter    3 1.00000000   0.330E+00       0.034     3338.446
     NS sqrt iter    4 1.00000000   0.918E-01       0.034     3358.245
     NS sqrt iter    5 1.00000000   0.334E-02       0.034     3341.741
     NS sqrt iter    6 1.00000000   0.317E-06       0.029     2912.209
     Symmetrizing Results
     Final NS sqrt iter    6 1.00000000   0.222E-12

 PAO| Read restart DM 64H2O_ref_LS_DM_SPIN_1_RESTART.dm with checksum:    6210.2492254306162     
 PAO| Quickstep energy from restart density:  -1103.1272044749630     
 PAO| ======================= Iteration:         1 =============================

     Lanczos converged:  F threshold:   0.100E-02
     Est. extremal eigenvalues:    0.621E+01   0.930E-01
     Est. condition number :    0.668E+02

 Order=           3
     NS sqrt iter    1 1.00000000   0.152E+01       0.021     2708.492
     NS sqrt iter    2 1.00000000   0.823E+00       0.034     3352.773
     NS sqrt iter    3 1.00000000   0.330E+00       0.034     3359.237
     NS sqrt iter    4 1.00000000   0.918E-01       0.034     3337.704
     NS sqrt iter    5 1.00000000   0.334E-02       0.034     3356.598
     NS sqrt iter    6 1.00000000   0.317E-06       0.029     2936.038
     Symmetrizing Results
     Final NS sqrt iter    6 1.00000000   0.222E-12

     Est. extremal eigenvalues     -0.83247     2.60617  converged:  T
     TRS4 it   1 1.00000000   0.274E+02       0.007     2104.321   0.100E-11
     TRS4 it   2 1.00000000   0.236E+02       0.013     2160.924   0.100E-11
     TRS4 it   3 1.00000000   0.162E+02       0.013     2168.037   0.100E-11
     TRS4 it   4 1.00000000   0.102E+02       0.013     2189.053   0.100E-11
     TRS4 it   5 1.00000000   0.502E+01       0.013     2195.044   0.100E-11
     TRS4 it   6 1.00000000   0.171E+01       0.013     2186.763   0.100E-11
     TRS4 it   7 1.00000000   0.351E+00       0.013     2170.090   0.100E-11
     TRS4 it   8 1.00000000   0.275E-01       0.013     2209.725   0.100E-11
     TRS4 it   9 1.00000000   0.306E-03       0.013     2169.536   0.100E-11
     TRS4 it  10 1.00000000   0.484E-07       0.014     2083.918   0.100E-11
     TRS4 it  11 1.00000000   0.107E-13       0.013     2195.100   0.100E-11
     Final TRS4 iteration   11 1.00000000   0.107E-13
     Chemical potential (mu):       0.01020
 
 PAO| energy:  -186.11787314739993      penalty:   1.5734077273665958E-031
 PAO|CG| warming up with steepest descent
 PAO|CG| beta:    0.0000000000000000     
 PAO| norm of gradient:   3.9820244574517294     
 PAO|LS| adapt:  T F F
 PAO|LS| adapt: scan_steps:    0.0000000000000000        0.0000000000000000        0.0000000000000000     
 PAO|LS| adapt: energies:   -186.11787314739993        0.0000000000000000        0.0000000000000000     
 PAO| ======================= Iteration:         2 =============================

     Lanczos converged:  F threshold:   0.100E-02
     Est. extremal eigenvalues:    0.600E+01   0.100E+00
     Est. condition number :    0.601E+02

 Order=           3
     NS sqrt iter    1 1.00000000   0.148E+01       0.021     2666.265
     NS sqrt iter    2 1.00000000   0.794E+00       0.034     3368.667
     NS sqrt iter    3 1.00000000   0.310E+00       0.034     3352.281
     NS sqrt iter    4 1.00000000   0.774E-01       0.034     3335.391
     NS sqrt iter    5 1.00000000   0.210E-02       0.034     3325.878
     NS sqrt iter    6 1.00000000   0.915E-07       0.029     2901.982
     Symmetrizing Results
     Final NS sqrt iter    6 1.00000000   0.223E-13

     Est. extremal eigenvalues     -0.83556     2.59846  converged:  T
     TRS4 it   1 1.00000000   0.276E+02       0.007     2109.862   0.100E-11
     TRS4 it   2 1.00000000   0.236E+02       0.013     2172.268   0.100E-11
     TRS4 it   3 1.00000000   0.161E+02       0.013     2187.650   0.100E-11
     TRS4 it   4 1.00000000   0.100E+02       0.013     2166.581   0.100E-11
     TRS4 it   5 1.00000000   0.480E+01       0.013     2199.956   0.100E-11
     TRS4 it   6 1.00000000   0.157E+01       0.013     2210.511   0.100E-11
     TRS4 it   7 1.00000000   0.302E+00       0.013     2188.750   0.100E-11
     TRS4 it   8 1.00000000   0.200E-01       0.013     2198.194   0.100E-11
     TRS4 it   9 1.00000000   0.148E-03       0.013     2204.236   0.100E-11
     TRS4 it  10 1.00000000   0.125E-07       0.013     2191.091   0.100E-11
     TRS4 it  11 1.00000000   0.533E-14       0.013     2207.303   0.100E-11
     Final TRS4 iteration   11 1.00000000   0.533E-14
     Chemical potential (mu):       0.01582
 
 PAO| energy:  -187.57355063127685      penalty:   4.7126973251643058E-007
 PAO|LS| adapt:  T T F
 PAO|LS| adapt: scan_steps:    0.0000000000000000       0.10000000000000001        0.0000000000000000     
 PAO|LS| adapt: energies:   -186.11787314739993       -187.57355063127685        0.0000000000000000     
 PAO| ======================= Iteration:         3 =============================

     Lanczos converged:  F threshold:   0.100E-02
     Est. extremal eigenvalues:    0.579E+01   0.107E+00
     Est. condition number :    0.542E+02

 Order=           3
     NS sqrt iter    1 1.00000000   0.144E+01       0.021     2682.834
     NS sqrt iter    2 1.00000000   0.766E+00       0.034     3359.967
     NS sqrt iter    3 1.00000000   0.290E+00       0.034     3339.642
     NS sqrt iter    4 1.00000000   0.650E-01       0.034     3340.885
     NS sqrt iter    5 1.00000000   0.133E-02       0.034     3340.362
     NS sqrt iter    6 1.00000000   0.275E-07       0.029     2890.802
     Symmetrizing Results
     Final NS sqrt iter    6 1.00000000   0.360E-14

     Est. extremal eigenvalues     -0.83851     2.59475  converged:  T
     TRS4 it   1 1.00000000   0.278E+02       0.007     2121.693   0.100E-11
     TRS4 it   2 1.00000000   0.236E+02       0.013     2187.810   0.100E-11
     TRS4 it   3 1.00000000   0.160E+02       0.013     2170.585   0.100E-11
     TRS4 it   4 1.00000000   0.984E+01       0.013     2197.396   0.100E-11
     TRS4 it   5 1.00000000   0.459E+01       0.013     2194.610   0.100E-11
     TRS4 it   6 1.00000000   0.144E+01       0.013     2184.824   0.100E-11
     TRS4 it   7 1.00000000   0.257E+00       0.013     2191.474   0.100E-11
     TRS4 it   8 1.00000000   0.141E-01       0.013     2184.381   0.100E-11
     TRS4 it   9 1.00000000   0.664E-04       0.013     2177.555   0.100E-11
     TRS4 it  10 1.00000000   0.283E-08       0.013     2182.478   0.100E-11
     TRS4 it  11 1.00000000   0.160E-13       0.013     2183.124   0.100E-11
     Final TRS4 iteration   11 1.00000000   0.160E-13
     Chemical potential (mu):       0.02229
 
 PAO| energy:  -188.75285126400229      penalty:   7.5403157203207687E-006
 PAO|LS| adapt:  T T F
 PAO|LS| adapt: scan_steps:    0.0000000000000000       0.20000000000000001        0.0000000000000000     
 PAO|LS| adapt: energies:   -186.11787314739993       -188.75285126400229        0.0000000000000000     
 PAO| ======================= Iteration:         4 =============================

     Lanczos converged:  F threshold:   0.100E-02
     Est. extremal eigenvalues:    0.538E+01   0.116E+00
     Est. condition number :    0.463E+02

 Order=           3
     NS sqrt iter    1 1.00000000   0.135E+01       0.021     2681.075
     NS sqrt iter    2 1.00000000   0.710E+00       0.034     3355.512
     NS sqrt iter    3 1.00000000   0.253E+00       0.034     3359.254
     NS sqrt iter    4 1.00000000   0.457E-01       0.034     3360.706
     NS sqrt iter    5 1.00000000   0.548E-03       0.034     3364.609
     NS sqrt iter    6 1.00000000   0.251E-08       0.029     2868.515
     Symmetrizing Results
     Final NS sqrt iter    6 1.00000000   0.147E-13

     Est. extremal eigenvalues     -0.84350     2.59745  converged:  T
     TRS4 it   1 1.00000000   0.282E+02       0.007     2136.089   0.100E-11
     TRS4 it   2 1.00000000   0.236E+02       0.013     2171.265   0.100E-11
     TRS4 it   3 1.00000000   0.158E+02       0.013     2201.964   0.100E-11
     TRS4 it   4 1.00000000   0.951E+01       0.013     2176.891   0.100E-11
     TRS4 it   5 1.00000000   0.422E+01       0.013     2183.032   0.100E-11
     TRS4 it   6 1.00000000   0.122E+01       0.013     2203.775   0.100E-11
     TRS4 it   7 1.00000000   0.185E+00       0.013     2184.235   0.100E-11
     TRS4 it   8 1.00000000   0.681E-02       0.013     2168.674   0.100E-11
     TRS4 it   9 1.00000000   0.127E-04       0.013     2176.906   0.100E-11
     TRS4 it  10 1.00000000   0.115E-09       0.013     2176.022   0.100E-11
     Final TRS4 iteration   10 1.00000000   0.115E-09
     Chemical potential (mu):       0.04074
 
 PAO| energy:  -190.23998369037707      penalty:   1.2064505152559618E-004
 PAO|LS| Need extra step
 PAO|LS| adapt:  T T F
 PAO|LS| adapt: scan_steps:    0.0000000000000000       0.40000000000000002        0.0000000000000000     
 PAO|LS| adapt: energies:   -186.11787314739993       -190.23998369037707        0.0000000000000000     
 PAO| ======================= Iteration:         5 =============================

     Lanczos converged:  F threshold:   0.100E-02
     Est. extremal eigenvalues:    0.470E+01   0.130E+00
     Est. condition number :    0.360E+02

 Order=           3
     NS sqrt iter    1 1.00000000   0.122E+01       0.021     2714.850
     NS sqrt iter    2 1.00000000   0.617E+00       0.034     3357.753
     NS sqrt iter    3 1.00000000   0.194E+00       0.034     3333.675
     NS sqrt iter    4 1.00000000   0.237E-01       0.034     3343.735
     NS sqrt iter    5 1.00000000   0.102E-03       0.034     3360.201
     NS sqrt iter    6 1.00000000   0.230E-10       0.019     2178.788
     Symmetrizing Results
     Final NS sqrt iter    6 1.00000000   0.214E-11

     Est. extremal eigenvalues     -0.84748     2.60064  converged:  T
     TRS4 it   1 1.00000000   0.288E+02       0.007     2102.272   0.100E-11
     TRS4 it   2 1.00000000   0.236E+02       0.013     2218.108   0.100E-11
     TRS4 it   3 1.00000000   0.156E+02       0.013     2184.632   0.100E-11
     TRS4 it   4 1.00000000   0.902E+01       0.013     2185.993   0.100E-11
     TRS4 it   5 1.00000000   0.370E+01       0.013     2194.284   0.100E-11
     TRS4 it   6 1.00000000   0.912E+00       0.013     2211.373   0.100E-11
     TRS4 it   7 1.00000000   0.103E+00       0.013     2201.201   0.100E-11
     TRS4 it   8 1.00000000   0.196E-02       0.013     2162.413   0.100E-11
     TRS4 it   9 1.00000000   0.102E-05       0.013     2149.238   0.100E-11
     TRS4 it  10 1.00000000   0.821E-12       0.013     2201.941   0.100E-11
     Final TRS4 iteration   10 1.00000000   0.821E-12
     Chemical potential (mu):       0.06357
 
 PAO| energy:  -189.85576547707453      penalty:   1.9303208244132377E-003
 PAO|LS| Need extra step
 PAO|LS| adapt:  T T T
 PAO|LS| adapt: scan_steps:    0.0000000000000000       0.40000000000000002       0.80000000000000004     
 PAO|LS| adapt: energies:   -186.11787314739993       -190.23998369037707       -189.85576547707453     
 PAO|LS| adapt: suggested step_size:   0.56589523453945723     
 PAO|LS| adapt: predicted energy  -190.62754526832370     
 PAO| ======================= Iteration:         6 =============================

     Lanczos converged:  F threshold:   0.100E-02
     Est. extremal eigenvalues:    0.507E+01   0.122E+00
     Est. condition number :    0.416E+02

 Order=           3
     NS sqrt iter    1 1.00000000   0.129E+01       0.021     2692.432
     NS sqrt iter    2 1.00000000   0.668E+00       0.034     3336.272
     NS sqrt iter    3 1.00000000   0.225E+00       0.034     3335.704
     NS sqrt iter    4 1.00000000   0.344E-01       0.034     3378.115
     NS sqrt iter    5 1.00000000   0.267E-03       0.034     3346.716
     NS sqrt iter    6 1.00000000   0.347E-09       0.028     2688.256
     Symmetrizing Results
     Final NS sqrt iter    6 1.00000000   0.306E-12

     Est. extremal eigenvalues     -0.84625     2.60072  converged:  T
     TRS4 it   1 1.00000000   0.285E+02       0.007     2141.651   0.100E-11
     TRS4 it   2 1.00000000   0.236E+02       0.013     2192.227   0.100E-11
     TRS4 it   3 1.00000000   0.157E+02       0.013     2199.548   0.100E-11
     TRS4 it   4 1.00000000   0.928E+01       0.013     2179.081   0.100E-11
     TRS4 it   5 1.00000000   0.397E+01       0.013     2201.479   0.100E-11
     TRS4 it   6 1.00000000   0.107E+01       0.013     2185.525   0.100E-11
     TRS4 it   7 1.00000000   0.142E+00       0.013     2177.125   0.100E-11
     TRS4 it   8 1.00000000   0.384E-02       0.013     2181.946   0.100E-11
     TRS4 it   9 1.00000000   0.378E-05       0.013     2186.416   0.100E-11
     TRS4 it  10 1.00000000   0.102E-10       0.013     2199.497   0.100E-11
     Final TRS4 iteration   10 1.00000000   0.102E-10
     Chemical potential (mu):       0.05136
 
 PAO| energy:  -190.60098754965827      penalty:   4.8329654981144743E-004
 PAO|CG| warming up with steepest descent
 PAO|CG| beta:    0.0000000000000000     
 PAO| norm of gradient:   2.0944222548478071     
 PAO| energy improvement:  -4.4831144022583373     
 PAO| step      6                 -190.600987550  0.409E-02  0.566E+00     2.444
 PAO|LS| adapt:  T F F
 PAO|LS| adapt: scan_steps:    0.0000000000000000        0.0000000000000000        0.0000000000000000     
 PAO|LS| adapt: energies:   -190.60098754965827        0.0000000000000000        0.0000000000000000     
 PAO| ======================= Iteration:         7 =============================

     Lanczos converged:  F threshold:   0.100E-02
     Est. extremal eigenvalues:    0.492E+01   0.130E+00
     Est. condition number :    0.378E+02

 Order=           3
     NS sqrt iter    1 1.00000000   0.126E+01       0.021     2688.957
     NS sqrt iter    2 1.00000000   0.643E+00       0.034     3350.096
     NS sqrt iter    3 1.00000000   0.209E+00       0.034     3367.795
     NS sqrt iter    4 1.00000000   0.279E-01       0.034     3355.890
     NS sqrt iter    5 1.00000000   0.149E-03       0.034     3360.139
     NS sqrt iter    6 1.00000000   0.624E-10       0.024     2379.558
     Symmetrizing Results
     Final NS sqrt iter    6 1.00000000   0.202E-11

     Est. extremal eigenvalues     -0.84682     2.59224  converged:  T
     TRS4 it   1 1.00000000   0.286E+02       0.007     2127.625   0.100E-11
     TRS4 it   2 1.00000000   0.236E+02       0.013     2212.647   0.100E-11
     TRS4 it   3 1.00000000   0.158E+02       0.013     2202.484   0.100E-11
     TRS4 it   4 1.00000000   0.941E+01       0.013     2189.175   0.100E-11
     TRS4 it   5 1.00000000   0.407E+01       0.013     2200.073   0.100E-11
     TRS4 it   6 1.00000000   0.109E+01       0.013     2194.624   0.100E-11
     TRS4 it   7 1.00000000   0.144E+00       0.013     2185.839   0.100E-11
     TRS4 it   8 1.00000000   0.393E-02       0.013     2194.265   0.100E-11
     TRS4 it   9 1.00000000   0.431E-05       0.013     2197.520   0.100E-11
     TRS4 it  10 1.00000000   0.154E-10       0.013     2196.006   0.100E-11
     Final TRS4 iteration   10 1.00000000   0.154E-10
     Chemical potential (mu):       0.05452
 
 PAO| energy:  -189.69613272681354      penalty:   6.7318337463397298E-004
 PAO|LS| adapt:  T F T
 PAO|LS| adapt: scan_steps:    0.0000000000000000        0.0000000000000000       0.56589523453945723     
 PAO|LS| adapt: energies:   -190.60098754965827        0.0000000000000000       -189.69613272681354     
 PAO| ======================= Iteration:         8 =============================

     Lanczos converged:  F threshold:   0.100E-02
     Est. extremal eigenvalues:    0.499E+01   0.127E+00
     Est. condition number :    0.393E+02

 Order=           3
     NS sqrt iter    1 1.00000000   0.128E+01       0.021     2677.897
     NS sqrt iter    2 1.00000000   0.655E+00       0.034     3355.992
     NS sqrt iter    3 1.00000000   0.217E+00       0.034     3356.633
     NS sqrt iter    4 1.00000000   0.310E-01       0.034     3367.743
     NS sqrt iter    5 1.00000000   0.201E-03       0.034     3329.016
     NS sqrt iter    6 1.00000000   0.150E-09       0.027     2546.532
     Symmetrizing Results
     Final NS sqrt iter    6 1.00000000   0.116E-11

     Est. extremal eigenvalues     -0.84739     2.59692  converged:  T
     TRS4 it   1 1.00000000   0.285E+02       0.007     2127.069   0.100E-11
     TRS4 it   2 1.00000000   0.236E+02       0.013     2203.255   0.100E-11
     TRS4 it   3 1.00000000   0.157E+02       0.013     2185.943   0.100E-11
     TRS4 it   4 1.00000000   0.931E+01       0.013     2176.369   0.100E-11
     TRS4 it   5 1.00000000   0.399E+01       0.013     2169.726   0.100E-11
     TRS4 it   6 1.00000000   0.107E+01       0.013     2200.791   0.100E-11
     TRS4 it   7 1.00000000   0.142E+00       0.013     2189.599   0.100E-11
     TRS4 it   8 1.00000000   0.381E-02       0.013     2187.951   0.100E-11
     TRS4 it   9 1.00000000   0.380E-05       0.013     2176.446   0.100E-11
     TRS4 it  10 1.00000000   0.106E-10       0.013     2204.986   0.100E-11
     Final TRS4 iteration   10 1.00000000   0.106E-10
     Chemical potential (mu):       0.05141
 
 PAO| energy:  -190.98219684668305      penalty:   5.1161256958594779E-004
 PAO|LS| adapt:  T T T
 PAO|LS| adapt: scan_steps:    0.0000000000000000       0.28294761726972861       0.56589523453945723     
 PAO|LS| adapt: energies:   -190.60098754965827       -190.98219684668305       -189.69613272681354     
 PAO|LS| adapt: suggested step_size:   0.20616761421064711     
 PAO|LS| adapt: predicted energy  -191.04358166831227     
 PAO| ======================= Iteration:         9 =============================

     Lanczos converged:  F threshold:   0.100E-02
     Est. extremal eigenvalues:    0.502E+01   0.127E+00
     Est. condition number :    0.395E+02

 Order=           3
     NS sqrt iter    1 1.00000000   0.128E+01       0.021     2673.095
     NS sqrt iter    2 1.00000000   0.659E+00       0.034     3357.586
     NS sqrt iter    3 1.00000000   0.219E+00       0.034     3331.636
     NS sqrt iter    4 1.00000000   0.320E-01       0.034     3358.048
     NS sqrt iter    5 1.00000000   0.218E-03       0.034     3356.171
     NS sqrt iter    6 1.00000000   0.190E-09       0.028     2581.008
     Symmetrizing Results
     Final NS sqrt iter    6 1.00000000   0.925E-12

     Est. extremal eigenvalues     -0.84726     2.59804  converged:  T
     TRS4 it   1 1.00000000   0.285E+02       0.007     2138.972   0.100E-11
     TRS4 it   2 1.00000000   0.236E+02       0.013     2193.142   0.100E-11
     TRS4 it   3 1.00000000   0.157E+02       0.013     2185.748   0.100E-11
     TRS4 it   4 1.00000000   0.930E+01       0.013     2189.523   0.100E-11
     TRS4 it   5 1.00000000   0.398E+01       0.013     2188.713   0.100E-11
     TRS4 it   6 1.00000000   0.107E+01       0.013     2198.212   0.100E-11
     TRS4 it   7 1.00000000   0.141E+00       0.013     2168.734   0.100E-11
     TRS4 it   8 1.00000000   0.381E-02       0.013     2196.774   0.100E-11
     TRS4 it   9 1.00000000   0.375E-05       0.013     2212.998   0.100E-11
     TRS4 it  10 1.00000000   0.102E-10       0.013     2202.871   0.100E-11
     Final TRS4 iteration   10 1.00000000   0.102E-10
     Chemical potential (mu):       0.05111
 
 PAO| energy:  -191.04772892946650      penalty:   4.9501721961138067E-004
 PAO|CG| trace_G_new   0.71619824304837787     
 PAO|CG| trace_G_prev    4.3866045816017722     
 PAO|CG| trace_G_mix   -4.1520567875476963E-002
 PAO|CG| trace_D    4.3866045816017722     
 PAO|CG| trace_D_Gnew   4.1520567875476963E-002
 PAO|CG| beta:   0.17273469646702763     
 PAO| norm of gradient:  0.84628496562823208     
 PAO| energy improvement: -0.44674137980823048     
 PAO| step      9                 -191.047728929  0.165E-02  0.206E+00     1.512
 PAO|LS| adapt:  T F F
 PAO|LS| adapt: scan_steps:    0.0000000000000000        0.0000000000000000        0.0000000000000000     
 PAO|LS| adapt: energies:   -191.04772892946650        0.0000000000000000        0.0000000000000000     
 PAO| ======================= Iteration:        10 =============================

     Lanczos converged:  F threshold:   0.100E-02
     Est. extremal eigenvalues:    0.496E+01   0.130E+00
     Est. condition number :    0.382E+02

 Order=           3
     NS sqrt iter    1 1.00000000   0.127E+01       0.021     2668.931
     NS sqrt iter    2 1.00000000   0.650E+00       0.034     3346.190
     NS sqrt iter    3 1.00000000   0.214E+00       0.034     3344.952
     NS sqrt iter    4 1.00000000   0.297E-01       0.034     3345.303
     NS sqrt iter    5 1.00000000   0.174E-03       0.034     3347.189
     NS sqrt iter    6 1.00000000   0.966E-10       0.026     2444.234
     Symmetrizing Results
     Final NS sqrt iter    6 1.00000000   0.170E-11

     Est. extremal eigenvalues     -0.84781     2.58357  converged:  T
     TRS4 it   1 1.00000000   0.285E+02       0.007     2159.514   0.100E-11
     TRS4 it   2 1.00000000   0.235E+02       0.013     2190.209   0.100E-11
     TRS4 it   3 1.00000000   0.157E+02       0.013     2210.923   0.100E-11
     TRS4 it   4 1.00000000   0.927E+01       0.013     2178.113   0.100E-11
     TRS4 it   5 1.00000000   0.396E+01       0.013     2174.358   0.100E-11
     TRS4 it   6 1.00000000   0.105E+01       0.013     2188.291   0.100E-11
     TRS4 it   7 1.00000000   0.137E+00       0.013     2182.932   0.100E-11
     TRS4 it   8 1.00000000   0.359E-02       0.013     2202.106   0.100E-11
     TRS4 it   9 1.00000000   0.337E-05       0.013     2210.753   0.100E-11
     TRS4 it  10 1.00000000   0.823E-11       0.013     2178.530   0.100E-11
     Final TRS4 iteration   10 1.00000000   0.823E-11
     Chemical potential (mu):       0.05191
 
 PAO| energy:  -191.14623435023205      penalty:   4.9705637824383941E-004
 PAO|LS| adapt:  T T F
 PAO|LS| adapt: scan_steps:    0.0000000000000000       0.20616761421064711        0.0000000000000000     
 PAO|LS| adapt: energies:   -191.04772892946650       -191.14623435023205        0.0000000000000000     
 PAO| ======================= Iteration:        11 =============================

     Lanczos converged:  F threshold:   0.100E-02
     Est. extremal eigenvalues:    0.491E+01   0.133E+00
     Est. condition number :    0.368E+02

 Order=           3
     NS sqrt iter    1 1.00000000   0.126E+01       0.021     2695.446
     NS sqrt iter    2 1.00000000   0.642E+00       0.034     3351.647
     NS sqrt iter    3 1.00000000   0.208E+00       0.034     3340.027
     NS sqrt iter    4 1.00000000   0.276E-01       0.034     3348.277
     NS sqrt iter    5 1.00000000   0.139E-03       0.034     3353.611
     NS sqrt iter    6 1.00000000   0.487E-10       0.022     2328.732
     Symmetrizing Results
     Final NS sqrt iter    6 1.00000000   0.214E-11

     Est. extremal eigenvalues     -0.84810     2.56883  converged:  T
     TRS4 it   1 1.00000000   0.285E+02       0.007     2105.572   0.100E-11
     TRS4 it   2 1.00000000   0.234E+02       0.013     2196.221   0.100E-11
     TRS4 it   3 1.00000000   0.157E+02       0.013     2190.009   0.100E-11
     TRS4 it   4 1.00000000   0.925E+01       0.013     2190.376   0.100E-11
     TRS4 it   5 1.00000000   0.393E+01       0.013     2174.585   0.100E-11
     TRS4 it   6 1.00000000   0.104E+01       0.013     2198.382   0.100E-11
     TRS4 it   7 1.00000000   0.133E+00       0.013     2199.898   0.100E-11
     TRS4 it   8 1.00000000   0.337E-02       0.013     2187.297   0.100E-11
     TRS4 it   9 1.00000000   0.299E-05       0.013     2186.907   0.100E-11
     TRS4 it  10 1.00000000   0.658E-11       0.013     2189.289   0.100E-11
     Final TRS4 iteration   10 1.00000000   0.658E-11
     Chemical potential (mu):       0.05281
 
 PAO| energy:  -191.15197719563673      penalty:   5.0868894262776619E-004
 PAO|LS| adapt:  T T F
 PAO|LS| adapt: scan_steps:    0.0000000000000000       0.41233522842129422        0.0000000000000000     
 PAO|LS| adapt: energies:   -191.04772892946650       -191.15197719563673        0.0000000000000000     
 PAO| ======================= Iteration:        12 =============================

     Lanczos converged:  F threshold:   0.100E-02
     Est. extremal eigenvalues:    0.481E+01   0.140E+00
     Est. condition number :    0.343E+02

 Order=           3
     NS sqrt iter    1 1.00000000   0.124E+01       0.021     2682.166
     NS sqrt iter    2 1.00000000   0.626E+00       0.034     3359.445
     NS sqrt iter    3 1.00000000   0.197E+00       0.034     3331.655
     NS sqrt iter    4 1.00000000   0.237E-01       0.034     3349.291
     NS sqrt iter    5 1.00000000   0.887E-04       0.034     3358.349
     NS sqrt iter    6 1.00000000   0.119E-10       0.015     2139.718
     Symmetrizing Results
     Final NS sqrt iter    6 1.00000000   0.177E-11

     Est. extremal eigenvalues     -0.84794     2.53961  converged:  T
     TRS4 it   1 1.00000000   0.284E+02       0.007     2111.584   0.100E-11
     TRS4 it   2 1.00000000   0.233E+02       0.013     2197.761   0.100E-11
     TRS4 it   3 1.00000000   0.156E+02       0.013     2190.207   0.100E-11
     TRS4 it   4 1.00000000   0.918E+01       0.013     2210.543   0.100E-11
     TRS4 it   5 1.00000000   0.387E+01       0.013     2190.110   0.100E-11
     TRS4 it   6 1.00000000   0.100E+01       0.013     2191.000   0.100E-11
     TRS4 it   7 1.00000000   0.124E+00       0.013     2167.231   0.100E-11
     TRS4 it   8 1.00000000   0.292E-02       0.013     2187.680   0.100E-11
     TRS4 it   9 1.00000000   0.229E-05       0.013     2177.120   0.100E-11
     TRS4 it  10 1.00000000   0.396E-11       0.013     2195.784   0.100E-11
     Final TRS4 iteration   10 1.00000000   0.396E-11
     Chemical potential (mu):       0.05487
 
 PAO| energy:  -190.90142325336939      penalty:   5.6745470971664939E-004
 PAO|LS| Need extra step
 PAO|LS| adapt:  T T T
 PAO|LS| adapt: scan_steps:    0.0000000000000000       0.41233522842129422       0.82467045684258844     
 PAO|LS| adapt: energies:   -191.04772892946650       -191.15197719563673       -190.90142325336939     
 PAO|LS| adapt: suggested step_size:   0.32732027792465795     
 PAO|LS| adapt: predicted energy  -191.15951849271337     
 PAO| ======================= Iteration:        13 =============================

     Lanczos converged:  F threshold:   0.100E-02
     Est. extremal eigenvalues:    0.493E+01   0.132E+00
     Est. condition number :    0.374E+02

 Order=           3
     NS sqrt iter    1 1.00000000   0.127E+01       0.021     2688.212
     NS sqrt iter    2 1.00000000   0.645E+00       0.034     3342.556
     NS sqrt iter    3 1.00000000   0.210E+00       0.034     3365.256
     NS sqrt iter    4 1.00000000   0.284E-01       0.034     3368.077
     NS sqrt iter    5 1.00000000   0.153E-03       0.034     3365.280
     NS sqrt iter    6 1.00000000   0.647E-10       0.023     2382.728
     Symmetrizing Results
     Final NS sqrt iter    6 1.00000000   0.203E-11

     Est. extremal eigenvalues     -0.84801     2.57493  converged:  T
     TRS4 it   1 1.00000000   0.285E+02       0.007     2120.343   0.100E-11
     TRS4 it   2 1.00000000   0.235E+02       0.013     2209.802   0.100E-11
     TRS4 it   3 1.00000000   0.157E+02       0.013     2216.088   0.100E-11
     TRS4 it   4 1.00000000   0.926E+01       0.013     2189.431   0.100E-11
     TRS4 it   5 1.00000000   0.394E+01       0.013     2190.625   0.100E-11
     TRS4 it   6 1.00000000   0.104E+01       0.013     2188.166   0.100E-11
     TRS4 it   7 1.00000000   0.135E+00       0.013     2195.144   0.100E-11
     TRS4 it   8 1.00000000   0.347E-02       0.013     2160.971   0.100E-11
     TRS4 it   9 1.00000000   0.314E-05       0.013     2185.042   0.100E-11
     TRS4 it  10 1.00000000   0.723E-11       0.013     2172.139   0.100E-11
     Final TRS4 iteration   10 1.00000000   0.723E-11
     Chemical potential (mu):       0.05243
 
 PAO| energy:  -191.16059382606872      penalty:   5.0265272906112139E-004
 PAO|CG| trace_G_new   0.27450900175387627     
 PAO|CG| trace_G_prev   0.71619824304837787     
 PAO|CG| trace_G_mix   -1.2020446319115313E-002
 PAO|CG| trace_D   0.83273848648244886     
 PAO|CG| trace_D_Gnew   1.1478319301042655E-002
 PAO|CG| beta:   0.40007002370380995     
 PAO| norm of gradient:  0.52393606647555413     
 PAO| energy improvement: -0.11286489660221832     
 PAO| step     13                 -191.160593826  0.102E-02  0.327E+00     1.947
 PAO|LS| adapt:  T F F
 PAO|LS| adapt: scan_steps:    0.0000000000000000        0.0000000000000000        0.0000000000000000     
 PAO|LS| adapt: energies:   -191.16059382606872        0.0000000000000000        0.0000000000000000     
 PAO| ======================= Iteration:        14 =============================

     Lanczos converged:  F threshold:   0.100E-02
     Est. extremal eigenvalues:    0.486E+01   0.135E+00
     Est. condition number :    0.360E+02

 Order=           3
     NS sqrt iter    1 1.00000000   0.125E+01       0.021     2674.853
     NS sqrt iter    2 1.00000000   0.635E+00       0.034     3347.310
     NS sqrt iter    3 1.00000000   0.204E+00       0.034     3360.342
     NS sqrt iter    4 1.00000000   0.262E-01       0.034     3350.563
     NS sqrt iter    5 1.00000000   0.122E-03       0.034     3350.891
     NS sqrt iter    6 1.00000000   0.327E-10       0.020     2250.190
     Symmetrizing Results
     Final NS sqrt iter    6 1.00000000   0.225E-11

     Est. extremal eigenvalues     -0.84849     2.56827  converged:  T
     TRS4 it   1 1.00000000   0.285E+02       0.007     2113.977   0.100E-11
     TRS4 it   2 1.00000000   0.234E+02       0.013     2176.025   0.100E-11
     TRS4 it   3 1.00000000   0.157E+02       0.013     2189.602   0.100E-11
     TRS4 it   4 1.00000000   0.920E+01       0.013     2177.092   0.100E-11
     TRS4 it   5 1.00000000   0.388E+01       0.013     2190.566   0.100E-11
     TRS4 it   6 1.00000000   0.101E+01       0.013     2214.244   0.100E-11
     TRS4 it   7 1.00000000   0.127E+00       0.013     2178.977   0.100E-11
     TRS4 it   8 1.00000000   0.306E-02       0.013     2109.003   0.100E-11
     TRS4 it   9 1.00000000   0.248E-05       0.013     2177.094   0.100E-11
     TRS4 it  10 1.00000000   0.461E-11       0.013     2182.312   0.100E-11
     Final TRS4 iteration   10 1.00000000   0.461E-11
     Chemical potential (mu):       0.05429
 
 PAO| energy:  -191.21191941681465      penalty:   5.0407322115592654E-004
 PAO|LS| adapt:  T T F
 PAO|LS| adapt: scan_steps:    0.0000000000000000       0.32732027792465795        0.0000000000000000     
 PAO|LS| adapt: energies:   -191.16059382606872       -191.21191941681465        0.0000000000000000     
 PAO| ======================= Iteration:        15 =============================

     Lanczos converged:  F threshold:   0.100E-02
     Est. extremal eigenvalues:    0.479E+01   0.137E+00
     Est. condition number :    0.349E+02

 Order=           3
     NS sqrt iter    1 1.00000000   0.124E+01       0.021     2668.043
     NS sqrt iter    2 1.00000000   0.624E+00       0.034     3369.551
     NS sqrt iter    3 1.00000000   0.198E+00       0.034     3377.253
     NS sqrt iter    4 1.00000000   0.242E-01       0.034     3350.574
     NS sqrt iter    5 1.00000000   0.971E-04       0.034     3365.122
     NS sqrt iter    6 1.00000000   0.166E-10       0.017     2175.988
     Symmetrizing Results
     Final NS sqrt iter    6 1.00000000   0.205E-11

     Est. extremal eigenvalues     -0.84864     2.56118  converged:  T
     TRS4 it   1 1.00000000   0.286E+02       0.007     2124.709   0.100E-11
     TRS4 it   2 1.00000000   0.234E+02       0.013     2221.110   0.100E-11
     TRS4 it   3 1.00000000   0.156E+02       0.013     2202.423   0.100E-11
     TRS4 it   4 1.00000000   0.914E+01       0.013     2163.437   0.100E-11
     TRS4 it   5 1.00000000   0.382E+01       0.013     2202.198   0.100E-11
     TRS4 it   6 1.00000000   0.981E+00       0.013     2189.294   0.100E-11
     TRS4 it   7 1.00000000   0.119E+00       0.013     2200.328   0.100E-11
     TRS4 it   8 1.00000000   0.271E-02       0.013     2214.810   0.100E-11
     TRS4 it   9 1.00000000   0.196E-05       0.013     2169.471   0.100E-11
     TRS4 it  10 1.00000000   0.295E-11       0.013     2178.343   0.100E-11
     Final TRS4 iteration   10 1.00000000   0.295E-11
     Chemical potential (mu):       0.05605
 
 PAO| energy:  -191.19029368710585      penalty:   5.2013303024698188E-004
 PAO|LS| adapt:  T T T
 PAO|LS| adapt: scan_steps:    0.0000000000000000       0.32732027792465795       0.65464055584931591     
 PAO|LS| adapt: energies:   -191.16059382606872       -191.21191941681465       -191.19029368710585     
 PAO|LS| adapt: suggested step_size:   0.39394941299993907     
 PAO|LS| adapt: predicted energy  -191.21343083864383     
 PAO| ======================= Iteration:        16 =============================

     Lanczos converged:  F threshold:   0.100E-02
     Est. extremal eigenvalues:    0.485E+01   0.135E+00
     Est. condition number :    0.358E+02

 Order=           3
     NS sqrt iter    1 1.00000000   0.125E+01       0.021     2677.492
     NS sqrt iter    2 1.00000000   0.632E+00       0.034     3343.015
     NS sqrt iter    3 1.00000000   0.203E+00       0.034     3346.397
     NS sqrt iter    4 1.00000000   0.258E-01       0.034     3351.547
     NS sqrt iter    5 1.00000000   0.116E-03       0.034     3362.898
     NS sqrt iter    6 1.00000000   0.285E-10       0.019     2204.564
     Symmetrizing Results
     Final NS sqrt iter    6 1.00000000   0.223E-11

     Est. extremal eigenvalues     -0.84855     2.56686  converged:  T
     TRS4 it   1 1.00000000   0.285E+02       0.007     2129.434   0.100E-11
     TRS4 it   2 1.00000000   0.234E+02       0.013     2197.116   0.100E-11
     TRS4 it   3 1.00000000   0.157E+02       0.013     2193.310   0.100E-11
     TRS4 it   4 1.00000000   0.919E+01       0.013     2155.062   0.100E-11
     TRS4 it   5 1.00000000   0.387E+01       0.013     2192.500   0.100E-11
     TRS4 it   6 1.00000000   0.101E+01       0.013     2189.714   0.100E-11
     TRS4 it   7 1.00000000   0.125E+00       0.013     2189.714   0.100E-11
     TRS4 it   8 1.00000000   0.299E-02       0.013     2175.795   0.100E-11
     TRS4 it   9 1.00000000   0.236E-05       0.013     2172.613   0.100E-11
     TRS4 it  10 1.00000000   0.416E-11       0.013     2194.047   0.100E-11
     Final TRS4 iteration   10 1.00000000   0.416E-11
     Chemical potential (mu):       0.05466
 
 PAO| energy:  -191.21337646708344      penalty:   5.0611020093406967E-004
 PAO|CG| trace_G_new   0.10375410361070124     
 PAO|CG| trace_G_prev   0.27450900175387627     
 PAO|CG| trace_G_mix    4.5080472541834610E-003
 PAO|CG| trace_D   0.39860954987105746     
 PAO|CG| trace_D_Gnew   7.4775101480833235E-004
 PAO|CG| beta:   0.36154026178529991     
 PAO| norm of gradient:  0.32210883814434715     
 PAO| energy improvement:  -5.2782641014715637E-002
 PAO| step     16                 -191.213376467  0.629E-03  0.394E+00     1.490
 PAO|LS| adapt:  T F F
 PAO|LS| adapt: scan_steps:    0.0000000000000000        0.0000000000000000        0.0000000000000000     
 PAO|LS| adapt: energies:   -191.21337646708344        0.0000000000000000        0.0000000000000000     
 PAO| ======================= Iteration:        17 =============================

     Lanczos converged:  F threshold:   0.100E-02
     Est. extremal eigenvalues:    0.481E+01   0.135E+00
     Est. condition number :    0.356E+02

 Order=           3
     NS sqrt iter    1 1.00000000   0.124E+01       0.021     2707.738
     NS sqrt iter    2 1.00000000   0.627E+00       0.034     3371.602
     NS sqrt iter    3 1.00000000   0.200E+00       0.034     3377.349
     NS sqrt iter    4 1.00000000   0.250E-01       0.034     3351.967
     NS sqrt iter    5 1.00000000   0.106E-03       0.034     3346.620
     NS sqrt iter    6 1.00000000   0.214E-10       0.018     2181.368
     Symmetrizing Results
     Final NS sqrt iter    6 1.00000000   0.216E-11

     Est. extremal eigenvalues     -0.84863     2.56456  converged:  T
     TRS4 it   1 1.00000000   0.286E+02       0.007     2149.717   0.100E-11
     TRS4 it   2 1.00000000   0.234E+02       0.013     2188.039   0.100E-11
     TRS4 it   3 1.00000000   0.156E+02       0.013     2186.964   0.100E-11
     TRS4 it   4 1.00000000   0.914E+01       0.013     2173.785   0.100E-11
     TRS4 it   5 1.00000000   0.383E+01       0.013     2180.124   0.100E-11
     TRS4 it   6 1.00000000   0.984E+00       0.013     2179.426   0.100E-11
     TRS4 it   7 1.00000000   0.121E+00       0.013     2194.539   0.100E-11
     TRS4 it   8 1.00000000   0.276E-02       0.013     2177.402   0.100E-11
     TRS4 it   9 1.00000000   0.203E-05       0.013     2188.289   0.100E-11
     TRS4 it  10 1.00000000   0.314E-11       0.013     2164.399   0.100E-11
     Final TRS4 iteration   10 1.00000000   0.314E-11
     Chemical potential (mu):       0.05576
 
 PAO| energy:  -191.21752226178978      penalty:   4.9845943015931489E-004
 PAO|LS| adapt:  T T F
 PAO|LS| adapt: scan_steps:    0.0000000000000000       0.39394941299993907        0.0000000000000000     
 PAO|LS| adapt: energies:   -191.21337646708344       -191.21752226178978        0.0000000000000000     
 PAO| ======================= Iteration:        18 =============================

     Lanczos converged:  F threshold:   0.100E-02
     Est. extremal eigenvalues:    0.477E+01   0.136E+00
     Est. condition number :    0.352E+02

 Order=           3
     NS sqrt iter    1 1.00000000   0.123E+01       0.021     2697.231
     NS sqrt iter    2 1.00000000   0.622E+00       0.034     3341.943
     NS sqrt iter    3 1.00000000   0.198E+00       0.034     3358.683
     NS sqrt iter    4 1.00000000   0.242E-01       0.034     3347.610
     NS sqrt iter    5 1.00000000   0.962E-04       0.034     3360.448
     NS sqrt iter    6 1.00000000   0.162E-10       0.017     2170.967
     Symmetrizing Results
     Final NS sqrt iter    6 1.00000000   0.204E-11

     Est. extremal eigenvalues     -0.84859     2.56214  converged:  T
     TRS4 it   1 1.00000000   0.286E+02       0.007     2117.771   0.100E-11
     TRS4 it   2 1.00000000   0.234E+02       0.013     2203.763   0.100E-11
     TRS4 it   3 1.00000000   0.156E+02       0.013     2159.818   0.100E-11
     TRS4 it   4 1.00000000   0.910E+01       0.013     2192.686   0.100E-11
     TRS4 it   5 1.00000000   0.379E+01       0.013     2202.198   0.100E-11
     TRS4 it   6 1.00000000   0.964E+00       0.013     2196.496   0.100E-11
     TRS4 it   7 1.00000000   0.116E+00       0.013     2192.828   0.100E-11
     TRS4 it   8 1.00000000   0.255E-02       0.013     2157.827   0.100E-11
     TRS4 it   9 1.00000000   0.175E-05       0.013     2191.187   0.100E-11
     TRS4 it  10 1.00000000   0.237E-11       0.013     2186.163   0.100E-11
     Final TRS4 iteration   10 1.00000000   0.237E-11
     Chemical potential (mu):       0.05694
 
 PAO| energy:  -191.14826617446431      penalty:   4.9820707924714278E-004
 PAO|LS| adapt:  T T T
 PAO|LS| adapt: scan_steps:    0.0000000000000000       0.39394941299993907       0.78789882599987815     
 PAO|LS| adapt: energies:   -191.21337646708344       -191.21752226178978       -191.14826617446431     
 PAO|LS| adapt: suggested step_size:   0.21922527209548728     
 PAO|LS| adapt: predicted energy  -191.22474167852610     
 PAO| ======================= Iteration:        19 =============================

     Lanczos converged:  F threshold:   0.100E-02
     Est. extremal eigenvalues:    0.482E+01   0.135E+00
     Est. condition number :    0.356E+02

 Order=           3
     NS sqrt iter    1 1.00000000   0.124E+01       0.021     2700.709
     NS sqrt iter    2 1.00000000   0.630E+00       0.034     3346.996
     NS sqrt iter    3 1.00000000   0.201E+00       0.034     3336.826
     NS sqrt iter    4 1.00000000   0.253E-01       0.034     3347.973
     NS sqrt iter    5 1.00000000   0.110E-03       0.034     3341.765
     NS sqrt iter    6 1.00000000   0.243E-10       0.019     2170.675
     Symmetrizing Results
     Final NS sqrt iter    6 1.00000000   0.215E-11

     Est. extremal eigenvalues     -0.84861     2.56560  converged:  T
     TRS4 it   1 1.00000000   0.286E+02       0.007     2114.131   0.100E-11
     TRS4 it   2 1.00000000   0.234E+02       0.013     2192.781   0.100E-11
     TRS4 it   3 1.00000000   0.156E+02       0.013     2202.798   0.100E-11
     TRS4 it   4 1.00000000   0.916E+01       0.013     2183.571   0.100E-11
     TRS4 it   5 1.00000000   0.385E+01       0.013     2225.779   0.100E-11
     TRS4 it   6 1.00000000   0.994E+00       0.013     2194.517   0.100E-11
     TRS4 it   7 1.00000000   0.123E+00       0.013     2174.600   0.100E-11
     TRS4 it   8 1.00000000   0.286E-02       0.013     2191.825   0.100E-11
     TRS4 it   9 1.00000000   0.217E-05       0.013     2153.777   0.100E-11
     TRS4 it  10 1.00000000   0.355E-11       0.013     2214.829   0.100E-11
     Final TRS4 iteration   10 1.00000000   0.355E-11
     Chemical potential (mu):       0.05526
 
 PAO| energy:  -191.22472903330166      penalty:   5.0095343128107341E-004
 PAO|CG| trace_G_new    2.0645842953769422E-002
 PAO|CG| trace_G_prev   0.10375410361070124     
 PAO|CG| trace_G_mix   -3.4177987150015737E-004
 PAO|CG| trace_D   0.15531621614352023     
 PAO|CG| trace_D_Gnew  -4.3755457366595907E-005
 PAO|CG| beta:   0.20228233963658770     
 PAO| norm of gradient:  0.14368661369024402     
 PAO| energy improvement:  -1.1352566218221227E-002
 PAO| step     19                 -191.224729033  0.281E-03  0.219E+00     1.488
 PAO|LS| adapt:  T F F
 PAO|LS| adapt: scan_steps:    0.0000000000000000        0.0000000000000000        0.0000000000000000     
 PAO|LS| adapt: energies:   -191.22472903330166        0.0000000000000000        0.0000000000000000     
 PAO| ======================= Iteration:        20 =============================

     Lanczos converged:  F threshold:   0.100E-02
     Est. extremal eigenvalues:    0.482E+01   0.135E+00
     Est. condition number :    0.357E+02

 Order=           3
     NS sqrt iter    1 1.00000000   0.124E+01       0.021     2680.082
     NS sqrt iter    2 1.00000000   0.629E+00       0.034     3369.876
     NS sqrt iter    3 1.00000000   0.201E+00       0.034     3360.247
     NS sqrt iter    4 1.00000000   0.253E-01       0.034     3347.813
     NS sqrt iter    5 1.00000000   0.110E-03       0.034     3345.654
     NS sqrt iter    6 1.00000000   0.239E-10       0.019     2191.264
     Symmetrizing Results
     Final NS sqrt iter    6 1.00000000   0.215E-11

     Est. extremal eigenvalues     -0.84863     2.56436  converged:  T
     TRS4 it   1 1.00000000   0.286E+02       0.007     2119.475   0.100E-11
     TRS4 it   2 1.00000000   0.234E+02       0.013     2170.204   0.100E-11
     TRS4 it   3 1.00000000   0.156E+02       0.013     2211.265   0.100E-11
     TRS4 it   4 1.00000000   0.915E+01       0.013     2175.942   0.100E-11
     TRS4 it   5 1.00000000   0.384E+01       0.013     2199.861   0.100E-11
     TRS4 it   6 1.00000000   0.989E+00       0.013     2184.218   0.100E-11
     TRS4 it   7 1.00000000   0.122E+00       0.013     2191.514   0.100E-11
     TRS4 it   8 1.00000000   0.281E-02       0.013     2184.797   0.100E-11
     TRS4 it   9 1.00000000   0.210E-05       0.013     2193.783   0.100E-11
     TRS4 it  10 1.00000000   0.332E-11       0.013     2186.138   0.100E-11
     Final TRS4 iteration   10 1.00000000   0.332E-11
     Chemical potential (mu):       0.05546
 
 PAO| energy:  -191.22838447112025      penalty:   4.9136889957238626E-004
 PAO|LS| adapt:  T T F
 PAO|LS| adapt: scan_steps:    0.0000000000000000       0.21922527209548728        0.0000000000000000     
 PAO|LS| adapt: energies:   -191.22472903330166       -191.22838447112025        0.0000000000000000     
 PAO| ======================= Iteration:        21 =============================

     Lanczos converged:  F threshold:   0.100E-02
     Est. extremal eigenvalues:    0.482E+01   0.135E+00
     Est. condition number :    0.357E+02

 Order=           3
     NS sqrt iter    1 1.00000000   0.124E+01       0.021     2707.752
     NS sqrt iter    2 1.00000000   0.629E+00       0.034     3352.582
     NS sqrt iter    3 1.00000000   0.201E+00       0.034     3360.946
     NS sqrt iter    4 1.00000000   0.253E-01       0.034     3359.427
     NS sqrt iter    5 1.00000000   0.109E-03       0.034     3363.932
     NS sqrt iter    6 1.00000000   0.236E-10       0.018     2194.026
     Symmetrizing Results
     Final NS sqrt iter    6 1.00000000   0.217E-11

     Est. extremal eigenvalues     -0.84864     2.56310  converged:  T
     TRS4 it   1 1.00000000   0.286E+02       0.007     2116.269   0.100E-11
     TRS4 it   2 1.00000000   0.234E+02       0.013     2192.011   0.100E-11
     TRS4 it   3 1.00000000   0.156E+02       0.013     2177.473   0.100E-11
     TRS4 it   4 1.00000000   0.914E+01       0.013     2189.955   0.100E-11
     TRS4 it   5 1.00000000   0.383E+01       0.013     2168.344   0.100E-11
     TRS4 it   6 1.00000000   0.985E+00       0.013     2190.268   0.100E-11
     TRS4 it   7 1.00000000   0.121E+00       0.013     2165.043   0.100E-11
     TRS4 it   8 1.00000000   0.277E-02       0.013     2192.651   0.100E-11
     TRS4 it   9 1.00000000   0.204E-05       0.013     2163.261   0.100E-11
     TRS4 it  10 1.00000000   0.315E-11       0.013     2197.881   0.100E-11
     Final TRS4 iteration   10 1.00000000   0.315E-11
     Chemical potential (mu):       0.05567
 
 PAO| energy:  -191.23028178092756      penalty:   4.8218604745520763E-004
 PAO|LS| adapt:  T T F
 PAO|LS| adapt: scan_steps:    0.0000000000000000       0.43845054419097457        0.0000000000000000     
 PAO|LS| adapt: energies:   -191.22472903330166       -191.23028178092756        0.0000000000000000     
 PAO| ======================= Iteration:        22 =============================

     Lanczos converged:  F threshold:   0.100E-02
     Est. extremal eigenvalues:    0.481E+01   0.134E+00
     Est. condition number :    0.357E+02

 Order=           3
     NS sqrt iter    1 1.00000000   0.124E+01       0.021     2699.515
     NS sqrt iter    2 1.00000000   0.628E+00       0.034     3357.093
     NS sqrt iter    3 1.00000000   0.201E+00       0.034     3354.003
     NS sqrt iter    4 1.00000000   0.253E-01       0.034     3368.328
     NS sqrt iter    5 1.00000000   0.109E-03       0.034     3354.472
     NS sqrt iter    6 1.00000000   0.231E-10       0.018     2179.200
     Symmetrizing Results
     Final NS sqrt iter    6 1.00000000   0.216E-11

     Est. extremal eigenvalues     -0.84867     2.56054  converged:  T
     TRS4 it   1 1.00000000   0.286E+02       0.007     2140.581   0.100E-11
     TRS4 it   2 1.00000000   0.234E+02       0.013     2203.656   0.100E-11
     TRS4 it   3 1.00000000   0.156E+02       0.013     2181.040   0.100E-11
     TRS4 it   4 1.00000000   0.911E+01       0.013     2194.485   0.100E-11
     TRS4 it   5 1.00000000   0.381E+01       0.013     2211.794   0.100E-11
     TRS4 it   6 1.00000000   0.975E+00       0.013     2198.187   0.100E-11
     TRS4 it   7 1.00000000   0.119E+00       0.013     2199.019   0.100E-11
     TRS4 it   8 1.00000000   0.268E-02       0.013     2218.535   0.100E-11
     TRS4 it   9 1.00000000   0.191E-05       0.013     2199.199   0.100E-11
     TRS4 it  10 1.00000000   0.279E-11       0.013     2200.294   0.100E-11
     Final TRS4 iteration   10 1.00000000   0.279E-11
     Chemical potential (mu):       0.05608
 
 PAO| energy:  -191.22872378658343      penalty:   4.6499982678500928E-004
 PAO|LS| Need extra step
 PAO|LS| adapt:  T T T
 PAO|LS| adapt: scan_steps:    0.0000000000000000       0.43845054419097457       0.87690108838194913     
 PAO|LS| adapt: energies:   -191.22472903330166       -191.23028178092756       -191.22872378658343     
 PAO|LS| adapt: suggested step_size:   0.56160940424284145     
 PAO|LS| adapt: predicted energy  -191.23056230815399     
 PAO| ======================= Iteration:        23 =============================

     Lanczos converged:  F threshold:   0.100E-02
     Est. extremal eigenvalues:    0.481E+01   0.135E+00
     Est. condition number :    0.357E+02

 Order=           3
     NS sqrt iter    1 1.00000000   0.124E+01       0.021     2654.232
     NS sqrt iter    2 1.00000000   0.628E+00       0.034     3324.434
     NS sqrt iter    3 1.00000000   0.201E+00       0.034     3351.555
     NS sqrt iter    4 1.00000000   0.253E-01       0.034     3357.536
     NS sqrt iter    5 1.00000000   0.109E-03       0.034     3370.711
     NS sqrt iter    6 1.00000000   0.235E-10       0.018     2177.499
     Symmetrizing Results
     Final NS sqrt iter    6 1.00000000   0.217E-11

     Est. extremal eigenvalues     -0.84865     2.56238  converged:  T
     TRS4 it   1 1.00000000   0.286E+02       0.007     2131.197   0.100E-11
     TRS4 it   2 1.00000000   0.234E+02       0.013     2171.648   0.100E-11
     TRS4 it   3 1.00000000   0.156E+02       0.013     2158.888   0.100E-11
     TRS4 it   4 1.00000000   0.913E+01       0.013     2194.047   0.100E-11
     TRS4 it   5 1.00000000   0.382E+01       0.013     2174.542   0.100E-11
     TRS4 it   6 1.00000000   0.982E+00       0.013     2196.440   0.100E-11
     TRS4 it   7 1.00000000   0.120E+00       0.013     2194.433   0.100E-11
     TRS4 it   8 1.00000000   0.274E-02       0.013     2193.438   0.100E-11
     TRS4 it   9 1.00000000   0.200E-05       0.013     2190.658   0.100E-11
     TRS4 it  10 1.00000000   0.304E-11       0.013     2198.746   0.100E-11
     Final TRS4 iteration   10 1.00000000   0.304E-11
     Chemical potential (mu):       0.05578
 
 PAO| energy:  -191.23056907402258      penalty:   4.7720083891689298E-004
 PAO|CG| trace_G_new    1.5643064467992723E-002
 PAO|CG| trace_G_prev    2.0645842953769422E-002
 PAO|CG| trace_G_mix    1.1013500148960304E-004
 PAO|CG| trace_D    2.7018796308306819E-002
 PAO|CG| trace_D_Gnew  -4.5578920188677592E-005
 PAO|CG| beta:   0.75235142983915748     
 PAO| norm of gradient:  0.12507223699923467     
 PAO| energy improvement:  -5.8400407209262539E-003
 PAO| step     23                 -191.230569074  0.244E-03  0.562E+00     1.934
 PAO|LS| adapt:  T F F
 PAO|LS| adapt: scan_steps:    0.0000000000000000        0.0000000000000000        0.0000000000000000     
 PAO|LS| adapt: energies:   -191.23056907402258        0.0000000000000000        0.0000000000000000     
 PAO| ======================= Iteration:        24 =============================

     Lanczos converged:  F threshold:   0.100E-02
     Est. extremal eigenvalues:    0.480E+01   0.134E+00
     Est. condition number :    0.357E+02

 Order=           3
     NS sqrt iter    1 1.00000000   0.124E+01       0.021     2690.958
     NS sqrt iter    2 1.00000000   0.627E+00       0.034     3351.095
     NS sqrt iter    3 1.00000000   0.201E+00       0.034     3359.601
     NS sqrt iter    4 1.00000000   0.253E-01       0.034     3374.963
     NS sqrt iter    5 1.00000000   0.109E-03       0.034     3348.235
     NS sqrt iter    6 1.00000000   0.233E-10       0.018     2180.811
     Symmetrizing Results
     Final NS sqrt iter    6 1.00000000   0.216E-11

     Est. extremal eigenvalues     -0.84868     2.55895  converged:  T
     TRS4 it   1 1.00000000   0.286E+02       0.007     2123.416   0.100E-11
     TRS4 it   2 1.00000000   0.234E+02       0.013     2171.393   0.100E-11
     TRS4 it   3 1.00000000   0.156E+02       0.013     2207.726   0.100E-11
     TRS4 it   4 1.00000000   0.911E+01       0.013     2183.462   0.100E-11
     TRS4 it   5 1.00000000   0.380E+01       0.013     2196.504   0.100E-11
     TRS4 it   6 1.00000000   0.972E+00       0.013     2189.212   0.100E-11
     TRS4 it   7 1.00000000   0.118E+00       0.013     2186.929   0.100E-11
     TRS4 it   8 1.00000000   0.264E-02       0.013     2205.398   0.100E-11
     TRS4 it   9 1.00000000   0.186E-05       0.013     2209.678   0.100E-11
     TRS4 it  10 1.00000000   0.263E-11       0.013     2187.352   0.100E-11
     Final TRS4 iteration   10 1.00000000   0.263E-11
     Chemical potential (mu):       0.05625
 
 PAO| energy:  -191.23359591738287      penalty:   4.4035527321574931E-004
 PAO|LS| adapt:  T T F
 PAO|LS| adapt: scan_steps:    0.0000000000000000       0.56160940424284145        0.0000000000000000     
 PAO|LS| adapt: energies:   -191.23056907402258       -191.23359591738287        0.0000000000000000     
 PAO| ======================= Iteration:        25 =============================

     Lanczos converged:  F threshold:   0.100E-02
     Est. extremal eigenvalues:    0.479E+01   0.134E+00
     Est. condition number :    0.357E+02

 Order=           3
     NS sqrt iter    1 1.00000000   0.123E+01       0.021     2690.026
     NS sqrt iter    2 1.00000000   0.626E+00       0.034     3343.948
     NS sqrt iter    3 1.00000000   0.201E+00       0.033     3383.974
     NS sqrt iter    4 1.00000000   0.253E-01       0.034     3343.149
     NS sqrt iter    5 1.00000000   0.109E-03       0.034     3344.380
     NS sqrt iter    6 1.00000000   0.231E-10       0.018     2178.239
     Symmetrizing Results
     Final NS sqrt iter    6 1.00000000   0.216E-11

     Est. extremal eigenvalues     -0.84870     2.55533  converged:  T
     TRS4 it   1 1.00000000   0.286E+02       0.007     2108.293   0.100E-11
     TRS4 it   2 1.00000000   0.233E+02       0.013     2195.081   0.100E-11
     TRS4 it   3 1.00000000   0.156E+02       0.013     2186.700   0.100E-11
     TRS4 it   4 1.00000000   0.908E+01       0.013     2168.071   0.100E-11
     TRS4 it   5 1.00000000   0.377E+01       0.013     2189.786   0.100E-11
     TRS4 it   6 1.00000000   0.961E+00       0.013     2183.509   0.100E-11
     TRS4 it   7 1.00000000   0.116E+00       0.013     2197.866   0.100E-11
     TRS4 it   8 1.00000000   0.254E-02       0.013     2203.777   0.100E-11
     TRS4 it   9 1.00000000   0.173E-05       0.013     2189.232   0.100E-11
     TRS4 it  10 1.00000000   0.228E-11       0.013     2179.985   0.100E-11
     Final TRS4 iteration   10 1.00000000   0.228E-11
     Chemical potential (mu):       0.05674
 
 PAO| energy:  -191.22487183369225      penalty:   4.0724224091320143E-004
 PAO|LS| adapt:  T T T
 PAO|LS| adapt: scan_steps:    0.0000000000000000       0.56160940424284145        1.1232188084856829     
 PAO|LS| adapt: energies:   -191.23056907402258       -191.23359591738287       -191.22487183369225     
 PAO|LS| adapt: suggested step_size:   0.42546594365096574     
 PAO|LS| adapt: predicted energy  -191.23394119383681     
 PAO| ======================= Iteration:        26 =============================

     Lanczos converged:  F threshold:   0.100E-02
     Est. extremal eigenvalues:    0.480E+01   0.135E+00
     Est. condition number :    0.357E+02

 Order=           3
     NS sqrt iter    1 1.00000000   0.124E+01       0.021     2679.253
     NS sqrt iter    2 1.00000000   0.628E+00       0.034     3352.677
     NS sqrt iter    3 1.00000000   0.201E+00       0.034     3347.554
     NS sqrt iter    4 1.00000000   0.253E-01       0.034     3352.681
     NS sqrt iter    5 1.00000000   0.109E-03       0.034     3367.735
     NS sqrt iter    6 1.00000000   0.233E-10       0.018     2190.158
     Symmetrizing Results
     Final NS sqrt iter    6 1.00000000   0.217E-11

     Est. extremal eigenvalues     -0.84868     2.55980  converged:  T
     TRS4 it   1 1.00000000   0.286E+02       0.007     2116.637   0.100E-11
     TRS4 it   2 1.00000000   0.234E+02       0.013     2190.089   0.100E-11
     TRS4 it   3 1.00000000   0.156E+02       0.013     2172.387   0.100E-11
     TRS4 it   4 1.00000000   0.911E+01       0.013     2185.483   0.100E-11
     TRS4 it   5 1.00000000   0.380E+01       0.013     2178.150   0.100E-11
     TRS4 it   6 1.00000000   0.974E+00       0.013     2187.368   0.100E-11
     TRS4 it   7 1.00000000   0.118E+00       0.013     2195.117   0.100E-11
     TRS4 it   8 1.00000000   0.266E-02       0.013     2190.142   0.100E-11
     TRS4 it   9 1.00000000   0.189E-05       0.013     2200.568   0.100E-11
     TRS4 it  10 1.00000000   0.273E-11       0.013     2194.846   0.100E-11
     Final TRS4 iteration   10 1.00000000   0.273E-11
     Chemical potential (mu):       0.05614
 
 PAO| energy:  -191.23392996463781      penalty:   4.4893800765928739E-004
 PAO|CG| trace_G_new    1.2284276985145793E-002
 PAO|CG| trace_G_prev    1.5643064467992723E-002
 PAO|CG| trace_G_mix    2.3010269693046217E-004
 PAO|CG| trace_D    3.1005168721681225E-002
 PAO|CG| trace_D_Gnew  -7.2003665765627396E-005
 PAO|CG| beta:   0.77057627122098615     
 PAO| norm of gradient:  0.11083445757139695     
 PAO| energy improvement:  -3.3608906152267082E-003
 PAO| step     26                 -191.233929965  0.216E-03  0.425E+00     1.491
 PAO|LS| adapt:  T F F
 PAO|LS| adapt: scan_steps:    0.0000000000000000        0.0000000000000000        0.0000000000000000     
 PAO|LS| adapt: energies:   -191.23392996463781        0.0000000000000000        0.0000000000000000     
 PAO| ======================= Iteration:        27 =============================

     Lanczos converged:  F threshold:   0.100E-02
     Est. extremal eigenvalues:    0.479E+01   0.134E+00
     Est. condition number :    0.357E+02

 Order=           3
     NS sqrt iter    1 1.00000000   0.123E+01       0.021     2701.228
     NS sqrt iter    2 1.00000000   0.626E+00       0.034     3362.924
     NS sqrt iter    3 1.00000000   0.200E+00       0.034     3349.901
     NS sqrt iter    4 1.00000000   0.252E-01       0.034     3364.338
     NS sqrt iter    5 1.00000000   0.109E-03       0.034     3366.891
     NS sqrt iter    6 1.00000000   0.233E-10       0.018     2182.481
     Symmetrizing Results
     Final NS sqrt iter    6 1.00000000   0.216E-11

     Est. extremal eigenvalues     -0.84870     2.55737  converged:  T
     TRS4 it   1 1.00000000   0.286E+02       0.007     2131.549   0.100E-11
     TRS4 it   2 1.00000000   0.234E+02       0.013     2208.632   0.100E-11
     TRS4 it   3 1.00000000   0.156E+02       0.013     2191.413   0.100E-11
     TRS4 it   4 1.00000000   0.909E+01       0.013     2187.366   0.100E-11
     TRS4 it   5 1.00000000   0.378E+01       0.013     2197.549   0.100E-11
     TRS4 it   6 1.00000000   0.965E+00       0.013     2205.333   0.100E-11
     TRS4 it   7 1.00000000   0.116E+00       0.013     2190.521   0.100E-11
     TRS4 it   8 1.00000000   0.258E-02       0.013     2213.838   0.100E-11
     TRS4 it   9 1.00000000   0.178E-05       0.013     2181.536   0.100E-11
     TRS4 it  10 1.00000000   0.242E-11       0.013     2201.583   0.100E-11
     Final TRS4 iteration   10 1.00000000   0.242E-11
     Chemical potential (mu):       0.05658
 
 PAO| energy:  -191.23637117846991      penalty:   4.1389091686321831E-004
 PAO|LS| adapt:  T T F
 PAO|LS| adapt: scan_steps:    0.0000000000000000       0.42546594365096574        0.0000000000000000     
 PAO|LS| adapt: energies:   -191.23392996463781       -191.23637117846991        0.0000000000000000     
 PAO| ======================= Iteration:        28 =============================

     Lanczos converged:  F threshold:   0.100E-02
     Est. extremal eigenvalues:    0.478E+01   0.134E+00
     Est. condition number :    0.357E+02

 Order=           3
     NS sqrt iter    1 1.00000000   0.123E+01       0.021     2656.960
     NS sqrt iter    2 1.00000000   0.625E+00       0.034     3349.886
     NS sqrt iter    3 1.00000000   0.200E+00       0.034     3346.875
     NS sqrt iter    4 1.00000000   0.251E-01       0.034     3350.287
     NS sqrt iter    5 1.00000000   0.109E-03       0.034     3351.444
     NS sqrt iter    6 1.00000000   0.233E-10       0.019     2179.179
     Symmetrizing Results
     Final NS sqrt iter    6 1.00000000   0.217E-11

     Est. extremal eigenvalues     -0.84871     2.55481  converged:  T
     TRS4 it   1 1.00000000   0.286E+02       0.007     2157.814   0.100E-11
     TRS4 it   2 1.00000000   0.233E+02       0.013     2165.276   0.100E-11
     TRS4 it   3 1.00000000   0.156E+02       0.013     2163.596   0.100E-11
     TRS4 it   4 1.00000000   0.907E+01       0.013     2193.668   0.100E-11
     TRS4 it   5 1.00000000   0.377E+01       0.013     2186.070   0.100E-11
     TRS4 it   6 1.00000000   0.956E+00       0.013     2189.114   0.100E-11
     TRS4 it   7 1.00000000   0.114E+00       0.013     2182.583   0.100E-11
     TRS4 it   8 1.00000000   0.249E-02       0.013     2188.341   0.100E-11
     TRS4 it   9 1.00000000   0.167E-05       0.013     2205.182   0.100E-11
     TRS4 it  10 1.00000000   0.214E-11       0.013     2188.444   0.100E-11
     Final TRS4 iteration   10 1.00000000   0.214E-11
     Chemical potential (mu):       0.05701
 
 PAO| energy:  -191.23314646499634      penalty:   3.8169055795930795E-004
 PAO|LS| adapt:  T T T
 PAO|LS| adapt: scan_steps:    0.0000000000000000       0.42546594365096574       0.85093188730193148     
 PAO|LS| adapt: energies:   -191.23392996463781       -191.23637117846991       -191.23314646499634     
 PAO|LS| adapt: suggested step_size:   0.39604865709531040     
 PAO|LS| adapt: predicted energy  -191.23638472152419     
 PAO| ======================= Iteration:        29 =============================

     Lanczos converged:  F threshold:   0.100E-02
     Est. extremal eigenvalues:    0.479E+01   0.134E+00
     Est. condition number :    0.357E+02

 Order=           3
     NS sqrt iter    1 1.00000000   0.123E+01       0.021     2686.134
     NS sqrt iter    2 1.00000000   0.626E+00       0.034     3354.228
     NS sqrt iter    3 1.00000000   0.200E+00       0.034     3352.489
     NS sqrt iter    4 1.00000000   0.252E-01       0.034     3364.109
     NS sqrt iter    5 1.00000000   0.109E-03       0.034     3364.371
     NS sqrt iter    6 1.00000000   0.233E-10       0.019     2169.676
     Symmetrizing Results
     Final NS sqrt iter    6 1.00000000   0.216E-11

     Est. extremal eigenvalues     -0.84870     2.55755  converged:  T
     TRS4 it   1 1.00000000   0.286E+02       0.007     2152.406   0.100E-11
     TRS4 it   2 1.00000000   0.234E+02       0.013     2188.543   0.100E-11
     TRS4 it   3 1.00000000   0.156E+02       0.013     2186.264   0.100E-11
     TRS4 it   4 1.00000000   0.909E+01       0.013     2200.128   0.100E-11
     TRS4 it   5 1.00000000   0.379E+01       0.013     2173.897   0.100E-11
     TRS4 it   6 1.00000000   0.966E+00       0.013     2179.540   0.100E-11
     TRS4 it   7 1.00000000   0.117E+00       0.013     2189.102   0.100E-11
     TRS4 it   8 1.00000000   0.258E-02       0.013     2173.014   0.100E-11
     TRS4 it   9 1.00000000   0.179E-05       0.013     2193.546   0.100E-11
[...]
     TRS4 it   5 1.00000000   0.423E+01       0.013     2183.061   0.100E-11
     TRS4 it   6 1.00000000   0.131E+01       0.013     2204.567   0.100E-11
     TRS4 it   7 1.00000000   0.228E+00       0.013     2176.250   0.100E-11
     TRS4 it   8 1.00000000   0.105E-01       0.013     2179.102   0.100E-11
     TRS4 it   9 1.00000000   0.318E-04       0.013     2192.570   0.100E-11
     TRS4 it  10 1.00000000   0.724E-09       0.013     2197.167   0.100E-11
     TRS4 it  11 1.00000000   0.124E-13       0.013     2181.063   0.100E-11
     Final TRS4 iteration   11 1.00000000   0.124E-13
     Chemical potential (mu):       0.02953
 
 PAO| energy:  -190.85176719576967      penalty:   1.2985138057643594E-008
 PAO| Writing restart file.
     Est. extremal eigenvalues     -0.84909     2.51138  converged:  T
     TRS4 it   1 1.00000000   0.287E+02       0.007     2130.173   0.100E-11
     TRS4 it   2 1.00000000   0.233E+02       0.013     2168.389   0.100E-11
     TRS4 it   3 1.00000000   0.157E+02       0.013     2193.567   0.100E-11
     TRS4 it   4 1.00000000   0.939E+01       0.013     2181.489   0.100E-11
     TRS4 it   5 1.00000000   0.423E+01       0.013     2160.090   0.100E-11
     TRS4 it   6 1.00000000   0.131E+01       0.013     2174.966   0.100E-11
     TRS4 it   7 1.00000000   0.228E+00       0.013     2203.989   0.100E-11
     TRS4 it   8 1.00000000   0.105E-01       0.013     2176.717   0.100E-11
     TRS4 it   9 1.00000000   0.318E-04       0.013     2199.425   0.100E-11
     TRS4 it  10 1.00000000   0.724E-09       0.013     2187.855   0.100E-11
     TRS4 it  11 1.00000000   0.124E-13       0.013     2182.734   0.100E-11
     Final TRS4 iteration   11 1.00000000   0.124E-13
     Chemical potential (mu):       0.02953

 SCF     1     -1103.036336671     -1103.036336671    1.780274

*********************************************************
 Using MIXING_FRACTION=0.450 to mix KS matrix:  iscf=  2
 KS_nw=0.450*KS + 0.550*KS_old
*********************************************************
     Est. extremal eigenvalues     -0.84909     2.51138  converged:  T
     TRS4 it   1 1.00000000   0.287E+02       0.007     2142.402   0.100E-11
     TRS4 it   2 1.00000000   0.233E+02       0.013     2178.902   0.100E-11
     TRS4 it   3 1.00000000   0.157E+02       0.013     2150.027   0.100E-11
     TRS4 it   4 1.00000000   0.939E+01       0.013     2195.159   0.100E-11
     TRS4 it   5 1.00000000   0.423E+01       0.013     2183.375   0.100E-11
     TRS4 it   6 1.00000000   0.131E+01       0.013     2183.736   0.100E-11
     TRS4 it   7 1.00000000   0.228E+00       0.013     2176.526   0.100E-11
     TRS4 it   8 1.00000000   0.105E-01       0.013     2169.865   0.100E-11
     TRS4 it   9 1.00000000   0.318E-04       0.013     2192.614   0.100E-11
     TRS4 it  10 1.00000000   0.724E-09       0.013     2188.208   0.100E-11
     TRS4 it  11 1.00000000   0.142E-13       0.013     2194.154   0.100E-11
     Final TRS4 iteration   11 1.00000000   0.142E-13
     Chemical potential (mu):       0.02953

 SCF     2     -1103.036336672        -0.000000000    1.775784


 SCF run converged in     2 steps.

 PAO| Storing density matrix for ASPC guess in slot:           1

 ENERGY| Total FORCE_EVAL ( QS ) energy [a.u.]:            -1103.036336671535537

 -------------------------------------------------------------------------------
 -                                                                             -
 -                                DBCSR STATISTICS                             -
 -                                                                             -
 -------------------------------------------------------------------------------
 COUNTER                                    TOTAL       BLAS       SMM       ACC
 flops     5 x     5 x     4             26419200       0.0%    100.0%      0.0%     
 flops    13 x     5 x     4             34078720       0.0%    100.0%      0.0%     
 flops     5 x    13 x     4             34078720       0.0%    100.0%      0.0%     
 flops    13 x    13 x     4             44994560       0.0%    100.0%      0.0%     
 flops     4 x     4 x     5           6315048960       0.0%    100.0%      0.0%     
 flops     5 x     4 x     5           7798784000       0.0%    100.0%      0.0%     
 flops     4 x     4 x    13           8209563648       0.0%    100.0%      0.0%     
 flops    13 x     4 x     5          10138419200       0.0%    100.0%      0.0%     
 flops     5 x     4 x    13          10138419200       0.0%    100.0%      0.0%     
 flops    13 x     4 x    13          13179944960       0.0%    100.0%      0.0%     
 flops     5 x     4 x     4         394383052960       0.0%    100.0%      0.0%     
 flops    13 x     4 x     4         522318445792       0.0%    100.0%      0.0%     
 flops     4 x     4 x     4       28769743115520       0.0%    100.0%      0.0%     
 flops inhomo. stacks                           0       0.0%      0.0%      0.0%
 flops total                        29.742364E+12       0.0%    100.0%      0.0%
 flops max/rank                    938.780871E+09       0.0%    100.0%      0.0%
 matmuls inhomo. stacks                         0       0.0%      0.0%      0.0%
 matmuls total                       228631321710       0.0%    100.0%      0.0%
 number of processed stacks             233606288       0.0%    100.0%      0.0%
 average stack size                                     0.0     978.7       0.0
 marketing flops                    51.961970E+12
 -------------------------------------------------------------------------------
 # multiplications                          48751
 max memory usage/rank             618.508288E+06
 # max total images/rank                        2
 # max 3D layers                                1
 # MPI messages exchanged                20280416
 MPI messages size (bytes):
  total size                         2.390946E+12
  min size                           0.000000E+00
  max size                         541.696000E+03
  average size                     117.894336E+03
 MPI breakdown and total messages size (bytes):
             size <=      128              867081                    16128
       128 < size <=     8192              318549               1279670912
      8192 < size <=    32768               87166               1898332800
     32768 < size <=   131072             8675702             632444277120
    131072 < size <=  4194304            10331918            1755699740416
   4194304 < size <= 16777216                   0                        0
  16777216 < size                               0                        0
 -------------------------------------------------------------------------------

 *** WARNING in dbcsr_mm.F:301 :: Using a non-square number of MPI ranks ***
 *** might lead to poor performance. Used ranks: 32 Suggested: 36 64     ***

 -------------------------------------------------------------------------------
 -                                                                             -
 -                      DBCSR MESSAGE PASSING PERFORMANCE                      -
 -                                                                             -
 -------------------------------------------------------------------------------
 ROUTINE             CALLS      AVE VOLUME [Bytes]
 MP_Bcast               14                     12.
 MP_Allreduce       293442                     37.
 MP_Alltoall        125837                  14565.
 MP_ISend          1631604                  54831.
 MP_IRecv          1595818                  56134.
 -------------------------------------------------------------------------------

 -------------------------------------------------------------------------------
 -                                                                             -
 -                                DBM STATISTICS                               -
 -                                                                             -
 -------------------------------------------------------------------------------
    M  x    N  x    K                                          COUNT     PERCENT
 -------------------------------------------------------------------------------

 -------------------------------------------------------------------------------
 -                                                                             -
 -                                GRID STATISTICS                              -
 -                                                                             -
 -------------------------------------------------------------------------------
 LP    KERNEL             BACKEND                              COUNT     PERCENT
 2     collocate ortho    CPU                               13109168      28.83%
 2     integrate ortho    CPU                               13109168      28.83%
 3     collocate ortho    CPU                                8427184      18.53%
 3     integrate ortho    CPU                                8427184      18.53%
 4     collocate ortho    CPU                                1196448       2.63%
 4     integrate ortho    CPU                                1196448       2.63%
 0     collocate general  CPU                                   6144       0.01%
 -------------------------------------------------------------------------------

 MEMORY| Estimated peak process memory [MiB]                                 591

 -------------------------------------------------------------------------------
 -                                                                             -
 -                         MESSAGE PASSING PERFORMANCE                         -
 -                                                                             -
 -------------------------------------------------------------------------------

 ROUTINE             CALLS      AVE VOLUME [Bytes]
 MP_Group                5
 MP_Bcast           375764                   1923.
 MP_Allreduce       933897                    514.
 MP_Sync                 5
 MP_Alltoall           419                3411725.
 MP_SendRecv          1488                  18832.
 MP_ISendRecv         1488                  18832.
 MP_Wait              4218
 MP_ISend             2470                 108139.
 MP_IRecv             2470                 108153.
 -------------------------------------------------------------------------------


 -------------------------------------------------------------------------------
 -                                                                             -
 -                           R E F E R E N C E S                               -
 -                                                                             -
 -------------------------------------------------------------------------------
 
 CP2K version 2024.3 (Development Version), the CP2K developers group (2024).
 CP2K is freely available from https://www.cp2k.org/ .
 
 T. D. Kuehne, M. Iannuzzi, M. Del Ben, V. V. Rybkin, P. Seewald, F. Stein, T. 
 Laino, R. Z. Khaliullin, O. Schuett, F. Schiffmann, D. Golze, J. Wilhelm, S. 
 Chulkov, M. H. Bani-Hashemian, V. Weber, U. Borstnik, M. Taillefumier, A. S. 
 Jakobovits, A. Lazzaro, H. Pabst, T. Mueller, R. Schade, M. Guidon, S. 
 Andermatt, N. Holmberg, G. K. Schenter, A. Hehn, A. Bussy, F. Belleflamme, G. 
 Tabacchi, A. Gloess, M. Lass, I. Bethune, C. J. Mundy, C. Plessl, M. Watkins, 
 J. VandeVondele, M. Krack, J. Hutter.
 J. Chem. Phys. 152, 194103 (2020).
 CP2K: An electronic structure and molecular dynamics software package - 
 Quickstep: Efficient and accurate electronic structure calculations.
 https://doi.org/10.1063/5.0007045

 O. Schuett, J. VandeVondele.
 J. Chem. Theory Comput. 14, 4168-4175 (2018).
 Machine Learning Adaptive Basis Sets for Efficient Large Scale Density 
 Functional Theory Simulation.
 https://doi.org/10.1021/acs.jctc.8b00378

 O. Schuett, P. Messmer, J. Hutter, J. VandeVondele.
 Electronic Structure Calculations on Graphics Processing Units, 173-190 (2016).
 GPU-Accelerated Sparse Matrix-Matrix Multiplication for Linear Scaling Density 
 Functional Theory.
 https://doi.org/10.1002/9781118670712.ch8

 A. Heinecke, G. Henry, M. Hutchinson, H. Pabst.
 Proceedings of Intl. Supercomputing Conference, 981-991 (2016).
 LIBXSMM: Accelerating Small Matrix Multiplications by Runtime Code Generation.
 https://doi.org/10.1109/SC.2016.83

 J. Hutter, M. Iannuzzi, F. Schiffmann, J. VandeVondele.
 WIREs Comput Mol Sci. 4, 15-25 (2014).
 CP2K: atomistic simulations of condensed matter systems.
 https://doi.org/10.1002/wcms.1159

 U. Borstnik, J. VandeVondele, V. Weber, J. Hutter.
 Parallel Comput. 40, 47-58 (2014).
 Sparse matrix multiplication: The distributed block-compressed sparse row 
 library.
 https://doi.org/10.1016/j.parco.2014.03.012

 A. Marek, V. Blum, R. Johanni, V. Havu, B. Lang, T. Auckenthaler, A. Heinecke, 
 H. Bungartz, H. Lederer.
 J. Phys. Condens. Matter 26, 213201 (2014).
 The ELPA library: scalable parallel eigenvalue solutions for electronic 
 structure theory and computational science.
 https://doi.org/10.1088/0953-8984/26/21/213201

 J. VandeVondele, U. Borstnik, J. Hutter.
 J. Chem. Theory Comput. 8, 3565-3573 (2012).
 Linear Scaling Self-Consistent Field Calculations with Millions of Atoms in the 
 Condensed Phase.
 https://doi.org/10.1021/ct200897x

 J. VandeVondele, J. Hutter.
 J. Chem. Phys. 127, 114105 (2007).
 Gaussian basis sets for accurate calculations on molecular systems in gas and 
 condensed phases.
 https://doi.org/10.1063/1.2770708

 J. VandeVondele, M. Krack, F. Mohamed, M. Parrinello, T. Chassaing, J. Hutter.
 Comput. Phys. Commun. 167, 103-128 (2005).
 QUICKSTEP: Fast and accurate density functional calculations using a mixed 
 Gaussian and plane waves approach.
 https://doi.org/10.1016/j.cpc.2004.12.014

 M. Krack.
 Theor. Chem. Acc. 114, 145-152 (2005).
 Pseudopotentials for H to Kr optimized for gradient-corrected 
 exchange-correlation functionals.
 https://doi.org/10.1007/s00214-005-0655-y

 M. Frigo, S. G. Johnson.
 Proc. IEEE 93, 216-231 (2005).
 The design and implementation of FFTW3.
 https://doi.org/10.1109/JPROC.2004.840301

 A. M. N. Niklasson, C. J. Tymczak, M. Challacombe.
 J. Chem. Phys. 118, 8611-8620 (2003).
 Trace resetting density matrix purification in O(N) self-consistent-field 
 theory.
 https://doi.org/10.1063/1.1559913

 C. Hartwigsen, S. Goedecker, J. Hutter.
 Phys. Rev. B 58, 3641-3662 (1998).
 Relativistic separable dual-space Gaussian pseudopotentials from H to Rn.
 https://doi.org/10.1103/PhysRevB.58.3641

 G. Lippert, J. Hutter, M. Parrinello.
 Mol. Phys. 92, 477-487 (1997).
 A hybrid Gaussian and plane wave density functional scheme.
 https://doi.org/10.1080/002689797170220

 S. Goedecker, M. Teter, J. Hutter.
 Phys. Rev. B 54, 1703-1710 (1996).
 Separable dual-space Gaussian pseudopotentials.
 https://doi.org/10.1103/PhysRevB.54.1703

 J. P. Perdew, K. Burke, M. Ernzerhof.
 Phys. Rev. Lett. 77, 3865-3868 (1996).
 Generalized gradient approximation made simple.
 https://doi.org/10.1103/PhysRevLett.77.3865


 -------------------------------------------------------------------------------
 -                                                                             -
 -                                T I M I N G                                  -
 -                                                                             -
 -------------------------------------------------------------------------------
 SUBROUTINE                       CALLS  ASD         SELF TIME        TOTAL TIME
                                MAXIMUM       AVERAGE  MAXIMUM  AVERAGE  MAXIMUM
 CP2K                                 1  1.0    0.012    0.015  438.035  438.036
 qs_energies                          1  2.0    0.000    0.000  437.888  437.889
 ls_scf                               1  3.0    0.000    0.000  436.863  436.864
 pao_update                           7  4.0    0.006    0.023  406.744  406.746
 pao_calc_energy                    792  5.0    0.003    0.017  364.711  364.713
 dbcsr_multiply_generic           48751  8.4    1.356    1.435  337.790  338.013
 multiply_cannon                  48751  9.4    2.535    2.981  272.421  277.274
 multiply_cannon_loop             48751 10.4    1.826    2.008  262.129  266.193
 ls_scf_init_matrix_S               799  7.0    0.008    0.010  205.526  205.607
 pao_rebuild_S                      792  6.0    0.002    0.003  203.701  203.781
 matrix_sqrt_Newton_Schulz          799  8.0    0.162    0.274  190.633  190.668
 multiply_cannon_multrec         390008 11.4  171.193  173.075  171.996  173.865
 pao_dm_trs4                        792  6.0    0.006    0.007  160.638  160.678
 density_matrix_trs4                807  7.0    0.207    0.346  155.188  155.288
 mp_waitall_1                   3121812 12.6   86.804   92.343   86.804   92.343
 multiply_cannon_metrocomm3      390008 11.4    0.679    0.737   69.546   74.705
 arnoldi_extremal                  1606  8.5    0.012    0.015   62.189   62.228
 arnoldi_normal_ev                 1606  9.5    0.036    0.062   62.173   62.210
 build_subspace                    6067 10.6    0.371    0.401   54.617   54.656
 dbcsr_matrix_vector_mult        185222 11.6    0.794    1.193   51.346   51.718
 make_m2s                         97502  9.4    0.531    0.665   49.728   50.702
 make_images                      97502 10.4    7.128    7.309   48.405   49.434
 dbcsr_matrix_vector_mult_local  185222 12.6   43.710   44.182   43.917   44.387
 pao_calc_AB                       1051  5.8    0.002    0.002   41.580   41.582
 pao_calc_AB_equi                  1051  6.8    0.039    0.097   41.578   41.580
 pao_calc_grad_lnv_wrt_AB           258  7.0    0.019    0.022   41.178   41.217
 ls_scf_main                          7  4.0    0.000    0.001   26.577   26.578
 ls_scf_dm_to_ks                     15  5.0    0.000    0.000   23.424   23.427
 make_images_data                 97502 11.4    0.849    1.001   21.260   23.186
 hybrid_alltoall_any              99095 12.3    0.873    1.715   16.582   20.296
 matrix_qs_to_ls                   1606  7.5    0.016    0.020   16.820   16.976
 mp_sum_l                        199223  9.5    8.268   14.731    8.268   14.731
 qs_ks_update_qs_env                 16  6.0    0.000    0.000   13.941   13.943
 rebuild_ks_matrix                   16  7.0    0.000    0.000   13.930   13.932
 qs_ks_build_kohn_sham_matrix        16  8.0    0.003    0.003   13.930   13.932
 calculate_norms                 728112 11.4   11.291   12.020   11.291   12.020
 make_images_pack                 97502 11.4   10.750   10.988   10.882   11.120
 qs_rho_update_rho_low               16  6.0    0.000    0.000   10.963   10.965
 calculate_rho_elec                  16  7.0    0.005    0.006   10.963   10.965
 sum_up_and_integrate                16  9.0    0.000    0.001   10.543   10.545
 integrate_v_rspace                  16 10.0    0.000    0.001   10.528   10.531
 dbcsr_multiply_generic_mpsum_f   35779  9.5    0.026    0.033    5.087   10.385
 grid_collocate_task_list            16  8.0    9.706    9.866    9.706    9.866
 grid_integrate_task_list            16 11.0    9.274    9.397    9.274    9.397
 -------------------------------------------------------------------------------

 The number of warnings for this run is : 1
 
 -------------------------------------------------------------------------------
  **** **** ******  **  PROGRAM ENDED AT                 2024-09-24 06:48:17.053
 ***** ** ***  *** **   PROGRAM RAN ON                                    moritz
 **    ****   ******    PROGRAM RAN BY                                       ole
 ***** **    ** ** **   PROGRAM PROCESS ID                                170484
  **** **  *******  **  PROGRAM STOPPED IN /home/ole/git/pao_ml_equivar/64H2O_MD
                                           /Frame6800
