     192
 i =     6800, time =    10200.000, E =     -1100.0558999032
  O         5.8748195835       -3.3592589080        2.6946188504
  H         5.7720870771       -4.2788910597        2.9444870803
  H         6.6166277055       -2.9952777140        3.2884081516
  O        -5.8727788249        1.6546763834        5.8269624394
  H        -5.4478933944        0.9889228655        5.2459624360
  H        -5.2836602066        1.7401603443        6.6013544465
  O         6.6850377366        4.3669111558        4.4197488281
  H         5.9139465318        4.6504892583        3.8594248948
  H         6.6137506264        3.4382010119        4.7276765320
  O        -2.2273168226        0.7337849791       -3.5431785280
  H        -1.9189432946        1.2052002298       -2.7023143166
  H        -1.5706122645       -0.0227512809       -3.6353791296
  O        -3.2455126128        5.1732529753        4.0611585801
  H        -4.1788042640        4.8162715785        4.0932922083
  H        -3.4942795888        6.0833855133        3.7625139361
  O         7.6489307004       -0.1273653267        3.8692912338
  H         7.4492325059       -1.0651390430        4.1450982301
  H         7.2896145206       -0.0670980499        2.8940160377
  O         4.1992525429       -5.2997067753        0.1962041334
  H         4.1342658703       -4.4550854818       -0.3008048048
  H         3.6576948541       -5.9659862630       -0.3030910335
  O        -1.0351535707       -2.3984515680       -1.0777661464
  H        -1.6304562451       -3.1307578052       -1.3200967354
  H        -1.5060876790       -1.7386296310       -0.5760698240
  O         3.3384502924       -2.9071447970        3.4959399934
  H         4.2818628419       -3.1637958036        3.2405668506
  H         2.9077941012       -2.8439481013        2.6631626639
  O         3.4366517607        2.6151708087        5.8168902197
  H         4.2772063018        2.0824243163        5.9405404044
  H         3.1887776337        3.0130400113        6.7513458893
  O         5.1540815570       -4.6736391659       -4.4462784175
  H         4.9643534940       -3.7611489659       -4.2070224183
  H         4.2820511865       -5.1236910871       -4.6624986995
  O         2.8623602472       -1.9527061467        0.8542659053
  H         2.1288897908       -2.5734089600        0.7936526154
  H         3.4221112583       -2.3708450586        0.1965628278
  O         2.6232620138       -5.6258464096       -5.2072105641
  H         2.4240388727       -6.5420953699       -5.0304765469
  H         2.5556813229       -5.4786037759       -6.1652307609
  O         4.8769002302        4.3213397076       -2.5566485816
  H         5.2822644561        3.4871350274       -2.3809596136
  H         5.5491238518        5.0018320734       -2.4241244349
  O         2.8515300129       -1.1460522027        5.5356434729
  H         3.1009495589       -1.7950534877        4.8618363241
  H         2.2876265125       -0.5012540106        5.1258028764
  O        -0.7807951272        2.2420708309        6.7460819586
  H        -0.6475808485        1.8877432248        5.8246642602
  H        -1.4071813643        1.6279094413        7.1502261749
  O        -1.4867704730       -2.9988665778        3.2161581122
  H        -0.8142631683       -3.1648331821        2.4573925510
  H        -1.1709811580       -3.3434955692        4.0421266709
  O        -2.5753073102        2.7393939200        2.5690180178
  H        -1.7233525724        2.3798828548        2.7780726435
  H        -2.7462697590        3.2722782275        3.3468772559
  O         2.0815364114       -1.3822075312       -4.0719181771
  H         2.5384340681       -1.3075040963       -4.9502489108
  H         2.5612281167       -0.7504804914       -3.5011153026
  O        -2.0755929797       -0.0075674003       -0.0449361512
  H        -3.0179769837        0.3133908249       -0.2963451018
  H        -2.0309906039       -0.0635012067        0.9555439746
  O        -4.2375653113        4.5191523096       -2.5602773189
  H        -4.6621950132        5.3382615181       -2.7027141952
  H        -4.3079821222        4.2913422223       -1.6328462781
  O         5.0577715903        6.1382194358        2.6953857067
  H         4.6968182819        6.7057779930        1.9754804276
  H         4.3325333753        5.5062288077        2.9807304271
  O         5.5059240961       -2.1331293035       -3.5590662373
  H         5.2814356342       -1.4688853630       -4.2207651489
  H         6.4047433422       -1.9075592708       -3.3455179764
  O        -5.8561265413        6.6936880318       -2.4267694534
  H        -5.7187619092        7.3256477827       -1.6800804260
  H        -6.4679572228        7.2231694527       -2.9294742625
  O         7.9093760446        1.0639284510       -0.3067276855
  H         8.0873948468        2.0343891955       -0.1424009025
  H         7.2682826394        1.1658816235       -1.0184134783
  O         2.4714638085        0.6974856472        1.2860531413
  H         1.8630935750        1.1210832530        0.6502847776
  H         2.4419757185       -0.2507459747        1.1889457649
  O        -4.9837138582       -5.2080746215        0.2395535293
  H        -4.1768514711       -5.1650254169        0.7551653318
  H        -5.7273019400       -5.2041687184        0.8675351815
  O        -3.9492215190        3.7137918865        0.1535899078
  H        -4.8702213900        4.0238244732        0.4559742525
  H        -3.5437246957        3.3325344056        0.9563919408
  O         5.1097967597       -0.4285268378       -5.8265215597
  H         5.5179930198        0.3122866336       -6.2862132784
  H         4.2687648078       -0.5583288590       -6.2598457835
  O         4.4439736005       -2.6178604850       -1.1588874740
  H         5.3968302425       -2.5989680274       -0.9132186528
  H         4.4094655688       -2.7418595842       -2.1095831973
  O         1.6075306057        1.7533130655       -1.1558706670
  H         1.9928336146        2.6347883374       -1.0917693349
  H         0.6689581690        1.8679449716       -1.0225318827
  O        -2.2682674025       -0.3449418919        2.8902887487
  H        -1.9890132715       -1.2444201798        3.0937722542
  H        -3.1082183346       -0.1496370913        3.4613199712
  O         2.1787321748       -8.4645430408        1.7456911416
  H         2.8083722258       -8.5094495734        1.0524321933
  H         2.5890858308       -8.4844221083        2.6489601793
  O         1.7143892542       -3.2792075646       -2.0214351057
  H         1.9808731401       -2.8098729614       -2.8345420166
  H         0.9288303006       -2.8049539346       -1.6517621380
  O        -6.5702599701        4.1295028936        0.8729944007
  H        -7.1325063941        3.2653763912        1.0155856472
  H        -6.7919406262        4.7782081361        1.5295919771
  O         1.6363774808       -5.8303613001       -8.0445334532
  H         0.7533940573       -5.4128871026       -7.8425538700
  H         1.9671611372       -5.1230405112       -8.6577069336
  O         0.5098303940        3.3642608128       -3.5696014511
  H         0.2963965567        2.6589825793       -4.2604782670
  H        -0.3569583238        3.7567251096       -3.4118953596
  O        -3.3038983045       -4.9589690354        2.5195019302
  H        -2.5881248323       -4.2671006545        2.6247303929
  H        -2.8282661026       -5.6967695530        2.0689272943
  O         3.3926352026        4.6181465970        4.1670806065
  H         2.6567136024        5.2879782512        4.2884663703
  H         3.3542230348        3.9318975767        4.9417531837
  O        -4.7401591525        2.0508945859       -4.0933423448
  H        -3.9362474942        1.4569777849       -3.9270815054
  H        -4.5484456858        2.9571094925       -3.6416979097
  O         2.1065010195        1.0721211627        3.9171335370
  H         2.4750540264        1.7076299354        4.5710748594
  H         2.4401937887        1.3437895613        3.0612457326
  O        -7.5264083968        1.5970185909        0.8361303268
  H        -8.4564648052        1.3116246095        0.9689855191
  H        -6.9796729561        0.8419091420        0.7712129913
  O        -0.5960839488        1.4518659581        4.2094478590
  H         0.3703214010        1.2740339626        3.9977363463
  H        -1.0777615213        0.6322716941        3.8347739578
  O        -1.9889963203        5.8634825558        0.3502498915
  H        -1.0900974175        5.7217894679        0.7709751746
  H        -2.5971673353        5.1641663536        0.4804929684
  O        -0.5914559134       -1.2630265580       -3.7817397252
  H        -0.6004333899       -1.5009211478       -2.8528376752
  H         0.3643358019       -1.1022606336       -3.9384551830
  O        -6.6328224029        1.7460835402       -2.2180519572
  H        -6.3198505655        1.6785098070       -3.2086938469
  H        -7.4502957934        1.1725425559       -2.1770901333
  O         7.1693061324       -2.6666460779       -0.4355929520
  H         7.4761033491       -3.5781453344       -0.2975088477
  H         7.5703306128       -2.4460047379       -1.2869162557
  O        -1.3154684240        2.3947306907       -1.3403236219
  H        -1.9718021784        3.0992939144       -1.3522183434
  H        -1.7500195640        1.6034506199       -0.9381744836
  O         0.8463953878        6.6128635548       -1.9989123147
  H         1.1896843973        7.4740006727       -2.3267703464
  H        -0.0569684722        6.5149074372       -2.3434709317
  O         7.8797758668       -2.8835324633        4.4871020241
  H         8.6326951822       -3.3386753116        4.0841614321
  H         7.6951664211       -3.5119625418        5.2289641910
  O        -1.4654271540       -6.9684650542       -3.1732746705
  H        -1.2890575004       -7.0006639158       -4.1388111512
  H        -2.4191876134       -7.3044359681       -3.1714403159
  O        -4.3596185609       -1.6073746517       -3.0598798344
  H        -3.9065492128       -2.2139002624       -3.6008916164
  H        -3.8278164100       -0.8145851776       -2.9994734107
  O         2.6212316365        4.4771474303       -1.1748491102
  H         1.9206021343        4.9847904223       -1.5843457024
  H         3.4760506896        4.4638322514       -1.6609136031
  O        -3.3631589229       -4.0719220690       -4.1075270148
  H        -2.3689835053       -4.0674788479       -4.1212084971
  H        -3.5479893134       -4.5539108015       -4.9225961724
  O         0.6052447185        5.9167372487        0.9426145799
  H         1.1402540212        5.0957792104        1.1804630482
  H         0.6416529131        6.0715880002       -0.0235995175
  O        -0.5519632817       -3.7563343103       -4.5499006565
  H         0.0598257355       -4.0266947697       -3.8612799801
  H        -0.7898659104       -2.8422128791       -4.2879391778
  O        -6.2899367625       -0.8669350846        1.3941163982
  H        -5.8467997020       -1.5686003213        0.9050846278
  H        -6.9791494093       -1.2201837339        1.9376678351
  O         2.9478444377        4.0622197867       -4.4930451067
  H         3.7093437538        4.1513763405       -3.8582796469
  H         2.2659684417        3.7486278638       -3.9651231518
  O         3.5514820252        0.1437891734       -1.9280737557
  H         2.8688255005        0.6166704941       -1.4358934795
  H         3.9836973598       -0.4236218289       -1.3441297442
  O        -1.5385234159        5.1495503907        6.2694818862
  H        -1.1550079787        4.2254138551        6.3361166794
  H        -2.1820873649        4.9933708545        5.6076605319
  O         0.3653804058       -3.4199512410        1.3163348126
  H         0.4224844975       -4.4001362923        1.1839656039
  H         0.0151080798       -3.0237587586        0.5557121821
  O         7.3157245013        7.4671220071        6.1581686293
  H         6.5489186553        7.4903300873        6.8284929480
  H         7.2508722948        6.6331185932        5.7749253921
  O        -0.8183074505       -4.7968203986        5.4231315982
  H        -0.9501269683       -5.7163792340        5.7408837635
  H        -0.3907179425       -4.3966670174        6.2291832422
  O        -2.4827990701       -4.6360398791       -1.5025851731
  H        -2.1865895004       -5.3831757102       -0.8908874130
  H        -2.7887248752       -5.0392627282       -2.3114114198
