 DBCSR| CPU Multiplication driver                                           XSMM
 DBCSR| Multrec recursion limit                                              512
 DBCSR| Multiplication stack size                                           1000
 DBCSR| Maximum elements for images                                    UNLIMITED
 DBCSR| Multiplicative factor virtual images                                   1
 DBCSR| Use multiplication densification                                       T
 DBCSR| Multiplication size stacks                                             3


  **** **** ******  **  PROGRAM STARTED AT               2019-02-14 00:40:16.333
 ***** ** ***  *** **   PROGRAM STARTED ON                                  otto
 **    ****   ******    PROGRAM STARTED BY                                   ole
 ***** **    ** ** **   PROGRAM PROCESS ID                                  5418
  **** **  *******  **  PROGRAM STARTED IN /home/ole/git/pao_ml_equivar/2H2O_MD/
                                           frame_1300

 CP2K| version string:                    CP2K version 7.0 (Development Version)
 CP2K| source code revision number:                                git:8bf305913
 CP2K| cp2kflags: libint fftw3 libxc xsmm libderiv_max_am1=5 libint_max_am=6    
 CP2K| is freely available from                            https://www.cp2k.org/
 CP2K| Program compiled at                           So Jan 13 00:02:37 CET 2019
 CP2K| Program compiled on                                                  otto
 CP2K| Program compiled for                                                local
 CP2K| Data directory path                               /home/ole/git/cp2k/data
 CP2K| Input file name                                              2H2O_ref.inp

 GLOBAL| Force Environment number                                              1
 GLOBAL| Basis set file name                                        BASIS_MOLOPT
 GLOBAL| Potential file name                                      GTH_POTENTIALS
 GLOBAL| MM Potential file name                                     MM_POTENTIAL
 GLOBAL| Coordinate file name                                         coords.xyz
 GLOBAL| Method name                                                        CP2K
 GLOBAL| Project name                                                   2H2O_ref
 GLOBAL| Preferred FFT library                                             FFTW3
 GLOBAL| Preferred diagonalization lib.                                       SL
 GLOBAL| Run type                                                         ENERGY
 GLOBAL| All-to-all communication in single precision                          F
 GLOBAL| FFTs using library dependent lengths                                  F
 GLOBAL| Global print level                                                  LOW
 GLOBAL| MPI I/O enabled                                                       T
 GLOBAL| Total number of message passing processes                             1
 GLOBAL| Number of threads for this process                                    1
 GLOBAL| This output is from process                                           0
 GLOBAL| CPU model name :  Intel(R) Core(TM) i5-3320M CPU @ 2.60GHz

 MEMORY| system memory details [Kb]
 MEMORY|                        rank 0           min           max       average
 MEMORY| MemTotal              7860772       7860772       7860772       7860772
 MEMORY| MemFree               2564280       2564280       2564280       2564280
 MEMORY| Buffers                274556        274556        274556        274556
 MEMORY| Cached                1774536       1774536       1774536       1774536
 MEMORY| Slab                   247088        247088        247088        247088
 MEMORY| SReclaimable           125968        125968        125968        125968
 MEMORY| MemLikelyFree         4739340       4739340       4739340       4739340


 GENERATE|  Preliminary Number of Bonds generated:                             0
 GENERATE|  Achieved consistency in connectivity generation.

 *******************************************************************************
 *******************************************************************************
 **                                                                           **
 **     #####                         ##              ##                      **
 **    ##   ##            ##          ##              ##                      **
 **   ##     ##                       ##            ######                    **
 **   ##     ##  ##   ##  ##   #####  ##  ##   ####   ##    #####    #####    **
 **   ##     ##  ##   ##  ##  ##      ## ##   ##      ##   ##   ##  ##   ##   **
 **   ##  ## ##  ##   ##  ##  ##      ####     ###    ##   ######   ######    **
 **    ##  ###   ##   ##  ##  ##      ## ##      ##   ##   ##       ##        **
 **     #######   #####   ##   #####  ##  ##  ####    ##    #####   ##        **
 **           ##                                                    ##        **
 **                                                                           **
 **                                                ... make the atoms dance   **
 **                                                                           **
 **            Copyright (C) by CP2K developers group (2000 - 2018)           **
 **                                                                           **
 *******************************************************************************


 TOTAL NUMBERS AND MAXIMUM NUMBERS

  Total number of            - Atomic kinds:                                   2
                             - Atoms:                                          6
                             - Shell sets:                                     6
                             - Shells:                                        22
                             - Primitive Cartesian functions:                 42
                             - Cartesian basis functions:                     48
                             - Spherical basis functions:                     46

  Maximum angular momentum of- Orbital basis functions:                        2
                             - Local part of the GTH pseudopotential:          2
                             - Non-local part of the GTH pseudopotential:      0

 ------------------------------ Linear scaling SCF -----------------------------
 eps_scf:                                       0.100E-07
 eps_filter:                                    0.100E-07
 mixing_fraction:                               0.450E+00
 max_scf:                                              25
 fixed chemical potential (mu)                          F
 has unit metric:                                       F
 Computing inv(S):                                      T
 Computing sqrt(S):                                     T
 Computing s preconditioner                             F
 sign sqrt order:                                       3
 Extrapolation order:                                   4
 Use single precision matrices                          F
 S preconditioner type                               NONE
 Polarized Atomic Orbitals (PAO)                        F
 Purification method                      Trace resetting 4th order
 Cluster type                                      ATOMIC
 Computing Chebyshev                                FALSE
 Using PAO                                              F
 -------------------------------------------------------------------------------


     Lanczos converged:  T threshold:   0.100E-02
     Est. extremal eigenvalues:    0.356E+01   0.116E-01
     Est. condition number :    0.306E+03
     NS sqrt iter    1 1.00000000   0.915E+00       0.002      278.515
     NS sqrt iter    2 1.00000000   0.552E+00       0.001      682.805
     NS sqrt iter    3 1.00000000   0.314E+00       0.001      667.567
     NS sqrt iter    4 1.00000000   0.220E+00       0.001      599.434
     NS sqrt iter    5 1.00000000   0.974E-01       0.002      405.274
     NS sqrt iter    6 1.00000000   0.852E-02       0.001      589.587
     NS sqrt iter    7 1.00000000   0.850E-05       0.001      533.036
     Final NS sqrt iter    7 1.00000000   0.196E-09



 Guess for atomic kind: O

 Electronic structure
    Total number of core electrons                                          2.00
    Total number of valence electrons                                       6.00
    Total number of electrons                                               8.00
    Multiplicity                                                   not specified
    S   [  2.00] 2.00
    P      4.00


 *******************************************************************************
                  Iteration          Convergence                     Energy [au]
 *******************************************************************************
                          1        0.708315                     -15.576645311500
                          2        0.608879                     -15.587933561584
                          3        0.102828E-01                 -15.656849565404
                          4        0.113889E-02                 -15.656866888140
                          5        0.434197E-03                 -15.656867072159
                          6        0.263771E-03                 -15.656867091904
                          7        0.478536E-06                 -15.656867103452

 Energy components [Hartree]           Total Energy ::          -15.656867103452
                                        Band Energy ::           -3.000198112285
                                     Kinetic Energy ::           11.759971203220
                                   Potential Energy ::          -27.416838306672
                                      Virial (-V/T) ::            2.331369510426
                                        Core Energy ::          -26.140716385623
                                          XC Energy ::           -3.154051012914
                                     Coulomb Energy ::           13.637900295084
                       Total Pseudopotential Energy ::          -37.935781716540
                       Local Pseudopotential Energy ::          -39.218907440693
                    Nonlocal Pseudopotential Energy ::            1.283125724153
                                        Confinement ::            0.350941276976

 Orbital energies  State     L     Occupation   Energy[a.u.]          Energy[eV]

                       1     0          2.000      -0.864471          -23.523463

                       1     1          4.000      -0.317814           -8.648154


 Total Electron Density at R=0:                                         0.000068

 Guess for atomic kind: H

 Electronic structure
    Total number of core electrons                                          0.00
    Total number of valence electrons                                       1.00
    Total number of electrons                                               1.00
    Multiplicity                                                   not specified
    S      1.00


 *******************************************************************************
                  Iteration          Convergence                     Energy [au]
 *******************************************************************************
                          1        0.437545E-02                  -0.424159432110
                          2        0.531356E-03                  -0.424178438213
                          3        0.259176E-06                  -0.424178722480

 Energy components [Hartree]           Total Energy ::           -0.424178722480
                                        Band Energy ::           -0.199015229016
                                     Kinetic Energy ::            0.464007633961
                                   Potential Energy ::           -0.888186356441
                                      Virial (-V/T) ::            1.914163240935
                                        Core Energy ::           -0.479160803564
                                          XC Energy ::           -0.244352904054
                                     Coulomb Energy ::            0.299334985138
                       Total Pseudopotential Energy ::           -0.962295316385
                       Local Pseudopotential Energy ::           -0.962295316385
                    Nonlocal Pseudopotential Energy ::            0.000000000000
                                        Confinement ::            0.191268788606

 Orbital energies  State     L     Occupation   Energy[a.u.]          Energy[eV]

                       1     0          1.000      -0.199015           -5.415480


 Total Electron Density at R=0:                                         0.242907
 Re-scaling the density matrix to get the right number of electrons
                  # Electrons              Trace(P)               Scaling factor
                           16                15.990                        1.001
 Energy with the initial guess:       -34.106169137

     Est. extremal eigenvalues     -1.06991     3.73712  converged:  T
     TRS4 it   1 1.00000000   0.180E+01       0.000      117.484   0.100E-07
     TRS4 it   2 1.00000000   0.159E+01       0.000      117.484   0.100E-07
     TRS4 it   3 1.00000000   0.902E+00       0.001      234.968   0.100E-07
     TRS4 it   4 1.00000000   0.561E+00       0.001      234.968   0.100E-07
     TRS4 it   5 1.00000000   0.340E+00       0.001      234.968   0.100E-07
     TRS4 it   6 1.00000000   0.159E+00       0.001      234.968   0.100E-07
     TRS4 it   7 1.00000000   0.457E-01       0.001      234.968   0.100E-07
     TRS4 it   8 1.00000000   0.466E-02       0.001      234.968   0.100E-07
     TRS4 it   9 1.00000000   0.609E-04       0.001      234.968   0.100E-07
     TRS4 it  10 1.00000000   0.120E-07       0.001      234.968   0.100E-07
     Final TRS4 iteration   10 1.00000000   0.120E-07
     Chemical potential (mu):      -0.22449

 SCF     1       -34.234154499       -34.234154499    2.219325

*********************************************************
 Using MIXING_FRACTION=0.450 to mix KS matrix:  iscf=  2
 KS_nw=0.450*KS + 0.550*KS_old
*********************************************************
     Est. extremal eigenvalues     -0.91592     3.85582  converged:  T
     TRS4 it   1 1.00000000   0.176E+01       0.000      117.484   0.100E-07
     TRS4 it   2 1.00000000   0.162E+01       0.000      117.484   0.100E-07
     TRS4 it   3 1.00000000   0.970E+00       0.001      234.968   0.100E-07
     TRS4 it   4 1.00000000   0.596E+00       0.001      234.968   0.100E-07
     TRS4 it   5 1.00000000   0.403E+00       0.001      234.968   0.100E-07
     TRS4 it   6 1.00000000   0.238E+00       0.001      234.968   0.100E-07
     TRS4 it   7 1.00000000   0.109E+00       0.001      234.968   0.100E-07
     TRS4 it   8 1.00000000   0.296E-01       0.001      234.968   0.100E-07
     TRS4 it   9 1.00000000   0.282E-02       0.001      234.968   0.100E-07
     TRS4 it  10 1.00000000   0.292E-04       0.001      234.968   0.100E-07
     TRS4 it  11 1.00000000   0.346E-08       0.001      234.968   0.100E-07
     Final TRS4 iteration   11 1.00000000   0.346E-08
     Chemical potential (mu):      -0.11380

 SCF     2       -34.431507802        -0.197353304    2.074202

*********************************************************
 Using MIXING_FRACTION=0.450 to mix KS matrix:  iscf=  3
 KS_nw=0.450*KS + 0.550*KS_old
*********************************************************
     Est. extremal eigenvalues     -0.93809     3.84029  converged:  T
     TRS4 it   1 1.00000000   0.177E+01       0.000      117.484   0.100E-07
     TRS4 it   2 1.00000000   0.161E+01       0.000      117.484   0.100E-07
     TRS4 it   3 1.00000000   0.958E+00       0.001      234.968   0.100E-07
     TRS4 it   4 1.00000000   0.591E+00       0.001      233.957   0.100E-07
     TRS4 it   5 1.00000000   0.393E+00       0.001      234.968   0.100E-07
     TRS4 it   6 1.00000000   0.225E+00       0.001      234.968   0.100E-07
     TRS4 it   7 1.00000000   0.959E-01       0.001      234.968   0.100E-07
     TRS4 it   8 1.00000000   0.223E-01       0.001      234.968   0.100E-07
     TRS4 it   9 1.00000000   0.156E-02       0.001      234.968   0.100E-07
     TRS4 it  10 1.00000000   0.884E-05       0.001      234.968   0.100E-07
     TRS4 it  11 1.00000000   0.316E-09       0.001      234.968   0.100E-07
     Final TRS4 iteration   11 1.00000000   0.316E-09
     Chemical potential (mu):      -0.12824

 SCF     3       -34.443327026        -0.011819224    2.154263

*********************************************************
 Using MIXING_FRACTION=0.450 to mix KS matrix:  iscf=  4
 KS_nw=0.450*KS + 0.550*KS_old
*********************************************************
     Est. extremal eigenvalues     -0.92487     3.85312  converged:  T
     TRS4 it   1 1.00000000   0.177E+01       0.000      117.484   0.100E-07
     TRS4 it   2 1.00000000   0.161E+01       0.000      117.484   0.100E-07
     TRS4 it   3 1.00000000   0.963E+00       0.001      234.968   0.100E-07
     TRS4 it   4 1.00000000   0.595E+00       0.001      234.968   0.100E-07
     TRS4 it   5 1.00000000   0.399E+00       0.001      234.968   0.100E-07
     TRS4 it   6 1.00000000   0.232E+00       0.001      234.968   0.100E-07
     TRS4 it   7 1.00000000   0.103E+00       0.001      234.968   0.100E-07
     TRS4 it   8 1.00000000   0.262E-01       0.001      234.968   0.100E-07
     TRS4 it   9 1.00000000   0.223E-02       0.001      234.968   0.100E-07
     TRS4 it  10 1.00000000   0.190E-04       0.001      234.968   0.100E-07
     TRS4 it  11 1.00000000   0.155E-08       0.001      234.968   0.100E-07
     Final TRS4 iteration   11 1.00000000   0.155E-08
     Chemical potential (mu):      -0.11583

 SCF     4       -34.444374401        -0.001047374    2.154516

*********************************************************
 Using MIXING_FRACTION=0.450 to mix KS matrix:  iscf=  5
 KS_nw=0.450*KS + 0.550*KS_old
*********************************************************
     Est. extremal eigenvalues     -0.92470     3.85365  converged:  T
     TRS4 it   1 1.00000000   0.177E+01       0.000      117.484   0.100E-07
     TRS4 it   2 1.00000000   0.161E+01       0.000      117.484   0.100E-07
     TRS4 it   3 1.00000000   0.962E+00       0.001      234.968   0.100E-07
     TRS4 it   4 1.00000000   0.595E+00       0.001      234.968   0.100E-07
     TRS4 it   5 1.00000000   0.399E+00       0.001      234.968   0.100E-07
     TRS4 it   6 1.00000000   0.232E+00       0.001      234.968   0.100E-07
     TRS4 it   7 1.00000000   0.103E+00       0.001      234.968   0.100E-07
     TRS4 it   8 1.00000000   0.259E-01       0.001      234.968   0.100E-07
     TRS4 it   9 1.00000000   0.218E-02       0.001      234.968   0.100E-07
     TRS4 it  10 1.00000000   0.183E-04       0.001      234.968   0.100E-07
     TRS4 it  11 1.00000000   0.143E-08       0.001      234.968   0.100E-07
     Final TRS4 iteration   11 1.00000000   0.143E-08
     Chemical potential (mu):      -0.11540

 SCF     5       -34.444471832        -0.000097432    2.135734

*********************************************************
 Using MIXING_FRACTION=0.450 to mix KS matrix:  iscf=  6
 KS_nw=0.450*KS + 0.550*KS_old
*********************************************************
     Est. extremal eigenvalues     -0.92276     3.85579  converged:  T
     TRS4 it   1 1.00000000   0.177E+01       0.001      117.484   0.100E-07
     TRS4 it   2 1.00000000   0.161E+01       0.000      117.484   0.100E-07
     TRS4 it   3 1.00000000   0.963E+00       0.001      234.968   0.100E-07
     TRS4 it   4 1.00000000   0.595E+00       0.001      234.968   0.100E-07
     TRS4 it   5 1.00000000   0.400E+00       0.001      234.968   0.100E-07
     TRS4 it   6 1.00000000   0.233E+00       0.001      234.968   0.100E-07
     TRS4 it   7 1.00000000   0.104E+00       0.001      234.968   0.100E-07
     TRS4 it   8 1.00000000   0.265E-01       0.001      234.968   0.100E-07
     TRS4 it   9 1.00000000   0.231E-02       0.001      234.968   0.100E-07
     TRS4 it  10 1.00000000   0.207E-04       0.001      234.968   0.100E-07
     TRS4 it  11 1.00000000   0.185E-08       0.001      234.968   0.100E-07
     Final TRS4 iteration   11 1.00000000   0.185E-08
     Chemical potential (mu):      -0.11329

 SCF     6       -34.444482763        -0.000010931    2.234177

*********************************************************
 Using MIXING_FRACTION=0.450 to mix KS matrix:  iscf=  7
 KS_nw=0.450*KS + 0.550*KS_old
*********************************************************
     Est. extremal eigenvalues     -0.92225     3.85635  converged:  T
     TRS4 it   1 1.00000000   0.177E+01       0.000      117.484   0.100E-07
     TRS4 it   2 1.00000000   0.161E+01       0.000      117.484   0.100E-07
     TRS4 it   3 1.00000000   0.963E+00       0.001      234.968   0.100E-07
     TRS4 it   4 1.00000000   0.595E+00       0.001      234.968   0.100E-07
     TRS4 it   5 1.00000000   0.400E+00       0.001      234.968   0.100E-07
     TRS4 it   6 1.00000000   0.233E+00       0.001      234.968   0.100E-07
     TRS4 it   7 1.00000000   0.104E+00       0.001      234.968   0.100E-07
     TRS4 it   8 1.00000000   0.266E-01       0.001      234.968   0.100E-07
     TRS4 it   9 1.00000000   0.233E-02       0.001      234.968   0.100E-07
     TRS4 it  10 1.00000000   0.211E-04       0.001      234.968   0.100E-07
     TRS4 it  11 1.00000000   0.192E-08       0.001      234.968   0.100E-07
     Final TRS4 iteration   11 1.00000000   0.192E-08
     Chemical potential (mu):      -0.11276

 SCF     7       -34.444484373        -0.000001610    2.124856

*********************************************************
 Using MIXING_FRACTION=0.450 to mix KS matrix:  iscf=  8
 KS_nw=0.450*KS + 0.550*KS_old
*********************************************************
     Est. extremal eigenvalues     -0.92184     3.85682  converged:  T
     TRS4 it   1 1.00000000   0.177E+01       0.001      117.484   0.100E-07
     TRS4 it   2 1.00000000   0.161E+01       0.000      117.484   0.100E-07
     TRS4 it   3 1.00000000   0.963E+00       0.001      234.968   0.100E-07
     TRS4 it   4 1.00000000   0.595E+00       0.001      234.968   0.100E-07
     TRS4 it   5 1.00000000   0.400E+00       0.001      234.968   0.100E-07
     TRS4 it   6 1.00000000   0.233E+00       0.001      234.968   0.100E-07
     TRS4 it   7 1.00000000   0.104E+00       0.001      234.968   0.100E-07
     TRS4 it   8 1.00000000   0.268E-01       0.001      234.968   0.100E-07
     TRS4 it   9 1.00000000   0.235E-02       0.001      234.968   0.100E-07
     TRS4 it  10 1.00000000   0.217E-04       0.001      234.968   0.100E-07
     TRS4 it  11 1.00000000   0.203E-08       0.001      234.968   0.100E-07
     Final TRS4 iteration   11 1.00000000   0.203E-08
     Chemical potential (mu):      -0.11230

 SCF     8       -34.444484695        -0.000000321    2.128411

*********************************************************
 Using MIXING_FRACTION=0.450 to mix KS matrix:  iscf=  9
 KS_nw=0.450*KS + 0.550*KS_old
*********************************************************
     Est. extremal eigenvalues     -0.92166     3.85702  converged:  T
     TRS4 it   1 1.00000000   0.177E+01       0.000      117.484   0.100E-07
     TRS4 it   2 1.00000000   0.161E+01       0.000      117.484   0.100E-07
     TRS4 it   3 1.00000000   0.963E+00       0.001      234.968   0.100E-07
     TRS4 it   4 1.00000000   0.595E+00       0.001      221.685   0.100E-07
     TRS4 it   5 1.00000000   0.400E+00       0.001      234.968   0.100E-07
     TRS4 it   6 1.00000000   0.233E+00       0.001      234.968   0.100E-07
     TRS4 it   7 1.00000000   0.104E+00       0.001      234.968   0.100E-07
     TRS4 it   8 1.00000000   0.268E-01       0.001      234.968   0.100E-07
     TRS4 it   9 1.00000000   0.236E-02       0.001      234.968   0.100E-07
     TRS4 it  10 1.00000000   0.219E-04       0.001      234.968   0.100E-07
     TRS4 it  11 1.00000000   0.207E-08       0.001      234.968   0.100E-07
     Final TRS4 iteration   11 1.00000000   0.207E-08
     Chemical potential (mu):      -0.11211

 SCF     9       -34.444484773        -0.000000079    2.153745

 Writing restart DM 2H2O_ref_LS_DM_SPIN_1_RESTART.dm with checksum:       0.58421811E+02

 ENERGY| Total FORCE_EVAL ( QS ) energy (a.u.):              -34.444484773366696


 -------------------------------------------------------------------------------
 -                                                                             -
 -                                DBCSR STATISTICS                             -
 -                                                                             -
 -------------------------------------------------------------------------------
 COUNTER                                    TOTAL       BLAS       SMM       ACC
 flops     5 x     5 x     5              2774000       0.0%    100.0%      0.0%
 flops     5 x    13 x     5              3114800       0.0%    100.0%      0.0%
 flops    13 x     5 x     5              3114800       0.0%    100.0%      0.0%
 flops     5 x     5 x    13              3595800       0.0%    100.0%      0.0%
 flops    13 x     5 x    13              4056000       0.0%    100.0%      0.0%
 flops     5 x    13 x    13              4056000       0.0%    100.0%      0.0%
 flops    13 x    13 x     5              5306600       0.0%    100.0%      0.0%
 flops    13 x    13 x    13              6933732       0.0%    100.0%      0.0%
 flops inhomo. stacks                           0       0.0%      0.0%      0.0%
 flops total                        32.951732E+06       0.0%    100.0%      0.0%
 flops max/rank                     32.951732E+06       0.0%    100.0%      0.0%
 matmuls inhomo. stacks                         0       0.0%      0.0%      0.0%
 matmuls total                              35730       0.0%    100.0%      0.0%
 number of processed stacks                  1952       0.0%    100.0%      0.0%
 average stack size                                     0.0      18.3       0.0
 marketing flops                    47.889312E+06
 -------------------------------------------------------------------------------
 # multiplications                            246
 max memory usage/rank             321.118208E+06
 # max total images/rank                        1
 # max 3D layers                                1
 # MPI messages exchanged                       0
 MPI messages size (bytes):
  total size                         0.000000E+00
  min size                           0.000000E+00
  max size                           0.000000E+00
  average size                       0.000000E+00
 MPI breakdown and total messages size (bytes):
             size <=      128                   0                        0
       128 < size <=     8192                   0                        0
      8192 < size <=    32768                   0                        0
     32768 < size <=   131072                   0                        0
    131072 < size <=  4194304                   0                        0
   4194304 < size <= 16777216                   0                        0
  16777216 < size                               0                        0
 -------------------------------------------------------------------------------

 MEMORY| Estimated peak process memory [MiB]                                 307

 -------------------------------------------------------------------------------
 -                                                                             -
 -                           R E F E R E N C E S                               -
 -                                                                             -
 -------------------------------------------------------------------------------
 
 CP2K version 7.0 (Development Version), the CP2K developers group (2018).
 CP2K is freely available from https://www.cp2k.org/ .

 Schuett, Ole; Messmer, Peter; Hutter, Juerg; VandeVondele, Joost. 
 Electronic Structure Calculations on Graphics Processing Units, John Wiley & Sons, Ltd, 173-190 (2016). 
 GPU-Accelerated Sparse Matrix-Matrix Multiplication for Linear Scaling Density Functional Theory.
 https://dx.doi.org/10.1002/9781118670712.ch8


 Borstnik, U; VandeVondele, J; Weber, V; Hutter, J. 
 PARALLEL COMPUTING, 40 (5-6), 47-58 (2014). 
 Sparse matrix multiplication: The distributed block-compressed sparse
 row library.
 https://dx.doi.org/10.1016/j.parco.2014.03.012


 Hutter, J; Iannuzzi, M; Schiffmann, F; VandeVondele, J. 
 WILEY INTERDISCIPLINARY REVIEWS-COMPUTATIONAL MOLECULAR SCIENCE, 4 (1), 15-25 (2014). 
 CP2K: atomistic simulations of condensed matter systems.
 https://dx.doi.org/10.1002/wcms.1159


 VandeVondele, J; Borstnik, U; Hutter, J. 
 JOURNAL OF CHEMICAL THEORY AND COMPUTATION, 8 (10), 3565-3573 (2012). 
 Linear Scaling Self-Consistent Field Calculations with Millions of Atoms
 in the Condensed Phase.
 https://dx.doi.org/10.1021/ct200897x


 VandeVondele, J; Hutter, J. 
 JOURNAL OF CHEMICAL PHYSICS, 127 (11), 114105 (2007). 
 Gaussian basis sets for accurate calculations on molecular systems in
 gas and condensed phases.
 https://dx.doi.org/10.1063/1.2770708


 Krack, M. 
 THEORETICAL CHEMISTRY ACCOUNTS, 114 (1-3), 145-152 (2005). 
 Pseudopotentials for H to Kr optimized for gradient-corrected
 exchange-correlation functionals.
 https://dx.doi.org/10.1007/s00214-005-0655-y


 VandeVondele, J; Krack, M; Mohamed, F; Parrinello, M; Chassaing, T;
 Hutter, J. COMPUTER PHYSICS COMMUNICATIONS, 167 (2), 103-128 (2005). 
 QUICKSTEP: Fast and accurate density functional calculations using a
 mixed Gaussian and plane waves approach.
 https://dx.doi.org/10.1016/j.cpc.2004.12.014


 Frigo, M; Johnson, SG. 
 PROCEEDINGS OF THE IEEE, 93 (2), 216-231 (2005). 
 The design and implementation of FFTW3.
 https://dx.doi.org/10.1109/JPROC.2004.840301


 Niklasson, AMN; Tymczak, CJ; Challacombe, M. 
 JOURNAL OF CHEMICAL PHYSICS, 118 (19), 8611-8620 (2003). 
 Trace resetting density matrix purification in O(N)
 self-consistent-field theory.
 https://dx.doi.org/10.1063/1.1559913


 Hartwigsen, C; Goedecker, S; Hutter, J. 
 PHYSICAL REVIEW B, 58 (7), 3641-3662 (1998). 
 Relativistic separable dual-space Gaussian pseudopotentials from H to Rn.
 https://dx.doi.org/10.1103/PhysRevB.58.3641


 Lippert, G; Hutter, J; Parrinello, M. 
 MOLECULAR PHYSICS, 92 (3), 477-487 (1997). 
 A hybrid Gaussian and plane wave density functional scheme.
 https://dx.doi.org/10.1080/002689797170220


 Perdew, JP; Burke, K; Ernzerhof, M. 
 PHYSICAL REVIEW LETTERS, 77 (18), 3865-3868 (1996). 
 Generalized gradient approximation made simple.
 https://dx.doi.org/10.1103/PhysRevLett.77.3865


 Goedecker, S; Teter, M; Hutter, J. 
 PHYSICAL REVIEW B, 54 (3), 1703-1710 (1996). 
 Separable dual-space Gaussian pseudopotentials.
 https://dx.doi.org/10.1103/PhysRevB.54.1703


 -------------------------------------------------------------------------------
 -                                                                             -
 -                                T I M I N G                                  -
 -                                                                             -
 -------------------------------------------------------------------------------
 SUBROUTINE                       CALLS  ASD         SELF TIME        TOTAL TIME
                                MAXIMUM       AVERAGE  MAXIMUM  AVERAGE  MAXIMUM
 CP2K                                 1  1.0    0.030    0.030   22.164   22.164
 qs_energies                          1  2.0    0.000    0.000   21.735   21.735
 ls_scf                               1  3.0    0.000    0.000   21.615   21.615
 ls_scf_main                          1  4.0    0.001    0.001   19.380   19.380
 ls_scf_dm_to_ks                      9  5.0    0.000    0.000   19.284   19.284
 qs_ks_update_qs_env                 10  6.1    0.000    0.000   15.326   15.326
 rebuild_ks_matrix                   10  7.1    0.000    0.000   15.326   15.326
 qs_ks_build_kohn_sham_matrix        10  8.1    0.001    0.001   15.326   15.326
 qs_vxc_create                       10  9.1    0.000    0.000    8.801    8.801
 xc_vxc_pw_create                    10 10.1    0.153    0.153    8.800    8.800
 xc_rho_set_and_dset_create          10 11.1    0.061    0.061    6.271    6.271
 qs_rho_update_rho                   10  6.1    0.000    0.000    6.176    6.176
 calculate_rho_elec                  10  7.1    4.946    4.946    6.176    6.176
 pw_transfer                        191 10.7    0.017    0.017    5.766    5.766
 fft_wrap_pw1pw2                    171 11.8    0.002    0.002    5.636    5.636
 sum_up_and_integrate                10  9.1    0.028    0.028    5.525    5.525
 integrate_v_rspace                  10 10.1    4.819    4.819    5.497    5.497
 fft_wrap_pw1pw2_200                111 12.9    0.503    0.503    5.391    5.391
 xc_functional_eval                  10 12.1    0.000    0.000    4.115    4.115
 pbe_lda_eval                        10 13.1    4.115    4.115    4.115    4.115
 fft3d_s                            172 13.7    3.019    3.019    3.033    3.033
 ls_scf_init_scf                      1  4.0    0.000    0.000    2.234    2.234
 ls_scf_initial_guess                 1  5.0    0.000    0.000    2.221    2.221
 ls_scf_qs_atomic_guess               1  6.0    0.000    0.000    2.221    2.221
 density_rs2pw                       10  8.1    0.001    0.001    1.210    1.210
 pw_scatter_s                        90 14.3    1.073    1.073    1.073    1.073
 pw_gather_s                         81 13.2    1.003    1.003    1.003    1.003
 potential_pw2rs                     10 11.1    0.004    0.004    0.676    0.676
 pw_derive                           60 11.6    0.673    0.673    0.673    0.673
 -------------------------------------------------------------------------------

 The number of warnings for this run is : 0
 
 -------------------------------------------------------------------------------
  **** **** ******  **  PROGRAM ENDED AT                 2019-02-14 00:40:38.551
 ***** ** ***  *** **   PROGRAM RAN ON                                      otto
 **    ****   ******    PROGRAM RAN BY                                       ole
 ***** **    ** ** **   PROGRAM PROCESS ID                                  5418
  **** **  *******  **  PROGRAM STOPPED IN /home/ole/git/pao_ml_equivar/2H2O_MD/
                                           frame_1300
