6
Properties=species:S:1:pos:R:3 i=0 time=0.0 E=-34.4504806384 pbc="F F F"
O       3.83689622       3.03162311       4.35000000 
H       3.56074045       3.69602283       3.71000000 
H       3.20959542       2.30789201       4.25600000 
O       6.58101439       2.05300752       3.63500000 
H       7.19200514       2.18685559       4.36500000 
H       5.72822690       2.39335807       3.94700000 
