 DBCSR| CPU Multiplication driver                                           XSMM (U)
 DBCSR| Multrec recursion limit                                              512 (U)
 DBCSR| Multiplication stack size                                           1000 (D)
 DBCSR| Maximum elements for images                                    UNLIMITED (U)
 DBCSR| Multiplicative factor virtual images                                   1 (U)
 DBCSR| Use multiplication densification                                       T (D)
 DBCSR| Multiplication size stacks                                             3 (U)
 DBCSR| Use memory pool for CPU allocation                                     F (U)
 DBCSR| OMP: Current number of threads                                         1
 DBCSR| OMP: Max number of threads                                             1
 DBCSR| Split modifier for TAS multiplication algorithm                  1.0E+00 (U)


  **** **** ******  **  PROGRAM STARTED AT               2023-02-01 10:43:54.934
 ***** ** ***  *** **   PROGRAM STARTED ON                                moritz
 **    ****   ******    PROGRAM STARTED BY                                   ole
 ***** **    ** ** **   PROGRAM PROCESS ID                                148524
  **** **  *******  **  PROGRAM STARTED IN /home/ole/git/pao_ml_equivar/2H2O_rot
                                           ations/rand_19

 CP2K| version string:                 CP2K version 2023.1 (Development Version)
 CP2K| source code revision number:                                  git:03b4147
 CP2K| cp2kflags: omp libint fftw3 libxc quip xsmm spglib libvori libbqb libtorc
 CP2K|            h
 CP2K| is freely available from                            https://www.cp2k.org/
 CP2K| Program compiled at                           Mi 01 Feb 2023 10:36:52 CET
 CP2K| Program compiled on                                                moritz
 CP2K| Program compiled for                                                local
 CP2K| Data directory path                               /home/ole/git/cp2k/data
 CP2K| Input file name                                            2H2O_pao44.inp

 GLOBAL| Force Environment number                                              1
 GLOBAL| Basis set file name                                        BASIS_MOLOPT
 GLOBAL| Potential file name                                      GTH_POTENTIALS
 GLOBAL| MM Potential file name                                     MM_POTENTIAL
 GLOBAL| Coordinate file name                                         coords.xyz
 GLOBAL| Method name                                                        CP2K
 GLOBAL| Project name                                                 2H2O_pao44
 GLOBAL| Run type                                                         ENERGY
 GLOBAL| FFT library                                                       FFTW3
 GLOBAL| Diagonalization library                                       ScaLAPACK
 GLOBAL| DGEMM library                                                      BLAS
 GLOBAL| Orthonormality check for eigenvectors                          DISABLED
 GLOBAL| Matrix multiplication library                                 ScaLAPACK
 GLOBAL| All-to-all communication in single precision                          F
 GLOBAL| FFTs using library dependent lengths                                  F
 GLOBAL| Grid backend                                                       AUTO
 GLOBAL| Global print level                                                  LOW
 GLOBAL| MPI I/O enabled                                                       T
 GLOBAL| Total number of message passing processes                             1
 GLOBAL| Number of threads for this process                                    1
 GLOBAL| This output is from process                                           0
 GLOBAL| Stack size for threads created by OpenMP (OMP_STACKSIZE)        default
 GLOBAL| CPU model name           AMD Ryzen Threadripper 3970X 32-Core Processor
 GLOBAL| CPUID                                                              1002
 GLOBAL| Compiled for CPUID                                                    0

 *** HINT in environment.F:884 :: The compiler target flags (generic) used ***
 *** to build this binary cannot exploit all extensions of this CPU model  ***
 *** (x86_avx2). Consider compiler target flags as part of FCFLAGS and     ***
 *** CFLAGS (ARCH file).                                                   ***


 MEMORY| system memory details [Kb]
 MEMORY|                        rank 0           min           max       average
 MEMORY| MemTotal            131773860     131773860     131773860     131773860
 MEMORY| MemFree             115406812     115406812     115406812     115406812
 MEMORY| Buffers                301492        301492        301492        301492
 MEMORY| Cached                7000768       7000768       7000768       7000768
 MEMORY| Slab                   776600        776600        776600        776600
 MEMORY| SReclaimable           330700        330700        330700        330700
 MEMORY| MemLikelyFree       123039772     123039772     123039772     123039772


 GENERATE|  Preliminary Number of Bonds generated:                             0
 GENERATE|  Achieved consistency in connectivity generation.

 *******************************************************************************
 *******************************************************************************
 **                                                                           **
 **     #####                         ##              ##                      **
 **    ##   ##            ##          ##              ##                      **
 **   ##     ##                       ##            ######                    **
 **   ##     ##  ##   ##  ##   #####  ##  ##   ####   ##    #####    #####    **
 **   ##     ##  ##   ##  ##  ##      ## ##   ##      ##   ##   ##  ##   ##   **
 **   ##  ## ##  ##   ##  ##  ##      ####     ###    ##   ######   ######    **
 **    ##  ###   ##   ##  ##  ##      ## ##      ##   ##   ##       ##        **
 **     #######   #####   ##   #####  ##  ##  ####    ##    #####   ##        **
 **           ##                                                    ##        **
 **                                                                           **
 **                                                ... make the atoms dance   **
 **                                                                           **
 **            Copyright (C) by CP2K developers group (2000-2023)             **
 **                      J. Chem. Phys. 152, 194103 (2020)                    **
 **                                                                           **
 *******************************************************************************


 TOTAL NUMBERS AND MAXIMUM NUMBERS

  Total number of            - Atomic kinds:                                   2
                             - Atoms:                                          6
                             - Shell sets:                                     6
                             - Shells:                                        22
                             - Primitive Cartesian functions:                 42
                             - Cartesian basis functions:                     48
                             - Spherical basis functions:                     46

  Maximum angular momentum of- Orbital basis functions:                        2
                             - Local part of the GTH pseudopotential:          2
                             - Non-local part of the GTH pseudopotential:      0

 ------------------------------ Linear scaling SCF -----------------------------
 eps_scf:                                                              0.100E-07
 eps_filter:                                                           0.100E-07
 mixing_fraction:                                                      0.450E+00
 max_scf:                                                                     25
 fixed chemical potential (mu)                                                 F
 has unit metric:                                                              F
 Computing inv(S):                                                             T
 Computing sqrt(S):                                                            T
 Computing S preconditioner                                                    F
 S sqrt method:                                                     NEWTONSCHULZ
 S sqrt order:                                                                 3
 Extrapolation order:                                                          1
 Use single precision matrices                                                 F
 S preconditioner type                                                      NONE
 Polarized Atomic Orbitals (PAO)                                               T
 Purification method                                   Trace resetting 4th order
 Cluster type                                                             ATOMIC
 Computing Chebyshev                                                       FALSE
 Using PAO                                                                     T
 -------------------------------------------------------------------------------

 
 PAO|                                  EPS_PAO                           0.1E-04
 PAO|                                  MIXING                            0.5E+00
 PAO|                                  MAX_PAO                              1000
 PAO|                                  MAX_CYCLES                           1000
 PAO|                                  PARAMETERIZATION              EQUIVARIANT
 PAO|                                  PRECONDITION                            F
 PAO|                                  REGULARIZATION                    0.0E+00
 PAO|                                  EPS_PGF                           0.1E-09
 PAO|                                  PENALTY_DISTANCE                  0.1E+00
 PAO|                                  PENALTY_STRENGTH                  0.5E-02
 PAO|                                  LINPOT_PRECONDITION_DELTA         0.0E+00
 PAO|                                  LINPOT_INITGUESS_DELT             0.0E+00
 PAO|                                  LINPOT_REGULARIZATION_DELTA       0.0E+00
 PAO|                                  LINPOT_REGULARIZATION_STRENGTH    0.0E+00
 PAO|                                  OPTIMIZER                              CG
 PAO|                                  CG_INIT_STEPS                           2
 PAO|                                  CG_RESET_LIMIT                    0.1E+00
 PAO|                                  CHECK_UNITARY_TOL                -0.1E+01
 PAO|                                  CHECK_GRADIENT_TOL               -0.1E+01
 PAO|                                  NUM_GRADIENT_ORDER                      2
 PAO|                                  NUM_GRADIENT_EPS                  0.1E-07
 PAO|                                  PRINT%RESTART%WRITE_CYCLES            100
 PAO|                                  RESTART_FILE 
 PAO|                                  PREOPT_DM_FILE 2H2O_ref_LS_DM_SPIN_1_RESTART.dm
 PAO|                                  MACHINE_LEARNING%METHOD       GAUSSIAN_PR
 PAO|                                  MACHINE_LEARNING%PRIOR               ZERO
 PAO|                                  MACHINE_LEARNING%DESCRIPTOR     POTENTIAL
 PAO|                                  MACHINE_LEARNING%TOLERANCE        0.1E-01
 PAO|                                  MACHINE_LEARNING%GP_NOISE_VAR     0.1E+00
 PAO|                                  MACHINE_LEARNING%GP_SCALE         0.5E-01
 

 Calculating atomic Fock matrix for atomic kind: O

 Electronic structure
    Total number of core electrons                                          2.00
    Total number of valence electrons                                       6.00
    Total number of electrons                                               8.00
    Multiplicity                                                   not specified
    S   [  2.00] 2.00
    P      4.00


 *******************************************************************************
                  Iteration          Convergence                     Energy [au]
 *******************************************************************************
                          1        0.708315                     -15.576645311500
                          2        0.608879                     -15.587933561584
                          3        0.102828E-01                 -15.656849565404
                          4        0.113889E-02                 -15.656866888140
                          5        0.434197E-03                 -15.656867072159
                          6        0.263771E-03                 -15.656867091904
                          7        0.478536E-06                 -15.656867103452

 Energy components [Hartree]           Total Energy ::          -15.656867103452
                                        Band Energy ::           -3.000198112285
                                     Kinetic Energy ::           11.759971203220
                                   Potential Energy ::          -27.416838306672
                                      Virial (-V/T) ::            2.331369510426
                                        Core Energy ::          -26.140716385623
                                          XC Energy ::           -3.154051012914
                                     Coulomb Energy ::           13.637900295084
                       Total Pseudopotential Energy ::          -37.935781716540
                       Local Pseudopotential Energy ::          -39.218907440693
                    Nonlocal Pseudopotential Energy ::            1.283125724153
                                        Confinement ::            0.350941276976

 Orbital energies  State     L     Occupation   Energy[a.u.]          Energy[eV]

                       1     0          2.000      -0.864471          -23.523463

                       1     1          4.000      -0.317814           -8.648154


 Total Electron Density at R=0:                                         0.000068

 Calculating atomic Fock matrix for atomic kind: H

 Electronic structure
    Total number of core electrons                                          0.00
    Total number of valence electrons                                       1.00
    Total number of electrons                                               1.00
    Multiplicity                                                   not specified
    S      1.00


 *******************************************************************************
                  Iteration          Convergence                     Energy [au]
 *******************************************************************************
                          1        0.437545E-02                  -0.424159432110
                          2        0.531356E-03                  -0.424178438213
                          3        0.259176E-06                  -0.424178722480

 Energy components [Hartree]           Total Energy ::           -0.424178722480
                                        Band Energy ::           -0.199015229016
                                     Kinetic Energy ::            0.464007633961
                                   Potential Energy ::           -0.888186356441
                                      Virial (-V/T) ::            1.914163240935
                                        Core Energy ::           -0.479160803564
                                          XC Energy ::           -0.244352904054
                                     Coulomb Energy ::            0.299334985138
                       Total Pseudopotential Energy ::           -0.962295316385
                       Local Pseudopotential Energy ::           -0.962295316385
                    Nonlocal Pseudopotential Energy ::            0.000000000000
                                        Confinement ::            0.191268788606

 Orbital energies  State     L     Occupation   Energy[a.u.]          Energy[eV]

                       1     0          1.000      -0.199015           -5.415480


 Total Electron Density at R=0:                                         0.242907
 PAO| Made initial guess for matrix_X with norm:   4.8989794855663558     

     Lanczos converged:  T threshold:   0.100E-02
     Est. extremal eigenvalues:    0.337E+01   0.115E+00
     Est. condition number :    0.294E+02

 Order=           3
     NS sqrt iter    1 1.00000000   0.823E+00       0.002       36.194
     NS sqrt iter    2 1.00000000   0.440E+00       0.001      110.592
     NS sqrt iter    3 1.00000000   0.170E+00       0.001      110.326
     NS sqrt iter    4 1.00000000   0.206E-01       0.001      110.592
     NS sqrt iter    5 1.00000000   0.540E-04       0.001       92.288
     Symmetrizing Results
     Final NS sqrt iter    5 1.00000000   0.505E-08

 PAO| Read restart DM 2H2O_ref_LS_DM_SPIN_1_RESTART.dm with checksum:    72.762774522569444     
 PAO| Quickstep energy from restart density:  -34.450194047838103     
 PAO| ======================= Iteration:         1 =============================

     Lanczos converged:  T threshold:   0.100E-02
     Est. extremal eigenvalues:    0.337E+01   0.115E+00
     Est. condition number :    0.294E+02

 Order=           3
     NS sqrt iter    1 1.00000000   0.823E+00       0.001       58.776
     NS sqrt iter    2 1.00000000   0.440E+00       0.001       99.885
     NS sqrt iter    3 1.00000000   0.170E+00       0.001      100.655
     NS sqrt iter    4 1.00000000   0.206E-01       0.001      100.944
     NS sqrt iter    5 1.00000000   0.540E-04       0.001       83.468
     Symmetrizing Results
     Final NS sqrt iter    5 1.00000000   0.505E-08

     Est. extremal eigenvalues     -0.91777     1.85667  converged:  T
     TRS4 it   1 1.00000000   0.883E+00       0.000       16.128   0.100E-07
     TRS4 it   2 1.00000000   0.684E+00       0.001       32.256   0.100E-07
     TRS4 it   3 1.00000000   0.495E+00       0.001       32.256   0.100E-07
     TRS4 it   4 1.00000000   0.309E+00       0.001       32.256   0.100E-07
     TRS4 it   5 1.00000000   0.152E+00       0.001       32.256   0.100E-07
     TRS4 it   6 1.00000000   0.472E-01       0.001       32.256   0.100E-07
     TRS4 it   7 1.00000000   0.627E-02       0.001       32.256   0.100E-07
     TRS4 it   8 1.00000000   0.156E-03       0.001       32.256   0.100E-07
     TRS4 it   9 1.00000000   0.108E-06       0.001       32.256   0.100E-07
     TRS4 it  10 1.00000000   0.528E-13       0.001       32.256   0.100E-07
     Final TRS4 iteration   10 1.00000000   0.528E-13
     Chemical potential (mu):      -0.06121
 
 PAO| energy:  -7.5824834643588082      penalty:   3.5128962185623179E-033
 PAO|CG| warming up with steepest descent
 PAO|CG| beta:    0.0000000000000000     
 PAO| norm of gradient:  0.78399150287774333     
 PAO|LS| adapt:  T F F
 PAO|LS| adapt: scan_steps:    0.0000000000000000        0.0000000000000000        0.0000000000000000     
 PAO|LS| adapt: energies:   -7.5824834643588082        0.0000000000000000        0.0000000000000000     
 PAO| ======================= Iteration:         2 =============================

     Lanczos converged:  T threshold:   0.100E-02
     Est. extremal eigenvalues:    0.328E+01   0.128E+00
     Est. condition number :    0.257E+02

 Order=           3
     NS sqrt iter    1 1.00000000   0.807E+00       0.001       59.122
     NS sqrt iter    2 1.00000000   0.425E+00       0.001       98.416
     NS sqrt iter    3 1.00000000   0.152E+00       0.001       97.940
     NS sqrt iter    4 1.00000000   0.141E-01       0.001       99.506
     NS sqrt iter    5 1.00000000   0.167E-04       0.001       76.491
     Symmetrizing Results
     Final NS sqrt iter    5 1.00000000   0.417E-09

     Est. extremal eigenvalues     -0.92145     1.79819  converged:  T
     TRS4 it   1 1.00000000   0.877E+00       0.000       16.128   0.100E-07
     TRS4 it   2 1.00000000   0.664E+00       0.001       32.256   0.100E-07
     TRS4 it   3 1.00000000   0.477E+00       0.001       32.256   0.100E-07
     TRS4 it   4 1.00000000   0.287E+00       0.001       32.256   0.100E-07
     TRS4 it   5 1.00000000   0.132E+00       0.001       32.256   0.100E-07
     TRS4 it   6 1.00000000   0.357E-01       0.001       32.256   0.100E-07
     TRS4 it   7 1.00000000   0.365E-02       0.001       32.256   0.100E-07
     TRS4 it   8 1.00000000   0.534E-04       0.001       32.256   0.100E-07
     TRS4 it   9 1.00000000   0.127E-07       0.001       32.256   0.100E-07
     Final TRS4 iteration    9 1.00000000   0.127E-07
     Chemical potential (mu):      -0.04930
 
 PAO| energy:  -7.6380379487480337      penalty:   2.2586311921461714E-008
 PAO|LS| adapt:  T T F
 PAO|LS| adapt: scan_steps:    0.0000000000000000       0.10000000000000001        0.0000000000000000     
 PAO|LS| adapt: energies:   -7.5824834643588082       -7.6380379487480337        0.0000000000000000     
 PAO| ======================= Iteration:         3 =============================

     Lanczos converged:  T threshold:   0.100E-02
     Est. extremal eigenvalues:    0.319E+01   0.140E+00
     Est. condition number :    0.227E+02

 Order=           3
     NS sqrt iter    1 1.00000000   0.789E+00       0.001       58.992
     NS sqrt iter    2 1.00000000   0.408E+00       0.001       99.244
     NS sqrt iter    3 1.00000000   0.135E+00       0.001       99.115
     NS sqrt iter    4 1.00000000   0.965E-02       0.001       98.437
     NS sqrt iter    5 1.00000000   0.528E-05       0.001       76.351
     Symmetrizing Results
     Final NS sqrt iter    5 1.00000000   0.418E-10

     Est. extremal eigenvalues     -0.92488     1.75110  converged:  T
     TRS4 it   1 1.00000000   0.873E+00       0.000       16.128   0.100E-07
     TRS4 it   2 1.00000000   0.647E+00       0.001       32.256   0.100E-07
     TRS4 it   3 1.00000000   0.460E+00       0.001       32.256   0.100E-07
     TRS4 it   4 1.00000000   0.266E+00       0.001       32.256   0.100E-07
     TRS4 it   5 1.00000000   0.113E+00       0.001       32.256   0.100E-07
     TRS4 it   6 1.00000000   0.261E-01       0.001       32.256   0.100E-07
     TRS4 it   7 1.00000000   0.196E-02       0.001       32.256   0.100E-07
     TRS4 it   8 1.00000000   0.154E-04       0.001       32.256   0.100E-07
     TRS4 it   9 1.00000000   0.106E-08       0.001       32.256   0.100E-07
     Final TRS4 iteration    9 1.00000000   0.106E-08
     Chemical potential (mu):      -0.03645
 
 PAO| energy:  -7.6811156089943804      penalty:   3.6138033910376745E-007
 PAO|LS| adapt:  T T F
 PAO|LS| adapt: scan_steps:    0.0000000000000000       0.20000000000000001        0.0000000000000000     
 PAO|LS| adapt: energies:   -7.5824834643588082       -7.6811156089943804        0.0000000000000000     
 PAO| ======================= Iteration:         4 =============================

     Lanczos converged:  T threshold:   0.100E-02
     Est. extremal eigenvalues:    0.299E+01   0.160E+00
     Est. condition number :    0.187E+02

 Order=           3
     NS sqrt iter    1 1.00000000   0.751E+00       0.001       59.144
     NS sqrt iter    2 1.00000000   0.373E+00       0.001       99.126
     NS sqrt iter    3 1.00000000   0.105E+00       0.001       98.676
     NS sqrt iter    4 1.00000000   0.459E-02       0.001       98.484
     NS sqrt iter    5 1.00000000   0.650E-06       0.001       77.442
     Symmetrizing Results
     Final NS sqrt iter    5 1.00000000   0.693E-12

     Est. extremal eigenvalues     -0.93020     1.68314  converged:  T
     TRS4 it   1 1.00000000   0.866E+00       0.000       16.128   0.100E-07
     TRS4 it   2 1.00000000   0.618E+00       0.001       32.256   0.100E-07
     TRS4 it   3 1.00000000   0.427E+00       0.001       32.256   0.100E-07
     TRS4 it   4 1.00000000   0.226E+00       0.001       32.256   0.100E-07
     TRS4 it   5 1.00000000   0.803E-01       0.001       32.256   0.100E-07
     TRS4 it   6 1.00000000   0.128E-01       0.001       32.256   0.100E-07
     TRS4 it   7 1.00000000   0.456E-03       0.001       32.256   0.100E-07
     TRS4 it   8 1.00000000   0.822E-06       0.001       32.256   0.100E-07
     TRS4 it   9 1.00000000   0.301E-11       0.001       32.256   0.100E-07
     Final TRS4 iteration    9 1.00000000   0.301E-11
     Chemical potential (mu):      -0.00836
 
 PAO| energy:  -7.7282686233836788      penalty:   5.7820802125544973E-006
 PAO|LS| Need extra step
 PAO|LS| adapt:  T T F
 PAO|LS| adapt: scan_steps:    0.0000000000000000       0.40000000000000002        0.0000000000000000     
 PAO|LS| adapt: energies:   -7.5824834643588082       -7.7282686233836788        0.0000000000000000     
 PAO| ======================= Iteration:         5 =============================

     Lanczos converged:  T threshold:   0.100E-02
     Est. extremal eigenvalues:    0.263E+01   0.190E+00
     Est. condition number :    0.138E+02

 Order=           3
     NS sqrt iter    1 1.00000000   0.685E+00       0.001       58.126
     NS sqrt iter    2 1.00000000   0.310E+00       0.001       98.919
     NS sqrt iter    3 1.00000000   0.641E-01       0.001      100.069
     NS sqrt iter    4 1.00000000   0.119E-02       0.001       98.747
     NS sqrt iter    5 1.00000000   0.133E-07       0.001       44.534
     Symmetrizing Results
     Final NS sqrt iter    5 1.00000000   0.472E-08

     Est. extremal eigenvalues     -0.93136     1.61088  converged:  T
     TRS4 it   1 1.00000000   0.859E+00       0.000       16.128   0.100E-07
     TRS4 it   2 1.00000000   0.580E+00       0.001       32.256   0.100E-07
     TRS4 it   3 1.00000000   0.374E+00       0.001       32.256   0.100E-07
     TRS4 it   4 1.00000000   0.167E+00       0.001       32.256   0.100E-07
     TRS4 it   5 1.00000000   0.407E-01       0.001       32.256   0.100E-07
     TRS4 it   6 1.00000000   0.302E-02       0.001       32.256   0.100E-07
     TRS4 it   7 1.00000000   0.215E-04       0.001       32.256   0.100E-07
     TRS4 it   8 1.00000000   0.135E-08       0.001       32.256   0.100E-07
     Final TRS4 iteration    8 1.00000000   0.135E-08
     Chemical potential (mu):       0.04042
 
 PAO| energy:  -7.6733114536814986      penalty:   9.2513241696070615E-005
 PAO|LS| Need extra step
 PAO|LS| adapt:  T T T
 PAO|LS| adapt: scan_steps:    0.0000000000000000       0.40000000000000002       0.80000000000000004     
 PAO|LS| adapt: energies:   -7.5824834643588082       -7.7282686233836788       -7.6733114536814986     
 PAO|LS| adapt: suggested step_size:   0.49049211484060168     
 PAO|LS| adapt: predicted energy  -7.7334056339090100     
 PAO| ======================= Iteration:         6 =============================

     Lanczos converged:  T threshold:   0.100E-02
     Est. extremal eigenvalues:    0.290E+01   0.168E+00
     Est. condition number :    0.173E+02

 Order=           3
     NS sqrt iter    1 1.00000000   0.734E+00       0.001       57.242
     NS sqrt iter    2 1.00000000   0.358E+00       0.001       99.561
     NS sqrt iter    3 1.00000000   0.937E-01       0.001       98.281
     NS sqrt iter    4 1.00000000   0.333E-02       0.001       97.833
     NS sqrt iter    5 1.00000000   0.268E-06       0.001       76.198
     Symmetrizing Results
     Final NS sqrt iter    5 1.00000000   0.190E-09

     Est. extremal eigenvalues     -0.93166     1.66094  converged:  T
     TRS4 it   1 1.00000000   0.864E+00       0.000       16.128   0.100E-07
     TRS4 it   2 1.00000000   0.607E+00       0.001       32.256   0.100E-07
     TRS4 it   3 1.00000000   0.413E+00       0.001       32.256   0.100E-07
     TRS4 it   4 1.00000000   0.210E+00       0.001       32.256   0.100E-07
     TRS4 it   5 1.00000000   0.684E-01       0.001       32.256   0.100E-07
     TRS4 it   6 1.00000000   0.912E-02       0.001       32.256   0.100E-07
     TRS4 it   7 1.00000000   0.221E-03       0.001       32.256   0.100E-07
     TRS4 it   8 1.00000000   0.187E-06       0.001       32.256   0.100E-07
     TRS4 it   9 1.00000000   0.154E-12       0.001       32.256   0.100E-07
     Final TRS4 iteration    9 1.00000000   0.154E-12
     Chemical potential (mu):       0.00505
 
 PAO| energy:  -7.7326505192179038      penalty:   1.3072907697426596E-005
 PAO|CG| warming up with steepest descent
 PAO|CG| beta:    0.0000000000000000     
 PAO| norm of gradient:  0.41690790770198283     
 PAO| energy improvement: -0.15016705485909565     
 PAO| step      6                   -7.732650519  0.261E-01  0.490E+00     0.097
 PAO|LS| adapt:  T F F
 PAO|LS| adapt: scan_steps:    0.0000000000000000        0.0000000000000000        0.0000000000000000     
 PAO|LS| adapt: energies:   -7.7326505192179038        0.0000000000000000        0.0000000000000000     
 PAO| ======================= Iteration:         7 =============================

     Lanczos converged:  T threshold:   0.100E-02
     Est. extremal eigenvalues:    0.281E+01   0.182E+00
     Est. condition number :    0.154E+02

 Order=           3
     NS sqrt iter    1 1.00000000   0.716E+00       0.001       56.768
     NS sqrt iter    2 1.00000000   0.337E+00       0.001      100.252
     NS sqrt iter    3 1.00000000   0.781E-01       0.001      101.556
     NS sqrt iter    4 1.00000000   0.198E-02       0.001       98.194
     NS sqrt iter    5 1.00000000   0.628E-07       0.001       67.750
     Symmetrizing Results
     Final NS sqrt iter    5 1.00000000   0.656E-09

     Est. extremal eigenvalues     -0.93336     1.64808  converged:  T
     TRS4 it   1 1.00000000   0.863E+00       0.000       16.128   0.100E-07
     TRS4 it   2 1.00000000   0.605E+00       0.001       32.256   0.100E-07
     TRS4 it   3 1.00000000   0.413E+00       0.001       32.256   0.100E-07
     TRS4 it   4 1.00000000   0.211E+00       0.001       32.256   0.100E-07
     TRS4 it   5 1.00000000   0.689E-01       0.001       32.256   0.100E-07
     TRS4 it   6 1.00000000   0.902E-02       0.001       32.256   0.100E-07
     TRS4 it   7 1.00000000   0.206E-03       0.001       32.256   0.100E-07
     TRS4 it   8 1.00000000   0.155E-06       0.001       32.256   0.100E-07
     TRS4 it   9 1.00000000   0.105E-12       0.001       32.256   0.100E-07
     Final TRS4 iteration    9 1.00000000   0.105E-12
     Chemical potential (mu):       0.00668
 
 PAO| energy:  -7.7267601308823428      penalty:   1.9727737369306035E-005
 PAO|LS| adapt:  T F T
 PAO|LS| adapt: scan_steps:    0.0000000000000000        0.0000000000000000       0.49049211484060168     
 PAO|LS| adapt: energies:   -7.7326505192179038        0.0000000000000000       -7.7267601308823428     
 PAO| ======================= Iteration:         8 =============================

     Lanczos converged:  T threshold:   0.100E-02
     Est. extremal eigenvalues:    0.286E+01   0.175E+00
     Est. condition number :    0.163E+02

 Order=           3
     NS sqrt iter    1 1.00000000   0.725E+00       0.001       58.993
     NS sqrt iter    2 1.00000000   0.347E+00       0.001       99.578
     NS sqrt iter    3 1.00000000   0.857E-01       0.001       99.921
     NS sqrt iter    4 1.00000000   0.259E-02       0.001       98.796
     NS sqrt iter    5 1.00000000   0.132E-06       0.001       72.719
     Symmetrizing Results
     Final NS sqrt iter    5 1.00000000   0.116E-08

     Est. extremal eigenvalues     -0.93350     1.65377  converged:  T
     TRS4 it   1 1.00000000   0.863E+00       0.000       16.128   0.100E-07
     TRS4 it   2 1.00000000   0.606E+00       0.001       32.256   0.100E-07
     TRS4 it   3 1.00000000   0.412E+00       0.001       32.256   0.100E-07
     TRS4 it   4 1.00000000   0.210E+00       0.001       32.256   0.100E-07
     TRS4 it   5 1.00000000   0.685E-01       0.001       32.256   0.100E-07
     TRS4 it   6 1.00000000   0.912E-02       0.001       32.256   0.100E-07
     TRS4 it   7 1.00000000   0.220E-03       0.001       32.256   0.100E-07
     TRS4 it   8 1.00000000   0.181E-06       0.001       32.256   0.100E-07
     TRS4 it   9 1.00000000   0.145E-12       0.001       32.256   0.100E-07
     Final TRS4 iteration    9 1.00000000   0.145E-12
     Chemical potential (mu):       0.00542
 
 PAO| energy:  -7.7522533657671753      penalty:   1.4163944998627203E-005
 PAO|LS| adapt:  T T T
 PAO|LS| adapt: scan_steps:    0.0000000000000000       0.24524605742030084       0.49049211484060168     
 PAO|LS| adapt: energies:   -7.7326505192179038       -7.7522533657671753       -7.7267601308823428     
 PAO|LS| adapt: suggested step_size:   0.22922920551176246     
 PAO|LS| adapt: predicted energy  -7.7523495400733466     
 PAO| ======================= Iteration:         9 =============================

     Lanczos converged:  T threshold:   0.100E-02
     Est. extremal eigenvalues:    0.286E+01   0.174E+00
     Est. condition number :    0.164E+02

 Order=           3
     NS sqrt iter    1 1.00000000   0.726E+00       0.001       59.391
     NS sqrt iter    2 1.00000000   0.348E+00       0.001       97.682
     NS sqrt iter    3 1.00000000   0.863E-01       0.001      101.297
     NS sqrt iter    4 1.00000000   0.263E-02       0.001      100.244
     NS sqrt iter    5 1.00000000   0.139E-06       0.001       73.188
     Symmetrizing Results
     Final NS sqrt iter    5 1.00000000   0.999E-09

     Est. extremal eigenvalues     -0.93344     1.65419  converged:  T
     TRS4 it   1 1.00000000   0.863E+00       0.000       16.128   0.100E-07
     TRS4 it   2 1.00000000   0.606E+00       0.001       32.256   0.100E-07
     TRS4 it   3 1.00000000   0.412E+00       0.001       32.256   0.100E-07
     TRS4 it   4 1.00000000   0.210E+00       0.001       32.256   0.100E-07
     TRS4 it   5 1.00000000   0.684E-01       0.001       32.256   0.100E-07
     TRS4 it   6 1.00000000   0.913E-02       0.001       32.256   0.100E-07
     TRS4 it   7 1.00000000   0.220E-03       0.001       32.256   0.100E-07
     TRS4 it   8 1.00000000   0.182E-06       0.001       32.256   0.100E-07
     TRS4 it   9 1.00000000   0.146E-12       0.001       32.256   0.100E-07
     Final TRS4 iteration    9 1.00000000   0.146E-12
     Chemical potential (mu):       0.00537
 
 PAO| energy:  -7.7523733391076934      penalty:   1.3994099125407135E-005
 PAO|CG| trace_G_new    3.6599444429924237E-002
 PAO|CG| trace_G_prev   0.17381220350444504     
 PAO|CG| trace_G_mix   -1.4385690791324235E-003
 PAO|CG| trace_D   0.17381220350444504     
 PAO|CG| trace_D_Gnew   1.4385690791324235E-003
 PAO|CG| beta:   0.21884547081346842     
 PAO| norm of gradient:  0.19130981268592637     
 PAO| energy improvement:  -1.9722819889789633E-002
 PAO| step      9                   -7.752373339  0.120E-01  0.229E+00     0.058
 PAO|LS| adapt:  T F F
 PAO|LS| adapt: scan_steps:    0.0000000000000000        0.0000000000000000        0.0000000000000000     
 PAO|LS| adapt: energies:   -7.7523733391076934        0.0000000000000000        0.0000000000000000     
 PAO| ======================= Iteration:        10 =============================

     Lanczos converged:  T threshold:   0.100E-02
     Est. extremal eigenvalues:    0.282E+01   0.180E+00
     Est. condition number :    0.156E+02

 Order=           3
     NS sqrt iter    1 1.00000000   0.718E+00       0.001       59.199
     NS sqrt iter    2 1.00000000   0.339E+00       0.001      100.692
     NS sqrt iter    3 1.00000000   0.806E-01       0.001      102.651
     NS sqrt iter    4 1.00000000   0.216E-02       0.001      100.239
     NS sqrt iter    5 1.00000000   0.755E-07       0.001       67.801
     Symmetrizing Results
     Final NS sqrt iter    5 1.00000000   0.627E-09

     Est. extremal eigenvalues     -0.93432     1.65047  converged:  T
     TRS4 it   1 1.00000000   0.861E+00       0.000       16.128   0.100E-07
     TRS4 it   2 1.00000000   0.605E+00       0.001       32.256   0.100E-07
     TRS4 it   3 1.00000000   0.410E+00       0.001       32.256   0.100E-07
     TRS4 it   4 1.00000000   0.207E+00       0.001       32.256   0.100E-07
     TRS4 it   5 1.00000000   0.665E-01       0.001       32.256   0.100E-07
     TRS4 it   6 1.00000000   0.858E-02       0.001       32.256   0.100E-07
     TRS4 it   7 1.00000000   0.192E-03       0.001       32.256   0.100E-07
     TRS4 it   8 1.00000000   0.135E-06       0.001       32.256   0.100E-07
     TRS4 it   9 1.00000000   0.795E-13       0.001       32.256   0.100E-07
     Final TRS4 iteration    9 1.00000000   0.795E-13
     Chemical potential (mu):       0.00832
 
 PAO| energy:  -7.7573678018215828      penalty:   1.4522797693666925E-005
 PAO|LS| adapt:  T T F
 PAO|LS| adapt: scan_steps:    0.0000000000000000       0.22922920551176246        0.0000000000000000     
 PAO|LS| adapt: energies:   -7.7523733391076934       -7.7573678018215828        0.0000000000000000     
 PAO| ======================= Iteration:        11 =============================

     Lanczos converged:  T threshold:   0.100E-02
     Est. extremal eigenvalues:    0.278E+01   0.186E+00
     Est. condition number :    0.149E+02

 Order=           3
     NS sqrt iter    1 1.00000000   0.710E+00       0.001       58.929
     NS sqrt iter    2 1.00000000   0.331E+00       0.001      100.277
     NS sqrt iter    3 1.00000000   0.753E-01       0.001      102.030
     NS sqrt iter    4 1.00000000   0.176E-02       0.001      100.952
     NS sqrt iter    5 1.00000000   0.406E-07       0.001       62.394
     Symmetrizing Results
     Final NS sqrt iter    5 1.00000000   0.343E-09

     Est. extremal eigenvalues     -0.93424     1.64830  converged:  T
     TRS4 it   1 1.00000000   0.860E+00       0.000       16.128   0.100E-07
     TRS4 it   2 1.00000000   0.604E+00       0.001       32.256   0.100E-07
     TRS4 it   3 1.00000000   0.409E+00       0.001       32.256   0.100E-07
     TRS4 it   4 1.00000000   0.205E+00       0.001       32.256   0.100E-07
     TRS4 it   5 1.00000000   0.648E-01       0.001       32.256   0.100E-07
     TRS4 it   6 1.00000000   0.807E-02       0.001       32.256   0.100E-07
     TRS4 it   7 1.00000000   0.167E-03       0.001       32.256   0.100E-07
     TRS4 it   8 1.00000000   0.996E-07       0.001       32.256   0.100E-07
     TRS4 it   9 1.00000000   0.427E-13       0.001       32.256   0.100E-07
     Final TRS4 iteration    9 1.00000000   0.427E-13
     Chemical potential (mu):       0.01139
 
 PAO| energy:  -7.7559572514250759      penalty:   1.5713216670491794E-005
 PAO|LS| adapt:  T T T
 PAO|LS| adapt: scan_steps:    0.0000000000000000       0.22922920551176246       0.45845841102352491     
 PAO|LS| adapt: energies:   -7.7523733391076934       -7.7573678018215828       -7.7559572514250759     
 PAO|LS| adapt: suggested step_size:   0.29336157799698903     
 PAO|LS| adapt: predicted energy  -7.7576184731956550     
 PAO| ======================= Iteration:        12 =============================

     Lanczos converged:  T threshold:   0.100E-02
     Est. extremal eigenvalues:    0.281E+01   0.182E+00
     Est. condition number :    0.154E+02

 Order=           3
     NS sqrt iter    1 1.00000000   0.716E+00       0.001       58.234
     NS sqrt iter    2 1.00000000   0.337E+00       0.001       99.014
     NS sqrt iter    3 1.00000000   0.791E-01       0.001       99.409
     NS sqrt iter    4 1.00000000   0.204E-02       0.001       98.970
     NS sqrt iter    5 1.00000000   0.635E-07       0.001       66.948
     Symmetrizing Results
     Final NS sqrt iter    5 1.00000000   0.606E-09

     Est. extremal eigenvalues     -0.93439     1.64971  converged:  T
     TRS4 it   1 1.00000000   0.861E+00       0.000       16.128   0.100E-07
     TRS4 it   2 1.00000000   0.604E+00       0.001       32.256   0.100E-07
     TRS4 it   3 1.00000000   0.410E+00       0.001       32.256   0.100E-07
     TRS4 it   4 1.00000000   0.207E+00       0.001       32.256   0.100E-07
     TRS4 it   5 1.00000000   0.660E-01       0.001       32.256   0.100E-07
     TRS4 it   6 1.00000000   0.843E-02       0.001       32.256   0.100E-07
     TRS4 it   7 1.00000000   0.184E-03       0.001       32.256   0.100E-07
     TRS4 it   8 1.00000000   0.124E-06       0.001       32.256   0.100E-07
     TRS4 it   9 1.00000000   0.666E-13       0.001       32.256   0.100E-07
     Final TRS4 iteration    9 1.00000000   0.666E-13
     Chemical potential (mu):       0.00917
 
 PAO| energy:  -7.7576025123272201      penalty:   1.4781669286247764E-005
 PAO|CG| trace_G_new    1.1736752647406040E-002
 PAO|CG| trace_G_prev    3.6599444429924237E-002
 PAO|CG| trace_G_mix   -4.5482638475275393E-004
 PAO|CG| trace_D    4.4294242750281952E-002
 PAO|CG| trace_D_Gnew   2.0784351993151829E-004
 PAO|CG| beta:   0.33310830866576713     
 PAO| norm of gradient:  0.10833629422961651     
 PAO| energy improvement:  -5.2291732195266505E-003
 PAO| step     12                   -7.757602512  0.677E-02  0.293E+00     0.058
 PAO|LS| adapt:  T F F
 PAO|LS| adapt: scan_steps:    0.0000000000000000        0.0000000000000000        0.0000000000000000     
 PAO|LS| adapt: energies:   -7.7576025123272201        0.0000000000000000        0.0000000000000000     
 PAO| ======================= Iteration:        13 =============================

     Lanczos converged:  T threshold:   0.100E-02
     Est. extremal eigenvalues:    0.278E+01   0.187E+00
     Est. condition number :    0.149E+02

 Order=           3
     NS sqrt iter    1 1.00000000   0.708E+00       0.001       59.281
     NS sqrt iter    2 1.00000000   0.330E+00       0.001       98.365
     NS sqrt iter    3 1.00000000   0.747E-01       0.001      102.549
     NS sqrt iter    4 1.00000000   0.172E-02       0.001       98.964
     NS sqrt iter    5 1.00000000   0.387E-07       0.001       62.021
     Symmetrizing Results
     Final NS sqrt iter    5 1.00000000   0.426E-09

     Est. extremal eigenvalues     -0.93487     1.64328  converged:  T
     TRS4 it   1 1.00000000   0.860E+00       0.000       16.128   0.100E-07
     TRS4 it   2 1.00000000   0.601E+00       0.001       32.256   0.100E-07
     TRS4 it   3 1.00000000   0.406E+00       0.001       32.256   0.100E-07
     TRS4 it   4 1.00000000   0.202E+00       0.001       32.256   0.100E-07
     TRS4 it   5 1.00000000   0.625E-01       0.001       32.256   0.100E-07
     TRS4 it   6 1.00000000   0.752E-02       0.001       32.256   0.100E-07
     TRS4 it   7 1.00000000   0.145E-03       0.001       32.256   0.100E-07
     TRS4 it   8 1.00000000   0.749E-07       0.001       32.256   0.100E-07
     Final TRS4 iteration    8 1.00000000   0.749E-07
     Chemical potential (mu):       0.01168
 
 PAO| energy:  -7.7596592288960355      penalty:   1.5079996829914457E-005
 PAO|LS| adapt:  T T F
 PAO|LS| adapt: scan_steps:    0.0000000000000000       0.29336157799698903        0.0000000000000000     
 PAO|LS| adapt: energies:   -7.7576025123272201       -7.7596592288960355        0.0000000000000000     
 PAO| ======================= Iteration:        14 =============================

     Lanczos converged:  T threshold:   0.100E-02
     Est. extremal eigenvalues:    0.274E+01   0.191E+00
     Est. condition number :    0.144E+02

 Order=           3
     NS sqrt iter    1 1.00000000   0.701E+00       0.001       58.554
     NS sqrt iter    2 1.00000000   0.323E+00       0.001       99.469
     NS sqrt iter    3 1.00000000   0.705E-01       0.001      102.029
     NS sqrt iter    4 1.00000000   0.146E-02       0.001       99.226
     NS sqrt iter    5 1.00000000   0.233E-07       0.001       55.918
     Symmetrizing Results
     Final NS sqrt iter    5 1.00000000   0.393E-08

     Est. extremal eigenvalues     -0.93486     1.63721  converged:  T
     TRS4 it   1 1.00000000   0.859E+00       0.000       16.128   0.100E-07
     TRS4 it   2 1.00000000   0.598E+00       0.001       32.256   0.100E-07
     TRS4 it   3 1.00000000   0.401E+00       0.001       32.256   0.100E-07
     TRS4 it   4 1.00000000   0.197E+00       0.001       32.256   0.100E-07
     TRS4 it   5 1.00000000   0.592E-01       0.001       32.256   0.100E-07
     TRS4 it   6 1.00000000   0.671E-02       0.001       32.256   0.100E-07
     TRS4 it   7 1.00000000   0.114E-03       0.001       32.256   0.100E-07
     TRS4 it   8 1.00000000   0.453E-07       0.001       32.256   0.100E-07
     Final TRS4 iteration    8 1.00000000   0.453E-07
     Chemical potential (mu):       0.01556
 
 PAO| energy:  -7.7590335444459555      penalty:   1.5853282740612636E-005
 PAO|LS| adapt:  T T T
 PAO|LS| adapt: scan_steps:    0.0000000000000000       0.29336157799698903       0.58672315599397806     
 PAO|LS| adapt: energies:   -7.7576025123272201       -7.7596592288960355       -7.7590335444459555     
 PAO|LS| adapt: suggested step_size:   0.37161420270883289     
 PAO|LS| adapt: predicted energy  -7.7597546589282356     
 PAO| ======================= Iteration:        15 =============================

     Lanczos converged:  T threshold:   0.100E-02
     Est. extremal eigenvalues:    0.277E+01   0.188E+00
     Est. condition number :    0.147E+02

 Order=           3
     NS sqrt iter    1 1.00000000   0.706E+00       0.001       58.994
     NS sqrt iter    2 1.00000000   0.328E+00       0.001       98.220
     NS sqrt iter    3 1.00000000   0.736E-01       0.001       99.499
     NS sqrt iter    4 1.00000000   0.165E-02       0.001       99.761
     NS sqrt iter    5 1.00000000   0.339E-07       0.001       61.392
     Symmetrizing Results
     Final NS sqrt iter    5 1.00000000   0.444E-09

     Est. extremal eigenvalues     -0.93492     1.64163  converged:  T
     TRS4 it   1 1.00000000   0.860E+00       0.000       16.128   0.100E-07
     TRS4 it   2 1.00000000   0.600E+00       0.001       32.256   0.100E-07
     TRS4 it   3 1.00000000   0.404E+00       0.001       32.256   0.100E-07
     TRS4 it   4 1.00000000   0.200E+00       0.001       32.256   0.100E-07
     TRS4 it   5 1.00000000   0.616E-01       0.001       32.256   0.100E-07
     TRS4 it   6 1.00000000   0.729E-02       0.001       32.256   0.100E-07
     TRS4 it   7 1.00000000   0.136E-03       0.001       32.256   0.100E-07
     TRS4 it   8 1.00000000   0.655E-07       0.001       32.256   0.100E-07
     Final TRS4 iteration    8 1.00000000   0.655E-07
     Chemical potential (mu):       0.01273
 
 PAO| energy:  -7.7597515848222631      penalty:   1.5236773806528458E-005
 PAO|CG| trace_G_new    2.6025654685319791E-003
 PAO|CG| trace_G_prev    1.1736752647406040E-002
 PAO|CG| trace_G_mix    6.2536111339165317E-005
 PAO|CG| trace_D    1.6513223746486526E-002
 PAO|CG| trace_D_Gnew   3.3571170625204254E-005
 PAO|CG| beta:   0.21641670686092118     
 PAO| norm of gradient:   5.1015345422058836E-002
 PAO| energy improvement:  -2.1490724950430362E-003
 PAO| step     15                   -7.759751585  0.319E-02  0.372E+00     0.055
 PAO|LS| adapt:  T F F
 PAO|LS| adapt: scan_steps:    0.0000000000000000        0.0000000000000000        0.0000000000000000     
 PAO|LS| adapt: energies:   -7.7597515848222631        0.0000000000000000        0.0000000000000000     
 PAO| ======================= Iteration:        16 =============================

     Lanczos converged:  T threshold:   0.100E-02
     Est. extremal eigenvalues:    0.276E+01   0.188E+00
     Est. condition number :    0.146E+02

 Order=           3
     NS sqrt iter    1 1.00000000   0.704E+00       0.001       58.689
     NS sqrt iter    2 1.00000000   0.327E+00       0.001       98.461
     NS sqrt iter    3 1.00000000   0.728E-01       0.001       99.261
     NS sqrt iter    4 1.00000000   0.159E-02       0.001      101.735
     NS sqrt iter    5 1.00000000   0.306E-07       0.001       61.484
     Symmetrizing Results
     Final NS sqrt iter    5 1.00000000   0.410E-09

     Est. extremal eigenvalues     -0.93494     1.64095  converged:  T
     TRS4 it   1 1.00000000   0.860E+00       0.000       16.128   0.100E-07
     TRS4 it   2 1.00000000   0.600E+00       0.001       32.256   0.100E-07
     TRS4 it   3 1.00000000   0.403E+00       0.001       32.256   0.100E-07
     TRS4 it   4 1.00000000   0.199E+00       0.001       32.256   0.100E-07
     TRS4 it   5 1.00000000   0.605E-01       0.001       32.256   0.100E-07
     TRS4 it   6 1.00000000   0.704E-02       0.001       32.256   0.100E-07
     TRS4 it   7 1.00000000   0.127E-03       0.001       32.256   0.100E-07
     TRS4 it   8 1.00000000   0.582E-07       0.001       32.256   0.100E-07
     Final TRS4 iteration    8 1.00000000   0.582E-07
     Chemical potential (mu):       0.01368
 
 PAO| energy:  -7.7598734589646181      penalty:   1.5014909208192191E-005
 PAO|LS| adapt:  T T F
 PAO|LS| adapt: scan_steps:    0.0000000000000000       0.37161420270883289        0.0000000000000000     
 PAO|LS| adapt: energies:   -7.7597515848222631       -7.7598734589646181        0.0000000000000000     
 PAO| ======================= Iteration:        17 =============================

     Lanczos converged:  T threshold:   0.100E-02
     Est. extremal eigenvalues:    0.275E+01   0.189E+00
     Est. condition number :    0.145E+02

 Order=           3
     NS sqrt iter    1 1.00000000   0.702E+00       0.001       58.843
     NS sqrt iter    2 1.00000000   0.325E+00       0.001       99.319
     NS sqrt iter    3 1.00000000   0.721E-01       0.001       99.184
     NS sqrt iter    4 1.00000000   0.154E-02       0.001      100.522
     NS sqrt iter    5 1.00000000   0.277E-07       0.001       61.546
     Symmetrizing Results
     Final NS sqrt iter    5 1.00000000   0.688E-09

     Est. extremal eigenvalues     -0.93485     1.64035  converged:  T
     TRS4 it   1 1.00000000   0.860E+00       0.000       16.128   0.100E-07
     TRS4 it   2 1.00000000   0.599E+00       0.001       32.256   0.100E-07
     TRS4 it   3 1.00000000   0.402E+00       0.001       32.256   0.100E-07
     TRS4 it   4 1.00000000   0.197E+00       0.001       32.256   0.100E-07
     TRS4 it   5 1.00000000   0.594E-01       0.001       32.256   0.100E-07
     TRS4 it   6 1.00000000   0.680E-02       0.001       32.256   0.100E-07
     TRS4 it   7 1.00000000   0.120E-03       0.001       32.256   0.100E-07
     TRS4 it   8 1.00000000   0.518E-07       0.001       32.256   0.100E-07
     Final TRS4 iteration    8 1.00000000   0.518E-07
     Chemical potential (mu):       0.01461
 
 PAO| energy:  -7.7583047302923367      penalty:   1.4918830846422938E-005
 PAO|LS| adapt:  T T T
 PAO|LS| adapt: scan_steps:    0.0000000000000000       0.37161420270883289       0.74322840541766577     
 PAO|LS| adapt: energies:   -7.7597515848222631       -7.7598734589646181       -7.7583047302923367     
 PAO|LS| adapt: suggested step_size:   0.21259645829264581     
 PAO|LS| adapt: predicted energy  -7.7600282401477445     
 PAO| ======================= Iteration:        18 =============================

     Lanczos converged:  T threshold:   0.100E-02
     Est. extremal eigenvalues:    0.276E+01   0.188E+00
     Est. condition number :    0.147E+02

 Order=           3
     NS sqrt iter    1 1.00000000   0.705E+00       0.001       58.554
     NS sqrt iter    2 1.00000000   0.327E+00       0.001       98.356
     NS sqrt iter    3 1.00000000   0.732E-01       0.001       99.371
     NS sqrt iter    4 1.00000000   0.162E-02       0.001       98.250
     NS sqrt iter    5 1.00000000   0.320E-07       0.001       61.232
     Symmetrizing Results
     Final NS sqrt iter    5 1.00000000   0.425E-09

     Est. extremal eigenvalues     -0.93495     1.64123  converged:  T
     TRS4 it   1 1.00000000   0.860E+00       0.000       16.128   0.100E-07
     TRS4 it   2 1.00000000   0.600E+00       0.001       32.256   0.100E-07
     TRS4 it   3 1.00000000   0.404E+00       0.001       32.256   0.100E-07
     TRS4 it   4 1.00000000   0.199E+00       0.001       32.256   0.100E-07
     TRS4 it   5 1.00000000   0.610E-01       0.001       32.256   0.100E-07
     TRS4 it   6 1.00000000   0.715E-02       0.001       32.256   0.100E-07
     TRS4 it   7 1.00000000   0.131E-03       0.001       32.256   0.100E-07
     TRS4 it   8 1.00000000   0.612E-07       0.001       32.256   0.100E-07
     Final TRS4 iteration    8 1.00000000   0.612E-07
     Chemical potential (mu):       0.01328
 
 PAO| energy:  -7.7600277930836441      penalty:   1.5094727989219405E-005
 PAO|CG| trace_G_new    7.2091181125627469E-004
 PAO|CG| trace_G_prev    2.6025654685319791E-003
 PAO|CG| trace_G_mix    1.4271354881215097E-006
 PAO|CG| trace_D    3.3614512457046017E-003
 PAO|CG| trace_D_Gnew  -1.6533166356774758E-006
 PAO|CG| beta:   0.27645209485315680     
 PAO| norm of gradient:   2.6849800953755221E-002
 PAO| energy improvement:  -2.7620826138097243E-004
 PAO| step     18                   -7.760027793  0.168E-02  0.213E+00     0.055
 PAO|LS| adapt:  T F F
 PAO|LS| adapt: scan_steps:    0.0000000000000000        0.0000000000000000        0.0000000000000000     
 PAO|LS| adapt: energies:   -7.7600277930836441        0.0000000000000000        0.0000000000000000     
 PAO| ======================= Iteration:        19 =============================

     Lanczos converged:  T threshold:   0.100E-02
     Est. extremal eigenvalues:    0.276E+01   0.188E+00
     Est. condition number :    0.147E+02

 Order=           3
     NS sqrt iter    1 1.00000000   0.705E+00       0.001       59.734
     NS sqrt iter    2 1.00000000   0.327E+00       0.001       99.425
     NS sqrt iter    3 1.00000000   0.734E-01       0.001       96.793
     NS sqrt iter    4 1.00000000   0.163E-02       0.001      100.131
     NS sqrt iter    5 1.00000000   0.324E-07       0.001       61.713
     Symmetrizing Results
     Final NS sqrt iter    5 1.00000000   0.430E-09

     Est. extremal eigenvalues     -0.93495     1.64159  converged:  T
     TRS4 it   1 1.00000000   0.860E+00       0.000       16.128   0.100E-07
     TRS4 it   2 1.00000000   0.600E+00       0.001       32.256   0.100E-07
     TRS4 it   3 1.00000000   0.403E+00       0.001       32.256   0.100E-07
     TRS4 it   4 1.00000000   0.199E+00       0.001       32.256   0.100E-07
     TRS4 it   5 1.00000000   0.609E-01       0.001       32.256   0.100E-07
     TRS4 it   6 1.00000000   0.715E-02       0.001       32.256   0.100E-07
     TRS4 it   7 1.00000000   0.132E-03       0.001       32.256   0.100E-07
     TRS4 it   8 1.00000000   0.623E-07       0.001       32.256   0.100E-07
     Final TRS4 iteration    8 1.00000000   0.623E-07
     Chemical potential (mu):       0.01313
 
 PAO| energy:  -7.7601446079743344      penalty:   1.4805343630144789E-005
 PAO|LS| adapt:  T T F
 PAO|LS| adapt: scan_steps:    0.0000000000000000       0.21259645829264581        0.0000000000000000     
 PAO|LS| adapt: energies:   -7.7600277930836441       -7.7601446079743344        0.0000000000000000     
 PAO| ======================= Iteration:        20 =============================

     Lanczos converged:  T threshold:   0.100E-02
     Est. extremal eigenvalues:    0.276E+01   0.188E+00
     Est. condition number :    0.147E+02

 Order=           3
     NS sqrt iter    1 1.00000000   0.705E+00       0.001       58.809
     NS sqrt iter    2 1.00000000   0.328E+00       0.001       97.833
     NS sqrt iter    3 1.00000000   0.736E-01       0.001       99.671
     NS sqrt iter    4 1.00000000   0.163E-02       0.001       99.537
     NS sqrt iter    5 1.00000000   0.328E-07       0.001       61.177
     Symmetrizing Results
     Final NS sqrt iter    5 1.00000000   0.438E-09

     Est. extremal eigenvalues     -0.93494     1.64195  converged:  T
     TRS4 it   1 1.00000000   0.860E+00       0.000       16.128   0.100E-07
     TRS4 it   2 1.00000000   0.600E+00       0.001       32.256   0.100E-07
     TRS4 it   3 1.00000000   0.403E+00       0.001       32.256   0.100E-07
     TRS4 it   4 1.00000000   0.199E+00       0.001       32.256   0.100E-07
     TRS4 it   5 1.00000000   0.608E-01       0.001       32.256   0.100E-07
     TRS4 it   6 1.00000000   0.714E-02       0.001       32.256   0.100E-07
     TRS4 it   7 1.00000000   0.132E-03       0.001       32.256   0.100E-07
     TRS4 it   8 1.00000000   0.634E-07       0.001       32.256   0.100E-07
     Final TRS4 iteration    8 1.00000000   0.634E-07
     Chemical potential (mu):       0.01297
 
 PAO| energy:  -7.7601879432321068      penalty:   1.4528297647356356E-005
 PAO|LS| adapt:  T T F
 PAO|LS| adapt: scan_steps:    0.0000000000000000       0.42519291658529162        0.0000000000000000     
 PAO|LS| adapt: energies:   -7.7600277930836441       -7.7601879432321068        0.0000000000000000     
 PAO| ======================= Iteration:        21 =============================

     Lanczos converged:  T threshold:   0.100E-02
     Est. extremal eigenvalues:    0.276E+01   0.187E+00
     Est. condition number :    0.147E+02

 Order=           3
     NS sqrt iter    1 1.00000000   0.705E+00       0.001       58.615
     NS sqrt iter    2 1.00000000   0.328E+00       0.001       99.338
     NS sqrt iter    3 1.00000000   0.740E-01       0.001       98.832
     NS sqrt iter    4 1.00000000   0.166E-02       0.001       99.658
     NS sqrt iter    5 1.00000000   0.337E-07       0.001       60.874
     Symmetrizing Results
     Final NS sqrt iter    5 1.00000000   0.444E-09

     Est. extremal eigenvalues     -0.93494     1.64268  converged:  T
     TRS4 it   1 1.00000000   0.860E+00       0.000       16.128   0.100E-07
     TRS4 it   2 1.00000000   0.600E+00       0.001       32.256   0.100E-07
     TRS4 it   3 1.00000000   0.403E+00       0.001       32.256   0.100E-07
     TRS4 it   4 1.00000000   0.199E+00       0.001       32.256   0.100E-07
     TRS4 it   5 1.00000000   0.607E-01       0.001       32.256   0.100E-07
     TRS4 it   6 1.00000000   0.714E-02       0.001       32.256   0.100E-07
     TRS4 it   7 1.00000000   0.134E-03       0.001       32.256   0.100E-07
     TRS4 it   8 1.00000000   0.657E-07       0.001       32.256   0.100E-07
     Final TRS4 iteration    8 1.00000000   0.657E-07
     Chemical potential (mu):       0.01265
 
 PAO| energy:  -7.7600518208386058      penalty:   1.4010647210090293E-005
 PAO|LS| Need extra step
 PAO|LS| adapt:  T T T
 PAO|LS| adapt: scan_steps:    0.0000000000000000       0.42519291658529162       0.85038583317058325     
 PAO|LS| adapt: energies:   -7.7600277930836441       -7.7601879432321068       -7.7600518208386058     
 PAO|LS| adapt: suggested step_size:   0.44243452652902804     
 PAO|LS| adapt: predicted energy  -7.7601881868139992     
 PAO| ======================= Iteration:        22 =============================

     Lanczos converged:  T threshold:   0.100E-02
     Est. extremal eigenvalues:    0.276E+01   0.188E+00
     Est. condition number :    0.147E+02

 Order=           3
     NS sqrt iter    1 1.00000000   0.705E+00       0.001       57.777
     NS sqrt iter    2 1.00000000   0.328E+00       0.001       98.991
     NS sqrt iter    3 1.00000000   0.736E-01       0.001       99.054
     NS sqrt iter    4 1.00000000   0.164E-02       0.001       98.414
     NS sqrt iter    5 1.00000000   0.328E-07       0.001       61.639
     Symmetrizing Results
     Final NS sqrt iter    5 1.00000000   0.439E-09

     Est. extremal eigenvalues     -0.93494     1.64197  converged:  T
     TRS4 it   1 1.00000000   0.860E+00       0.000       16.128   0.100E-07
     TRS4 it   2 1.00000000   0.600E+00       0.001       32.256   0.100E-07
     TRS4 it   3 1.00000000   0.403E+00       0.001       32.256   0.100E-07
     TRS4 it   4 1.00000000   0.199E+00       0.001       32.256   0.100E-07
     TRS4 it   5 1.00000000   0.608E-01       0.001       32.256   0.100E-07
     TRS4 it   6 1.00000000   0.714E-02       0.001       32.256   0.100E-07
     TRS4 it   7 1.00000000   0.132E-03       0.001       32.256   0.100E-07
     TRS4 it   8 1.00000000   0.635E-07       0.001       32.256   0.100E-07
     Final TRS4 iteration    8 1.00000000   0.635E-07
     Chemical potential (mu):       0.01296
 
 PAO| energy:  -7.7601882185982394      penalty:   1.4506364733928084E-005
 PAO|CG| trace_G_new    2.1738935225313913E-004
 PAO|CG| trace_G_prev    7.2091181125627469E-004
 PAO|CG| trace_G_mix    2.9986509247421381E-006
 PAO|CG| trace_D    9.7872740562368718E-004
 PAO|CG| trace_D_Gnew  -1.8449729120636970E-006
 PAO|CG| beta:   0.29738824913243644     
 PAO| norm of gradient:   1.4744129416589476E-002
 PAO| energy improvement:  -1.6042551459527488E-004
 PAO| step     22                   -7.760188219  0.922E-03  0.442E+00     0.072
 PAO|LS| adapt:  T F F
 PAO|LS| adapt: scan_steps:    0.0000000000000000        0.0000000000000000        0.0000000000000000     
 PAO|LS| adapt: energies:   -7.7601882185982394        0.0000000000000000        0.0000000000000000     
 PAO| ======================= Iteration:        23 =============================

     Lanczos converged:  T threshold:   0.100E-02
     Est. extremal eigenvalues:    0.276E+01   0.188E+00
     Est. condition number :    0.147E+02

 Order=           3
     NS sqrt iter    1 1.00000000   0.705E+00       0.001       58.688
     NS sqrt iter    2 1.00000000   0.328E+00       0.001       98.083
     NS sqrt iter    3 1.00000000   0.736E-01       0.001      100.264
     NS sqrt iter    4 1.00000000   0.164E-02       0.001      100.092
     NS sqrt iter    5 1.00000000   0.329E-07       0.001       61.838
     Symmetrizing Results
     Final NS sqrt iter    5 1.00000000   0.443E-09

     Est. extremal eigenvalues     -0.93494     1.64215  converged:  T
     TRS4 it   1 1.00000000   0.860E+00       0.000       16.128   0.100E-07
     TRS4 it   2 1.00000000   0.600E+00       0.001       32.256   0.100E-07
     TRS4 it   3 1.00000000   0.404E+00       0.001       32.256   0.100E-07
     TRS4 it   4 1.00000000   0.199E+00       0.001       32.256   0.100E-07
     TRS4 it   5 1.00000000   0.610E-01       0.001       32.256   0.100E-07
     TRS4 it   6 1.00000000   0.718E-02       0.001       32.256   0.100E-07
     TRS4 it   7 1.00000000   0.134E-03       0.001       32.256   0.100E-07
     TRS4 it   8 1.00000000   0.655E-07       0.001       32.256   0.100E-07
     Final TRS4 iteration    8 1.00000000   0.655E-07
     Chemical potential (mu):       0.01269
 
 PAO| energy:  -7.7602362709554722      penalty:   1.3829696319647754E-005
 PAO|LS| adapt:  T T F
 PAO|LS| adapt: scan_steps:    0.0000000000000000       0.44243452652902804        0.0000000000000000     
 PAO|LS| adapt: energies:   -7.7601882185982394       -7.7602362709554722        0.0000000000000000     
 PAO| ======================= Iteration:        24 =============================

     Lanczos converged:  T threshold:   0.100E-02
     Est. extremal eigenvalues:    0.276E+01   0.188E+00
     Est. condition number :    0.147E+02

 Order=           3
     NS sqrt iter    1 1.00000000   0.705E+00       0.001       60.127
     NS sqrt iter    2 1.00000000   0.328E+00       0.001       99.418
     NS sqrt iter    3 1.00000000   0.737E-01       0.001       98.923
     NS sqrt iter    4 1.00000000   0.164E-02       0.001       99.403
     NS sqrt iter    5 1.00000000   0.331E-07       0.001       61.196
     Symmetrizing Results
     Final NS sqrt iter    5 1.00000000   0.448E-09

     Est. extremal eigenvalues     -0.93494     1.64231  converged:  T
     TRS4 it   1 1.00000000   0.860E+00       0.000       16.128   0.100E-07
     TRS4 it   2 1.00000000   0.600E+00       0.001       32.256   0.100E-07
     TRS4 it   3 1.00000000   0.404E+00       0.001       32.256   0.100E-07
     TRS4 it   4 1.00000000   0.199E+00       0.001       32.256   0.100E-07
     TRS4 it   5 1.00000000   0.611E-01       0.001       32.256   0.100E-07
     TRS4 it   6 1.00000000   0.723E-02       0.001       32.256   0.100E-07
     TRS4 it   7 1.00000000   0.136E-03       0.001       32.256   0.100E-07
     TRS4 it   8 1.00000000   0.675E-07       0.001       32.256   0.100E-07
     Final TRS4 iteration    8 1.00000000   0.675E-07
     Chemical potential (mu):       0.01241
 
 PAO| energy:  -7.7601869779514363      penalty:   1.3180626054509287E-005
 PAO|LS| adapt:  T T T
 PAO|LS| adapt: scan_steps:    0.0000000000000000       0.44243452652902804       0.88486905305805608     
 PAO|LS| adapt: energies:   -7.7601882185982394       -7.7602362709554722       -7.7601869779514363     
 PAO|LS| adapt: suggested step_size:   0.43961515756397579     
 PAO|LS| adapt: predicted energy  -7.7602362729319454     
 PAO| ======================= Iteration:        25 =============================

     Lanczos converged:  T threshold:   0.100E-02
     Est. extremal eigenvalues:    0.276E+01   0.188E+00
     Est. condition number :    0.147E+02

 Order=           3
     NS sqrt iter    1 1.00000000   0.705E+00       0.001       58.281
     NS sqrt iter    2 1.00000000   0.328E+00       0.001      100.967
     NS sqrt iter    3 1.00000000   0.736E-01       0.001       99.274
     NS sqrt iter    4 1.00000000   0.164E-02       0.001       99.524
     NS sqrt iter    5 1.00000000   0.329E-07       0.001       60.700
     Symmetrizing Results
     Final NS sqrt iter    5 1.00000000   0.443E-09

     Est. extremal eigenvalues     -0.93494     1.64214  converged:  T
     TRS4 it   1 1.00000000   0.860E+00       0.000       16.128   0.100E-07
     TRS4 it   2 1.00000000   0.600E+00       0.001       32.256   0.100E-07
     TRS4 it   3 1.00000000   0.404E+00       0.001       32.256   0.100E-07
     TRS4 it   4 1.00000000   0.199E+00       0.001       32.256   0.100E-07
     TRS4 it   5 1.00000000   0.610E-01       0.001       32.256   0.100E-07
     TRS4 it   6 1.00000000   0.718E-02       0.001       32.256   0.100E-07
     TRS4 it   7 1.00000000   0.134E-03       0.001       32.256   0.100E-07
     TRS4 it   8 1.00000000   0.655E-07       0.001       32.256   0.100E-07
     Final TRS4 iteration    8 1.00000000   0.655E-07
     Chemical potential (mu):       0.01268
 
 PAO| energy:  -7.7602362719621452      penalty:   1.3833920328824744E-005
 PAO|CG| trace_G_new    7.6213650617085608E-005
 PAO|CG| trace_G_prev    2.1738935225313913E-004
 PAO|CG| trace_G_mix    6.6205770919202807E-007
 PAO|CG| trace_D    3.0504512613392166E-004
 PAO|CG| trace_D_Gnew  -3.5017551400820305E-007
 PAO|CG| beta:   0.34754044816287732     
 PAO| norm of gradient:   8.7300429905634268E-003
 PAO| energy improvement:  -4.8053363905786739E-005
 PAO| step     25                   -7.760236272  0.546E-03  0.440E+00     0.056
 PAO|LS| adapt:  T F F
 PAO|LS| adapt: scan_steps:    0.0000000000000000        0.0000000000000000        0.0000000000000000     
 PAO|LS| adapt: energies:   -7.7602362719621452        0.0000000000000000        0.0000000000000000     
 PAO| ======================= Iteration:        26 =============================

     Lanczos converged:  T threshold:   0.100E-02
     Est. extremal eigenvalues:    0.276E+01   0.188E+00
     Est. condition number :    0.147E+02

 Order=           3
     NS sqrt iter    1 1.00000000   0.705E+00       0.001       59.195
     NS sqrt iter    2 1.00000000   0.328E+00       0.001      101.621
     NS sqrt iter    3 1.00000000   0.735E-01       0.001       98.154
     NS sqrt iter    4 1.00000000   0.163E-02       0.001       98.235
     NS sqrt iter    5 1.00000000   0.327E-07       0.001       61.881
     Symmetrizing Results
     Final NS sqrt iter    5 1.00000000   0.441E-09

     Est. extremal eigenvalues     -0.93495     1.64213  converged:  T
     TRS4 it   1 1.00000000   0.860E+00       0.000       16.128   0.100E-07
     TRS4 it   2 1.00000000   0.600E+00       0.001       32.256   0.100E-07
     TRS4 it   3 1.00000000   0.403E+00       0.001       32.256   0.100E-07
     TRS4 it   4 1.00000000   0.199E+00       0.001       32.256   0.100E-07
     TRS4 it   5 1.00000000   0.609E-01       0.001       32.256   0.100E-07
     TRS4 it   6 1.00000000   0.717E-02       0.001       32.256   0.100E-07
     TRS4 it   7 1.00000000   0.134E-03       0.001       32.256   0.100E-07
     TRS4 it   8 1.00000000   0.649E-07       0.001       32.256   0.100E-07
     Final TRS4 iteration    8 1.00000000   0.649E-07
     Chemical potential (mu):       0.01277
 
 PAO| energy:  -7.7602394409327680      penalty:   1.3120584691639180E-005
 PAO|LS| adapt:  T T F
 PAO|LS| adapt: scan_steps:    0.0000000000000000       0.43961515756397579        0.0000000000000000     
 PAO|LS| adapt: energies:   -7.7602362719621452       -7.7602394409327680        0.0000000000000000     
 PAO| ======================= Iteration:        27 =============================

     Lanczos converged:  T threshold:   0.100E-02
     Est. extremal eigenvalues:    0.276E+01   0.188E+00
     Est. condition number :    0.147E+02

 Order=           3
     NS sqrt iter    1 1.00000000   0.704E+00       0.001       58.591
     NS sqrt iter    2 1.00000000   0.327E+00       0.001       97.503
     NS sqrt iter    3 1.00000000   0.734E-01       0.001      101.725
     NS sqrt iter    4 1.00000000   0.163E-02       0.001       99.275
     NS sqrt iter    5 1.00000000   0.325E-07       0.001       61.608
     Symmetrizing Results
     Final NS sqrt iter    5 1.00000000   0.440E-09

     Est. extremal eigenvalues     -0.93495     1.64212  converged:  T
     TRS4 it   1 1.00000000   0.861E+00       0.000       16.128   0.100E-07
     TRS4 it   2 1.00000000   0.600E+00       0.001       32.256   0.100E-07
     TRS4 it   3 1.00000000   0.403E+00       0.001       32.256   0.100E-07
     TRS4 it   4 1.00000000   0.199E+00       0.001       32.256   0.100E-07
     TRS4 it   5 1.00000000   0.609E-01       0.001       32.256   0.100E-07
     TRS4 it   6 1.00000000   0.716E-02       0.001       32.256   0.100E-07
     TRS4 it   7 1.00000000   0.133E-03       0.001       32.256   0.100E-07
     TRS4 it   8 1.00000000   0.643E-07       0.001       32.256   0.100E-07
     Final TRS4 iteration    8 1.00000000   0.643E-07
     Chemical potential (mu):       0.01285
 
 PAO| energy:  -7.7601817308245824      penalty:   1.2430067398341385E-005
 PAO|LS| adapt:  T T T
 PAO|LS| adapt: scan_steps:    0.0000000000000000       0.43961515756397579       0.87923031512795158     
 PAO|LS| adapt: energies:   -7.7602362719621452       -7.7602394409327680       -7.7601817308245824     
 PAO|LS| adapt: suggested step_size:   0.24269109717496717     
 PAO|LS| adapt: predicted energy  -7.7602455488103530     
 PAO| ======================= Iteration:        28 =============================

     Lanczos converged:  T threshold:   0.100E-02
     Est. extremal eigenvalues:    0.276E+01   0.188E+00
     Est. condition number :    0.147E+02

 Order=           3
     NS sqrt iter    1 1.00000000   0.705E+00       0.001       58.945
     NS sqrt iter    2 1.00000000   0.328E+00       0.001       99.749
     NS sqrt iter    3 1.00000000   0.736E-01       0.001      101.903
     NS sqrt iter    4 1.00000000   0.164E-02       0.001      101.156
     NS sqrt iter    5 1.00000000   0.328E-07       0.001       61.253
     Symmetrizing Results
     Final NS sqrt iter    5 1.00000000   0.442E-09

     Est. extremal eigenvalues     -0.93495     1.64214  converged:  T
     TRS4 it   1 1.00000000   0.860E+00       0.000       16.128   0.100E-07
     TRS4 it   2 1.00000000   0.600E+00       0.001       32.256   0.100E-07
     TRS4 it   3 1.00000000   0.404E+00       0.001       32.256   0.100E-07
     TRS4 it   4 1.00000000   0.199E+00       0.001       32.256   0.100E-07
     TRS4 it   5 1.00000000   0.609E-01       0.001       32.256   0.100E-07
     TRS4 it   6 1.00000000   0.718E-02       0.001       32.256   0.100E-07
     TRS4 it   7 1.00000000   0.134E-03       0.001       32.256   0.100E-07
     TRS4 it   8 1.00000000   0.651E-07       0.001       32.256   0.100E-07
     Final TRS4 iteration    8 1.00000000   0.651E-07
     Chemical potential (mu):       0.01273
 
 PAO| energy:  -7.7602455399684063      penalty:   1.3437282012040529E-005
 PAO|CG| trace_G_new    2.8028487750685601E-005
 PAO|CG| trace_G_prev    7.6213650617085608E-005
 PAO|CG| trace_G_mix    3.6504212563629297E-008
 PAO|CG| trace_D    1.1330173220690143E-004
 PAO|CG| trace_D_Gnew  -2.0618882369220765E-008
 PAO|CG| beta:   0.36728306952201967     
 PAO| norm of gradient:   5.2941937772134481E-003
 PAO| energy improvement:  -9.2680062611094627E-006
 PAO| step     28                   -7.760245540  0.331E-03  0.243E+00     0.056
 PAO|LS| adapt:  T F F
 PAO|LS| adapt: scan_steps:    0.0000000000000000        0.0000000000000000        0.0000000000000000     
 PAO|LS| adapt: energies:   -7.7602455399684063        0.0000000000000000        0.0000000000000000     
 PAO| ======================= Iteration:        29 =============================

     Lanczos converged:  T threshold:   0.100E-02
     Est. extremal eigenvalues:    0.276E+01   0.188E+00
     Est. condition number :    0.147E+02

 Order=           3
     NS sqrt iter    1 1.00000000   0.704E+00       0.001       58.824
     NS sqrt iter    2 1.00000000   0.327E+00       0.001       98.865
     NS sqrt iter    3 1.00000000   0.735E-01       0.001       99.427
     NS sqrt iter    4 1.00000000   0.163E-02       0.001      101.474
     NS sqrt iter    5 1.00000000   0.327E-07       0.001       61.923
     Symmetrizing Results
     Final NS sqrt iter    5 1.00000000   0.441E-09

     Est. extremal eigenvalues     -0.93495     1.64214  converged:  T
     TRS4 it   1 1.00000000   0.860E+00       0.000       16.128   0.100E-07
     TRS4 it   2 1.00000000   0.600E+00       0.001       32.256   0.100E-07
     TRS4 it   3 1.00000000   0.403E+00       0.001       32.256   0.100E-07
     TRS4 it   4 1.00000000   0.199E+00       0.001       32.256   0.100E-07
     TRS4 it   5 1.00000000   0.609E-01       0.001       32.256   0.100E-07
     TRS4 it   6 1.00000000   0.716E-02       0.001       32.256   0.100E-07
     TRS4 it   7 1.00000000   0.133E-03       0.001       32.256   0.100E-07
     TRS4 it   8 1.00000000   0.644E-07       0.001       32.256   0.100E-07
     Final TRS4 iteration    8 1.00000000   0.644E-07
     Chemical potential (mu):       0.01283
 
 PAO| energy:  -7.7602515555836833      penalty:   1.3030507211874439E-005
 PAO|LS| adapt:  T T F
 PAO|LS| adapt: scan_steps:    0.0000000000000000       0.24269109717496717        0.0000000000000000     
 PAO|LS| adapt: energies:   -7.7602455399684063       -7.7602515555836833        0.0000000000000000     
 PAO| ======================= Iteration:        30 =============================

     Lanczos converged:  T threshold:   0.100E-02
     Est. extremal eigenvalues:    0.276E+01   0.188E+00
     Est. condition number :    0.147E+02

 Order=           3
     NS sqrt iter    1 1.00000000   0.704E+00       0.001       59.433
     NS sqrt iter    2 1.00000000   0.327E+00       0.001       97.321
     NS sqrt iter    3 1.00000000   0.734E-01       0.001       99.803
     NS sqrt iter    4 1.00000000   0.163E-02       0.001      100.828
     NS sqrt iter    5 1.00000000   0.326E-07       0.001       62.202
     Symmetrizing Results
     Final NS sqrt iter    5 1.00000000   0.440E-09

     Est. extremal eigenvalues     -0.93495     1.64214  converged:  T
     TRS4 it   1 1.00000000   0.861E+00       0.000       16.128   0.100E-07
     TRS4 it   2 1.00000000   0.600E+00       0.001       32.256   0.100E-07
     TRS4 it   3 1.00000000   0.403E+00       0.001       32.256   0.100E-07
     TRS4 it   4 1.00000000   0.199E+00       0.001       32.256   0.100E-07
     TRS4 it   5 1.00000000   0.608E-01       0.001       32.256   0.100E-07
     TRS4 it   6 1.00000000   0.715E-02       0.001       32.256   0.100E-07
     TRS4 it   7 1.00000000   0.132E-03       0.001       32.256   0.100E-07
     TRS4 it   8 1.00000000   0.637E-07       0.001       32.256   0.100E-07
     Final TRS4 iteration    8 1.00000000   0.637E-07
     Chemical potential (mu):       0.01293
 
 PAO| energy:  -7.7602559922149865      penalty:   1.2630634466755312E-005
 PAO|LS| adapt:  T T F
 PAO|LS| adapt: scan_steps:    0.0000000000000000       0.48538219434993435        0.0000000000000000     
 PAO|LS| adapt: energies:   -7.7602455399684063       -7.7602559922149865        0.0000000000000000     
 PAO| ======================= Iteration:        31 =============================

     Lanczos converged:  T threshold:   0.100E-02
     Est. extremal eigenvalues:    0.276E+01   0.188E+00
     Est. condition number :    0.147E+02

 Order=           3
     NS sqrt iter    1 1.00000000   0.704E+00       0.001       58.755
     NS sqrt iter    2 1.00000000   0.327E+00       0.001       99.307
     NS sqrt iter    3 1.00000000   0.733E-01       0.001       99.013
     NS sqrt iter    4 1.00000000   0.163E-02       0.001       99.974
     NS sqrt iter    5 1.00000000   0.325E-07       0.001       62.438
     Symmetrizing Results
     Final NS sqrt iter    5 1.00000000   0.439E-09

     Est. extremal eigenvalues     -0.93495     1.64214  converged:  T
     TRS4 it   1 1.00000000   0.861E+00       0.000       16.128   0.100E-07
     TRS4 it   2 1.00000000   0.600E+00       0.001       32.256   0.100E-07
     TRS4 it   3 1.00000000   0.403E+00       0.001       32.256   0.100E-07
     TRS4 it   4 1.00000000   0.199E+00       0.001       32.256   0.100E-07
     TRS4 it   5 1.00000000   0.607E-01       0.001       32.256   0.100E-07
     TRS4 it   6 1.00000000   0.711E-02       0.001       32.256   0.100E-07
     TRS4 it   7 1.00000000   0.131E-03       0.001       32.256   0.100E-07
     TRS4 it   8 1.00000000   0.622E-07       0.001       32.256   0.100E-07
     Final TRS4 iteration    8 1.00000000   0.622E-07
     Chemical potential (mu):       0.01314
 
 PAO| energy:  -7.7602601283375545      penalty:   1.1851474586096171E-005
 PAO|LS| Need extra step
 PAO|LS| adapt:  T T F
 PAO|LS| adapt: scan_steps:    0.0000000000000000       0.97076438869986870        0.0000000000000000     
 PAO|LS| adapt: energies:   -7.7602455399684063       -7.7602601283375545        0.0000000000000000     
 PAO| ======================= Iteration:        32 =============================

     Lanczos converged:  T threshold:   0.100E-02
     Est. extremal eigenvalues:    0.276E+01   0.188E+00
     Est. condition number :    0.147E+02

 Order=           3
     NS sqrt iter    1 1.00000000   0.703E+00       0.001       58.453
     NS sqrt iter    2 1.00000000   0.327E+00       0.001       98.793
     NS sqrt iter    3 1.00000000   0.731E-01       0.001       99.163
     NS sqrt iter    4 1.00000000   0.162E-02       0.001       99.674
     NS sqrt iter    5 1.00000000   0.322E-07       0.001       61.719
     Symmetrizing Results
     Final NS sqrt iter    5 1.00000000   0.436E-09

     Est. extremal eigenvalues     -0.93496     1.64214  converged:  T
     TRS4 it   1 1.00000000   0.861E+00       0.000       16.128   0.100E-07
     TRS4 it   2 1.00000000   0.600E+00       0.001       32.256   0.100E-07
     TRS4 it   3 1.00000000   0.403E+00       0.001       32.256   0.100E-07
     TRS4 it   4 1.00000000   0.198E+00       0.001       32.256   0.100E-07
     TRS4 it   5 1.00000000   0.604E-01       0.001       32.256   0.100E-07
     TRS4 it   6 1.00000000   0.705E-02       0.001       32.256   0.100E-07
     TRS4 it   7 1.00000000   0.128E-03       0.001       32.256   0.100E-07
     TRS4 it   8 1.00000000   0.595E-07       0.001       32.256   0.100E-07
     Final TRS4 iteration    8 1.00000000   0.595E-07
     Chemical potential (mu):       0.01354
 
 PAO| energy:  -7.7602494471401702      penalty:   1.0374659615227824E-005
 PAO|LS| Need extra step
 PAO|LS| adapt:  T T T
 PAO|LS| adapt: scan_steps:    0.0000000000000000       0.97076438869986870        1.9415287773997374     
[...]
     Symmetrizing Results
     Final NS sqrt iter    5 1.00000000   0.381E-09

     Est. extremal eigenvalues     -0.93468     1.63877  converged:  T
     TRS4 it   1 1.00000000   0.886E+00       0.000       16.128   0.100E-07
     TRS4 it   2 1.00000000   0.635E+00       0.000       32.256   0.100E-07
     TRS4 it   3 1.00000000   0.455E+00       0.000       32.256   0.100E-07
     TRS4 it   4 1.00000000   0.278E+00       0.000       32.256   0.100E-07
     TRS4 it   5 1.00000000   0.138E+00       0.000       32.256   0.100E-07
     TRS4 it   6 1.00000000   0.430E-01       0.000       32.256   0.100E-07
     TRS4 it   7 1.00000000   0.580E-02       0.000       32.256   0.100E-07
     TRS4 it   8 1.00000000   0.142E-03       0.000       32.256   0.100E-07
     TRS4 it   9 1.00000000   0.913E-07       0.000       32.256   0.100E-07
     TRS4 it  10 1.00000000   0.370E-13       0.000       32.256   0.100E-07
     Final TRS4 iteration   10 1.00000000   0.370E-13
     Chemical potential (mu):      -0.07140
 
 PAO| energy:  -7.7598723109322298      penalty:   1.9354566571051687E-008
 PAO|CG| warming up with steepest descent
 PAO|CG| beta:    0.0000000000000000     
 PAO| norm of gradient:   1.2603074930613622E-004
 PAO| energy improvement:  -5.0448960564608569E-009
 PAO| step    423                   -7.759872311  0.788E-05  0.248E+00     0.049
 PAO| converged after          423  steps :-)
 PAO| Recalculating energy after mixing.

     Lanczos converged:  T threshold:   0.100E-02
     Est. extremal eigenvalues:    0.251E+01   0.190E+00
     Est. condition number :    0.132E+02

 Order=           3
     NS sqrt iter    1 1.00000000   0.634E+00       0.001       64.512
     NS sqrt iter    2 1.00000000   0.275E+00       0.001      110.592
     NS sqrt iter    3 1.00000000   0.489E-01       0.001      110.592
     NS sqrt iter    4 1.00000000   0.785E-03       0.001      110.592
     NS sqrt iter    5 1.00000000   0.641E-08       0.001       38.272
     Symmetrizing Results
     Final NS sqrt iter    5 1.00000000   0.381E-09

     Est. extremal eigenvalues     -0.93468     1.63877  converged:  T
     TRS4 it   1 1.00000000   0.886E+00       0.000       16.128   0.100E-07
     TRS4 it   2 1.00000000   0.635E+00       0.000       32.256   0.100E-07
     TRS4 it   3 1.00000000   0.455E+00       0.000       32.256   0.100E-07
     TRS4 it   4 1.00000000   0.278E+00       0.000       32.256   0.100E-07
     TRS4 it   5 1.00000000   0.138E+00       0.000       32.256   0.100E-07
     TRS4 it   6 1.00000000   0.430E-01       0.000       32.256   0.100E-07
     TRS4 it   7 1.00000000   0.580E-02       0.000       32.256   0.100E-07
     TRS4 it   8 1.00000000   0.142E-03       0.000       32.256   0.100E-07
     TRS4 it   9 1.00000000   0.913E-07       0.000       32.256   0.100E-07
     TRS4 it  10 1.00000000   0.370E-13       0.000       32.256   0.100E-07
     Final TRS4 iteration   10 1.00000000   0.370E-13
     Chemical potential (mu):      -0.07140
 
 PAO| energy:  -7.7598723096709898      penalty:   1.9548642796371080E-008
 PAO| Writing restart file.
     Est. extremal eigenvalues     -0.93468     1.63877  converged:  T
     TRS4 it   1 1.00000000   0.886E+00       0.000       16.128   0.100E-07
     TRS4 it   2 1.00000000   0.635E+00       0.000       32.256   0.100E-07
     TRS4 it   3 1.00000000   0.455E+00       0.000       32.256   0.100E-07
     TRS4 it   4 1.00000000   0.278E+00       0.000       32.256   0.100E-07
     TRS4 it   5 1.00000000   0.138E+00       0.000       32.256   0.100E-07
     TRS4 it   6 1.00000000   0.430E-01       0.000       32.256   0.100E-07
     TRS4 it   7 1.00000000   0.580E-02       0.000       32.256   0.100E-07
     TRS4 it   8 1.00000000   0.142E-03       0.000       32.256   0.100E-07
     TRS4 it   9 1.00000000   0.913E-07       0.000       32.256   0.100E-07
     TRS4 it  10 1.00000000   0.370E-13       0.000       32.256   0.100E-07
     Final TRS4 iteration   10 1.00000000   0.370E-13
     Chemical potential (mu):      -0.07140

 SCF     1       -34.449650558       -34.449650558    1.674021

*********************************************************
 Using MIXING_FRACTION=0.450 to mix KS matrix:  iscf=  2
 KS_nw=0.450*KS + 0.550*KS_old
*********************************************************
     Est. extremal eigenvalues     -0.93469     1.63877  converged:  T
     TRS4 it   1 1.00000000   0.886E+00       0.000       16.128   0.100E-07
     TRS4 it   2 1.00000000   0.635E+00       0.000       32.256   0.100E-07
     TRS4 it   3 1.00000000   0.455E+00       0.000       32.256   0.100E-07
     TRS4 it   4 1.00000000   0.278E+00       0.000       32.256   0.100E-07
     TRS4 it   5 1.00000000   0.138E+00       0.000       32.256   0.100E-07
     TRS4 it   6 1.00000000   0.430E-01       0.000       32.256   0.100E-07
     TRS4 it   7 1.00000000   0.580E-02       0.000       32.256   0.100E-07
     TRS4 it   8 1.00000000   0.143E-03       0.000       32.256   0.100E-07
     TRS4 it   9 1.00000000   0.913E-07       0.000       32.256   0.100E-07
     TRS4 it  10 1.00000000   0.370E-13       0.000       32.256   0.100E-07
     Final TRS4 iteration   10 1.00000000   0.370E-13
     Chemical potential (mu):      -0.07140

 SCF     2       -34.449650558        -0.000000000    1.006480


 SCF run converged in     2 steps.

 PAO| Storing density matrix for ASPC guess in slot:           1

 ENERGY| Total FORCE_EVAL ( QS ) energy [a.u.]:              -34.449650557729242

 -------------------------------------------------------------------------------
 -                                                                             -
 -                                DBCSR STATISTICS                             -
 -                                                                             -
 -------------------------------------------------------------------------------
 COUNTER                                    TOTAL       BLAS       SMM       ACC
 flops     5 x     5 x     4                20000       0.0%    100.0%      0.0%
 flops    13 x     5 x     4                20800       0.0%    100.0%      0.0%
 flops     5 x    13 x     4                20800       0.0%    100.0%      0.0%
 flops    13 x    13 x     4                40560       0.0%    100.0%      0.0%
 flops     4 x     4 x     5              3321600       0.0%    100.0%      0.0%
 flops     5 x     4 x     5              4064000       0.0%    100.0%      0.0%
 flops     4 x     4 x    13              4318080       0.0%    100.0%      0.0%
 flops    13 x     4 x     5              5283200       0.0%    100.0%      0.0%
 flops     5 x     4 x    13              5283200       0.0%    100.0%      0.0%
 flops     5 x     4 x     4              6632960       0.0%    100.0%      0.0%
 flops    13 x     4 x    13              6868160       0.0%    100.0%      0.0%
 flops    13 x     4 x     4              8861632       0.0%    100.0%      0.0%
 flops     4 x     4 x     4            426760576       0.0%    100.0%      0.0%
 flops inhomo. stacks                           0       0.0%      0.0%      0.0%
 flops total                       471.495568E+06       0.0%    100.0%      0.0%
 flops max/rank                    471.495568E+06       0.0%    100.0%      0.0%
 matmuls inhomo. stacks                         0       0.0%      0.0%      0.0%
 matmuls total                            3473895       0.0%    100.0%      0.0%
 number of processed stacks                 27720       0.0%    100.0%      0.0%
 average stack size                                     0.0     125.3       0.0
 marketing flops                   766.666752E+06
 -------------------------------------------------------------------------------
 # multiplications                          23134
 max memory usage/rank             506.023936E+06
 # max total images/rank                        1
 # max 3D layers                                1
 # MPI messages exchanged                       0
 -------------------------------------------------------------------------------

 -------------------------------------------------------------------------------
 -                                                                             -
 -                                DBM STATISTICS                               -
 -                                                                             -
 -------------------------------------------------------------------------------
    M  x    N  x    K                                          COUNT     PERCENT
 -------------------------------------------------------------------------------

 -------------------------------------------------------------------------------
 -                                                                             -
 -                                GRID STATISTICS                              -
 -                                                                             -
 -------------------------------------------------------------------------------
 LP    KERNEL             BACKEND                              COUNT     PERCENT
 2     collocate ortho    REF                                  38090      30.69%
 2     integrate ortho    REF                                  38090      30.69%
 3     collocate ortho    REF                                  19740      15.90%
 3     integrate ortho    REF                                  19740      15.90%
 4     collocate ortho    REF                                   4230       3.41%
 4     integrate ortho    REF                                   4230       3.41%
 0     collocate general  REF                                      6       0.00%
 -------------------------------------------------------------------------------

 MEMORY| Estimated peak process memory [MiB]                                 483

 -------------------------------------------------------------------------------
 -                                                                             -
 -                           R E F E R E N C E S                               -
 -                                                                             -
 -------------------------------------------------------------------------------
 
 CP2K version 2023.1 (Development Version), the CP2K developers group (2023).
 CP2K is freely available from https://www.cp2k.org/ .

 Kuehne,Thomas D.; Iannuzzi,Marcella; Del Ben,Mauro;
 Rybkin,Vladimir V.; Seewald,Patrick; Stein,Frederick; Laino,Teodoro;
 Khaliullin,Rustam Z.; Schuett,Ole; Schiffmann,Florian; Golze,Dorothea;
 Wilhelm,Jan; Chulkov,Sergey; Bani-Hashemian,Mohammad Hossein;
 Weber,Valery; Borstnik,Urban; Taillefumier,Mathieu;
 Jakobovits,Alice Shoshana; Lazzaro,Alfio; Pabst,Hans; Mueller,Tiziano;
 Schade,Robert; Guidon,Manuel; Andermatt,Samuel; Holmberg,Nico;
 Schenter,Gregory K.; Hehn,Anna; Bussy,Augustin; Belleflamme,Fabian;
 Tabacchi,Gloria; Gloess,Andreas; Lass,Michael; Bethune,Iain;
 Mundy,Christopher J.; Plessl,Christian; Watkins,Matt;
 VandeVondele,Joost; Krack,Matthias; Hutter,Juerg. 
 The Journal of Chemical Physics, 152 (19), (2020). 
 CP2K: An electronic structure and molecular dynamics software package -
 Quickstep: Efficient and accurate electronic structure calculations.
 https://doi.org/10.1063/5.0007045

 Schuett, O; VandeVondele, J. 
 Journal of Chemical Theory and Computation, 14, (2018). 
 Machine Learning Adaptive Basis Sets for Efficient Large Scale
 Density Functional Theory Simulation.
 https://doi.org/10.1021/acs.jctc.8b00378

 Schuett, Ole; Messmer, Peter; Hutter, Juerg; VandeVondele, Joost. 
 Electronic Structure Calculations on Graphics Processing Units, John
 Wiley & Sons, Ltd, 173-190 (2016). 
 GPU-Accelerated Sparse Matrix-Matrix Multiplication for
 Linear Scaling Density Functional Theory.
 https://doi.org/10.1002/9781118670712.ch8

 Heinecke, A; Henry, G; Hutchinson, M; Pabst, H. 
 Proceedings of Intl. Supercomputing Conference, 981-991 (2016). 
 LIBXSMM: Accelerating Small Matrix Multiplications
 by Runtime Code Generation.
 https://doi.org/10.1109/SC.2016.83

 Borstnik, U; VandeVondele, J; Weber, V; Hutter, J. 
 PARALLEL COMPUTING, 40 (5-6), 47-58 (2014). 
 Sparse matrix multiplication: The distributed block-compressed sparse
 row library.
 https://doi.org/10.1016/j.parco.2014.03.012

 Hutter, J; Iannuzzi, M; Schiffmann, F; VandeVondele, J. 
 WIREs Comput Mol Sci., 4 (1), 15-25 (2014). 
 CP2K: atomistic simulations of condensed matter systems.
 https://doi.org/10.1002/wcms.1159

 VandeVondele, J; Borstnik, U; Hutter, J. 
 JOURNAL OF CHEMICAL THEORY AND COMPUTATION, 8 (10), 3565-3573 (2012). 
 Linear Scaling Self-Consistent Field Calculations with Millions of Atoms
 in the Condensed Phase.
 https://doi.org/10.1021/ct200897x

 VandeVondele, J; Hutter, J. 
 JOURNAL OF CHEMICAL PHYSICS, 127 (11), 114105 (2007). 
 Gaussian basis sets for accurate calculations on molecular systems in
 gas and condensed phases.
 https://doi.org/10.1063/1.2770708

 Krack, M. 
 THEORETICAL CHEMISTRY ACCOUNTS, 114 (1-3), 145-152 (2005). 
 Pseudopotentials for H to Kr optimized for gradient-corrected
 exchange-correlation functionals.
 https://doi.org/10.1007/s00214-005-0655-y

 VandeVondele, J; Krack, M; Mohamed, F; Parrinello, M; Chassaing, T;
 Hutter, J. COMPUTER PHYSICS COMMUNICATIONS, 167 (2), 103-128 (2005). 
 QUICKSTEP: Fast and accurate density functional calculations using a
 mixed Gaussian and plane waves approach.
 https://doi.org/10.1016/j.cpc.2004.12.014

 Frigo, M; Johnson, SG. 
 PROCEEDINGS OF THE IEEE, 93 (2), 216-231 (2005). 
 The design and implementation of FFTW3.
 https://doi.org/10.1109/JPROC.2004.840301

 Niklasson, AMN; Tymczak, CJ; Challacombe, M. 
 JOURNAL OF CHEMICAL PHYSICS, 118 (19), 8611-8620 (2003). 
 Trace resetting density matrix purification in O(N)
 self-consistent-field theory.
 https://doi.org/10.1063/1.1559913

 Hartwigsen, C; Goedecker, S; Hutter, J. 
 PHYSICAL REVIEW B, 58 (7), 3641-3662 (1998). 
 Relativistic separable dual-space Gaussian pseudopotentials from H to Rn.
 https://doi.org/10.1103/PhysRevB.58.3641

 Lippert, G; Hutter, J; Parrinello, M. 
 MOLECULAR PHYSICS, 92 (3), 477-487 (1997). 
 A hybrid Gaussian and plane wave density functional scheme.
 https://doi.org/10.1080/002689797170220

 Perdew, JP; Burke, K; Ernzerhof, M. 
 PHYSICAL REVIEW LETTERS, 77 (18), 3865-3868 (1996). 
 Generalized gradient approximation made simple.
 https://doi.org/10.1103/PhysRevLett.77.3865

 Goedecker, S; Teter, M; Hutter, J. 
 PHYSICAL REVIEW B, 54 (3), 1703-1710 (1996). 
 Separable dual-space Gaussian pseudopotentials.
 https://doi.org/10.1103/PhysRevB.54.1703


 -------------------------------------------------------------------------------
 -                                                                             -
 -                                T I M I N G                                  -
 -                                                                             -
 -------------------------------------------------------------------------------
 SUBROUTINE                       CALLS  ASD         SELF TIME        TOTAL TIME
                                MAXIMUM       AVERAGE  MAXIMUM  AVERAGE  MAXIMUM
 CP2K                                 1  1.0    0.009    0.009   40.103   40.103
 qs_energies                          1  2.0    0.000    0.000   39.464   39.464
 ls_scf                               1  3.0    0.000    0.000   39.212   39.212
 ls_scf_main                          4  4.0    0.001    0.001   26.980   26.980
 ls_scf_dm_to_ks                      9  5.0    0.000    0.000   26.901   26.901
 qs_ks_update_qs_env                 10  6.0    0.000    0.000   23.845   23.845
 rebuild_ks_matrix                   10  7.0    0.000    0.000   23.844   23.844
 qs_ks_build_kohn_sham_matrix        10  8.0    0.003    0.003   23.844   23.844
 qs_vxc_create                       10  9.0    0.000    0.000   15.285   15.285
 xc_vxc_pw_create                    10 10.0    0.280    0.280   15.285   15.285
 pw_transfer                        191 11.1    0.035    0.035   14.136   14.136
 fft_wrap_pw1pw2                    171 12.3    0.004    0.004   13.661   13.661
 fft_wrap_pw1pw2_200                111 13.7    1.359    1.359   13.219   13.219
 xc_pw_derive                        60 12.0    0.002    0.002    9.788    9.788
 xc_rho_set_and_dset_create          10 11.0    0.340    0.340    8.486    8.486
 pao_update                           4  4.0    0.008    0.008    8.275    8.275
 pao_calc_energy                    426  5.0    0.003    0.003    7.480    7.480
 qs_rho_update_rho_low               10  6.0    0.000    0.000    6.965    6.965
 calculate_rho_elec                  10  7.0    0.059    0.059    6.965    6.965
 xc_pw_divergence                    10 11.0    0.001    0.001    6.312    6.312
 dbcsr_multiply_generic           23134  8.4    0.371    0.371    5.945    5.945
 fft3d_s                            172 14.2    5.893    5.893    5.919    5.919
 sum_up_and_integrate                10  9.0    0.156    0.156    5.573    5.573
 integrate_v_rspace                  10 10.0    0.001    0.001    5.417    5.417
 grid_integrate_task_list            10 11.0    4.315    4.315    4.315    4.315
 pao_guess_initial_P                  1  4.0    0.000    0.000    3.913    3.913
 pao_read_preopt_dm                   1  5.0    0.000    0.000    3.913    3.913
 pao_dm_trs4                        426  6.0    0.002    0.002    3.878    3.878
 grid_collocate_task_list            10  8.0    3.788    3.788    3.788    3.788
 density_matrix_trs4                435  7.0    0.118    0.118    3.726    3.726
 ls_scf_init_matrix_S               430  7.0    0.003    0.003    3.579    3.579
 pao_rebuild_S                      426  6.0    0.001    0.001    3.550    3.550
 pw_scatter_s                        90 14.7    3.517    3.517    3.517    3.517
 matrix_sqrt_Newton_Schulz          430  8.0    0.082    0.082    3.234    3.234
 density_rs2pw                       10  8.0    0.001    0.001    3.118    3.118
 pw_gather_s                         81 13.8    2.817    2.817    2.817    2.817
 xc_functional_eval                  10 12.0    0.000    0.000    2.817    2.817
 pbe_lda_eval                        10 13.0    2.816    2.816    2.816    2.816
 make_m2s                         46268  9.4    0.143    0.143    2.235    2.235
 multiply_cannon                  23134  9.4    0.921    0.921    2.222    2.222
 make_images                      46268 10.4    0.552    0.552    1.979    1.979
 pw_derive                           60 13.0    1.845    1.845    1.845    1.845
 pw_copy                            120 11.8    1.345    1.345    1.345    1.345
 arnoldi_extremal                   865  8.5    0.003    0.003    1.173    1.173
 arnoldi_normal_ev                  865  9.5    0.009    0.009    1.170    1.170
 pw_poisson_solve                    10  9.0    0.219    0.219    1.163    1.163
 potential_pw2rs                     10 11.0    0.003    0.003    1.102    1.102
 pw_axpy                             90 10.3    0.940    0.940    0.940    0.940
 build_subspace                     865 10.5    0.048    0.048    0.918    0.918
 dbcsr_matrix_vector_mult         20724 11.5    0.098    0.098    0.851    0.851
 -------------------------------------------------------------------------------

 The number of warnings for this run is : 0
 
 -------------------------------------------------------------------------------
  **** **** ******  **  PROGRAM ENDED AT                 2023-02-01 10:44:35.314
 ***** ** ***  *** **   PROGRAM RAN ON                                    moritz
 **    ****   ******    PROGRAM RAN BY                                       ole
 ***** **    ** ** **   PROGRAM PROCESS ID                                148524
  **** **  *******  **  PROGRAM STOPPED IN /home/ole/git/pao_ml_equivar/2H2O_rot
                                           ations/rand_19
