6
Properties=species:S:1:pos:R:3 i=0 time=0.0 E=-34.4504806384 pbc="F F F"
O        6.50932122      -0.36213866       0.57671844
H        6.26667021       0.55843127       0.72149582
H        5.69987194      -0.86527328       0.71004670
O        7.42528546      -0.70713575      -2.25896217
H        8.31851130      -1.06126632      -2.28835831
H        7.21057619      -0.62737544      -1.31664204
