 DBCSR| CPU Multiplication driver                                           XSMM (U)
 DBCSR| Multrec recursion limit                                              512 (U)
 DBCSR| Multiplication stack size                                           1000 (D)
 DBCSR| Maximum elements for images                                    UNLIMITED (U)
 DBCSR| Multiplicative factor virtual images                                   1 (U)
 DBCSR| Use multiplication densification                                       T (D)
 DBCSR| Multiplication size stacks                                             3 (U)
 DBCSR| Use memory pool for CPU allocation                                     F (U)
 DBCSR| Number of 3D layers                                               SINGLE (U)
 DBCSR| Use MPI memory allocation                                              F (U)
 DBCSR| Use RMA algorithm                                                      F (U)
 DBCSR| Use Communication thread                                               T (U)
 DBCSR| Communication thread load                                             87 (D)
 DBCSR| MPI: My process id                                                     0
 DBCSR| MPI: Number of processes                                              32
 DBCSR| OMP: Current number of threads                                         1
 DBCSR| OMP: Max number of threads                                             1
 DBCSR| Split modifier for TAS multiplication algorithm                  1.0E+00 (U)


  **** **** ******  **  PROGRAM STARTED AT               2024-09-23 17:51:37.110
 ***** ** ***  *** **   PROGRAM STARTED ON                                moritz
 **    ****   ******    PROGRAM STARTED BY                                   ole
 ***** **    ** ** **   PROGRAM PROCESS ID                                160797
  **** **  *******  **  PROGRAM STARTED IN /home/ole/git/pao_ml_equivar/64H2O_MD
                                           /Frame6200

 CP2K| version string:                 CP2K version 2024.3 (Development Version)
 CP2K| source code revision number:                                  git:3f890bb
 CP2K| cp2kflags: omp libint fftw3 libxc libgrpp pexsi elpa parallel scalapack c
 CP2K|            osma quip deepmd xsmm plumed2 spglib libdftd4 sirius libvori l
 CP2K|            libbqb libvdwxc hdf5
 CP2K| is freely available from                            https://www.cp2k.org/
 CP2K| Program compiled at                          Mo 23 Sep 2024 17:17:04 CEST
 CP2K| Program compiled on                                                moritz
 CP2K| Program compiled for                                                local
 CP2K| Data directory path                               /home/ole/git/cp2k/data
 CP2K| Input file name                                             64H2O_ref.inp

 GLOBAL| Force Environment number                                              1
 GLOBAL| Basis set file name                                        BASIS_MOLOPT
 GLOBAL| Potential file name                                      GTH_POTENTIALS
 GLOBAL| MM Potential file name                                     MM_POTENTIAL
 GLOBAL| Coordinate file name                                         coords.xyz
 GLOBAL| Method name                                                        CP2K
 GLOBAL| Project name                                                  64H2O_ref
 GLOBAL| Run type                                                         ENERGY
 GLOBAL| FFT library                                                       FFTW3
 GLOBAL| Diagonalization library                                            ELPA
 GLOBAL| DGEMM library                                                      BLAS
 GLOBAL| Minimum number of eigenvectors for ELPA usage                        16
 GLOBAL| Orthonormality check for eigenvectors                          DISABLED
 GLOBAL| Matrix multiplication library                                     COSMA
 GLOBAL| All-to-all communication in single precision                          F
 GLOBAL| FFTs using library dependent lengths                                  F
 GLOBAL| Grid backend                                                       AUTO
 GLOBAL| Global print level                                                  LOW
 GLOBAL| MPI I/O enabled                                                       T
 GLOBAL| Total number of message passing processes                            32
 GLOBAL| Number of threads for this process                                    1
 GLOBAL| This output is from process                                           0
 GLOBAL| Stack size for threads created by OpenMP (OMP_STACKSIZE)        default
 GLOBAL| CPU model name           AMD Ryzen Threadripper 3970X 32-Core Processor
 GLOBAL| CPUID                                                              1002

 MEMORY| system memory details [Kb]
 MEMORY|                        rank 0           min           max       average
 MEMORY| MemTotal            131752136     131752136     131752136     131752136
 MEMORY| MemFree             117742076     117742076     117742076     117742076
 MEMORY| Buffers                260996        260996        260996        260996
 MEMORY| Cached                7771464       7771464       7771464       7771464
 MEMORY| Slab                   731064        731064        731064        731064
 MEMORY| SReclaimable           290020        290020        290020        290020
 MEMORY| MemLikelyFree       126064556     126064556     126064556     126064556


 GENERATE|  Preliminary Number of Bonds generated:                             0
 GENERATE|  Achieved consistency in connectivity generation.

 *******************************************************************************
 *******************************************************************************
 **                                                                           **
 **     #####                         ##              ##                      **
 **    ##   ##            ##          ##              ##                      **
 **   ##     ##                       ##            ######                    **
 **   ##     ##  ##   ##  ##   #####  ##  ##   ####   ##    #####    #####    **
 **   ##     ##  ##   ##  ##  ##      ## ##   ##      ##   ##   ##  ##   ##   **
 **   ##  ## ##  ##   ##  ##  ##      ####     ###    ##   ######   ######    **
 **    ##  ###   ##   ##  ##  ##      ## ##      ##   ##   ##       ##        **
 **     #######   #####   ##   #####  ##  ##  ####    ##    #####   ##        **
 **           ##                                                    ##        **
 **                                                                           **
 **                                                ... make the atoms dance   **
 **                                                                           **
 **            Copyright (C) by CP2K developers group (2000-2024)             **
 **                      J. Chem. Phys. 152, 194103 (2020)                    **
 **                                                                           **
 *******************************************************************************


 TOTAL NUMBERS AND MAXIMUM NUMBERS

  Total number of            - Atomic kinds:                                   2
                             - Atoms:                                        192
                             - Shell sets:                                   192
                             - Shells:                                       704
                             - Primitive Cartesian functions:               1344
                             - Cartesian basis functions:                   1536
                             - Spherical basis functions:                   1472

  Maximum angular momentum of- Orbital basis functions:                        2
                             - Local part of the GTH pseudopotential:          2
                             - Non-local part of the GTH pseudopotential:      0

 ------------------------------ Linear scaling SCF -----------------------------
 eps_scf:                                                              0.100E-07
 eps_filter:                                                           0.100E-11
 mixing_fraction:                                                      0.450E+00
 max_scf:                                                                     25
 fixed chemical potential (mu)                                                 F
 has unit metric:                                                              F
 Computing inv(S):                                                             T
 Computing sqrt(S):                                                            T
 Computing S preconditioner                                                    F
 S sqrt method:                                                     NEWTONSCHULZ
 S sqrt order:                                                                 3
 Extrapolation order:                                                          1
 S preconditioner type                                                      NONE
 Polarized Atomic Orbitals (PAO)                                               F
 Purification method                                   Trace resetting 4th order
 Cluster type                                                             ATOMIC
 Computing Chebyshev                                                       FALSE
 Using PAO                                                                     F
 -------------------------------------------------------------------------------


     Lanczos converged:  F threshold:   0.100E-02
     Est. extremal eigenvalues:    0.869E+01   0.603E-02
     Est. condition number :    0.144E+04

 Order=           3
     NS sqrt iter    1 1.00000000   0.225E+01       0.065     6213.815
     NS sqrt iter    2 1.00000000   0.117E+01       0.097     8198.758
     NS sqrt iter    3 1.00000000   0.581E+00       0.098     8111.206
     NS sqrt iter    4 1.00000000   0.334E+00       0.098     8137.319
     NS sqrt iter    5 1.00000000   0.226E+00       0.099     8050.688
     NS sqrt iter    6 1.00000000   0.106E+00       0.098     8104.424
     NS sqrt iter    7 1.00000000   0.131E-01       0.099     8057.633
     NS sqrt iter    8 1.00000000   0.626E-04       0.099     8089.326
     NS sqrt iter    9 1.00000000   0.285E-10       0.061     5771.668
     Symmetrizing Results
     Final NS sqrt iter    9 1.00000000   0.772E-11



 Guess for atomic kind: O

 Electronic structure
    Total number of core electrons                                          2.00
    Total number of valence electrons                                       6.00
    Total number of electrons                                               8.00
    Multiplicity                                                   not specified
    S   [  2.00] 2.00
    P      4.00


 *******************************************************************************
                  Iteration          Convergence                     Energy [au]
 *******************************************************************************
                          1        0.708315                     -15.576645311500
                          2        0.608879                     -15.587933561584
                          3        0.102828E-01                 -15.656849565404
                          4        0.113889E-02                 -15.656866888140
                          5        0.434197E-03                 -15.656867072159
                          6        0.263771E-03                 -15.656867091904
                          7        0.478536E-06                 -15.656867103452

 Energy components [Hartree]           Total Energy ::          -15.656867103452
                                        Band Energy ::           -3.000198112285
                                     Kinetic Energy ::           11.759971203220
                                   Potential Energy ::          -27.416838306672
                                      Virial (-V/T) ::            2.331369510426
                                        Core Energy ::          -26.140716385623
                                          XC Energy ::           -3.154051012914
                                     Coulomb Energy ::           13.637900295084
                       Total Pseudopotential Energy ::          -37.935781716540
                       Local Pseudopotential Energy ::          -39.218907440693
                    Nonlocal Pseudopotential Energy ::            1.283125724153
                                        Confinement ::            0.350941276976

 Orbital energies  State     L     Occupation   Energy[a.u.]          Energy[eV]

                       1     0          2.000      -0.864471          -23.523463

                       1     1          4.000      -0.317814           -8.648154


 Total Electron Density at R=0:                                         0.000068

 Guess for atomic kind: H

 Electronic structure
    Total number of core electrons                                          0.00
    Total number of valence electrons                                       1.00
    Total number of electrons                                               1.00
    Multiplicity                                                   not specified
    S      1.00


 *******************************************************************************
                  Iteration          Convergence                     Energy [au]
 *******************************************************************************
                          1        0.437545E-02                  -0.424159432110
                          2        0.531356E-03                  -0.424178438213
                          3        0.259176E-06                  -0.424178722480

 Energy components [Hartree]           Total Energy ::           -0.424178722480
                                        Band Energy ::           -0.199015229016
                                     Kinetic Energy ::            0.464007633961
                                   Potential Energy ::           -0.888186356441
                                      Virial (-V/T) ::            1.914163240935
                                        Core Energy ::           -0.479160803564
                                          XC Energy ::           -0.244352904054
                                     Coulomb Energy ::            0.299334985138
                       Total Pseudopotential Energy ::           -0.962295316385
                       Local Pseudopotential Energy ::           -0.962295316385
                    Nonlocal Pseudopotential Energy ::            0.000000000000
                                        Confinement ::            0.191268788606

 Orbital energies  State     L     Occupation   Energy[a.u.]          Energy[eV]

                       1     0          1.000      -0.199015           -5.415480


 Total Electron Density at R=0:                                         0.242907
 Re-scaling the density matrix to get the right number of electrons
                  # Electrons              Trace(P)               Scaling factor
                          512               512.001                        1.000
 Energy with the initial guess:     -1095.676548418

     Est. extremal eigenvalues     -0.94703     5.24760  converged:  T
     TRS4 it   1 1.00000000   0.566E+02       0.018     5552.451   0.100E-11
     TRS4 it   2 1.00000000   0.541E+02       0.018     5547.600   0.100E-11
     TRS4 it   3 1.00000000   0.339E+02       0.036     5560.590   0.100E-11
     TRS4 it   4 1.00000000   0.178E+02       0.035     5713.874   0.100E-11
     TRS4 it   5 1.00000000   0.107E+02       0.036     5634.599   0.100E-11
     TRS4 it   6 1.00000000   0.489E+01       0.036     5588.923   0.100E-11
     TRS4 it   7 1.00000000   0.146E+01       0.036     5580.192   0.100E-11
     TRS4 it   8 1.00000000   0.220E+00       0.035     5663.053   0.100E-11
     TRS4 it   9 1.00000000   0.948E-02       0.036     5590.750   0.100E-11
     TRS4 it  10 1.00000000   0.267E-04       0.035     5714.735   0.100E-11
     TRS4 it  11 1.00000000   0.694E-10       0.035     5667.446   0.100E-11
     Final TRS4 iteration   11 1.00000000   0.694E-10
     Chemical potential (mu):      -0.10674

 SCF     1     -1097.930710879     -1097.930710879    2.045735

*********************************************************
 Using MIXING_FRACTION=0.450 to mix KS matrix:  iscf=  2
 KS_nw=0.450*KS + 0.550*KS_old
*********************************************************
     Est. extremal eigenvalues     -0.84645     5.34311  converged:  T
     TRS4 it   1 1.00000000   0.560E+02       0.018     5444.966   0.100E-11
     TRS4 it   2 1.00000000   0.544E+02       0.018     5506.129   0.100E-11
     TRS4 it   3 1.00000000   0.352E+02       0.037     5486.644   0.100E-11
     TRS4 it   4 1.00000000   0.186E+02       0.036     5586.662   0.100E-11
     TRS4 it   5 1.00000000   0.121E+02       0.036     5596.684   0.100E-11
     TRS4 it   6 1.00000000   0.638E+01       0.036     5638.616   0.100E-11
     TRS4 it   7 1.00000000   0.257E+01       0.036     5609.027   0.100E-11
     TRS4 it   8 1.00000000   0.714E+00       0.036     5619.326   0.100E-11
     TRS4 it   9 1.00000000   0.108E+00       0.035     5671.252   0.100E-11
     TRS4 it  10 1.00000000   0.608E-02       0.035     5697.050   0.100E-11
     TRS4 it  11 1.00000000   0.136E-04       0.035     5661.168   0.100E-11
     TRS4 it  12 1.00000000   0.629E-10       0.036     5545.607   0.100E-11
     Final TRS4 iteration   12 1.00000000   0.629E-10
     Chemical potential (mu):      -0.01712

 SCF     2     -1102.973163315        -5.042452436    2.064443

*********************************************************
 Using MIXING_FRACTION=0.450 to mix KS matrix:  iscf=  3
 KS_nw=0.450*KS + 0.550*KS_old
*********************************************************
     Est. extremal eigenvalues     -0.85091     5.33412  converged:  T
     TRS4 it   1 1.00000000   0.560E+02       0.019     5373.290   0.100E-11
     TRS4 it   2 1.00000000   0.543E+02       0.018     5611.006   0.100E-11
     TRS4 it   3 1.00000000   0.350E+02       0.036     5498.360   0.100E-11
     TRS4 it   4 1.00000000   0.184E+02       0.036     5560.400   0.100E-11
     TRS4 it   5 1.00000000   0.118E+02       0.036     5601.171   0.100E-11
     TRS4 it   6 1.00000000   0.610E+01       0.036     5542.240   0.100E-11
     TRS4 it   7 1.00000000   0.236E+01       0.036     5581.974   0.100E-11
     TRS4 it   8 1.00000000   0.609E+00       0.036     5616.172   0.100E-11
     TRS4 it   9 1.00000000   0.800E-01       0.036     5627.040   0.100E-11
     TRS4 it  10 1.00000000   0.317E-02       0.036     5638.164   0.100E-11
     TRS4 it  11 1.00000000   0.335E-05       0.036     5547.529   0.100E-11
     TRS4 it  12 1.00000000   0.354E-11       0.036     5602.568   0.100E-11
     Final TRS4 iteration   12 1.00000000   0.354E-11
     Chemical potential (mu):      -0.02631

 SCF     3     -1103.135455371        -0.162292056    2.073028

*********************************************************
 Using MIXING_FRACTION=0.450 to mix KS matrix:  iscf=  4
 KS_nw=0.450*KS + 0.550*KS_old
*********************************************************
     Est. extremal eigenvalues     -0.84747     5.34056  converged:  T
     TRS4 it   1 1.00000000   0.560E+02       0.018     5623.228   0.100E-11
     TRS4 it   2 1.00000000   0.543E+02       0.018     5497.734   0.100E-11
     TRS4 it   3 1.00000000   0.351E+02       0.036     5535.096   0.100E-11
     TRS4 it   4 1.00000000   0.185E+02       0.036     5620.922   0.100E-11
     TRS4 it   5 1.00000000   0.119E+02       0.036     5643.794   0.100E-11
     TRS4 it   6 1.00000000   0.620E+01       0.036     5581.105   0.100E-11
     TRS4 it   7 1.00000000   0.243E+01       0.036     5512.854   0.100E-11
     TRS4 it   8 1.00000000   0.649E+00       0.036     5606.720   0.100E-11
     TRS4 it   9 1.00000000   0.918E-01       0.035     5653.247   0.100E-11
     TRS4 it  10 1.00000000   0.440E-02       0.036     5529.032   0.100E-11
     TRS4 it  11 1.00000000   0.828E-05       0.036     5542.302   0.100E-11
     TRS4 it  12 1.00000000   0.284E-10       0.035     5719.052   0.100E-11
     Final TRS4 iteration   12 1.00000000   0.284E-10
     Chemical potential (mu):      -0.01955

 SCF     4     -1103.143631132        -0.008175762    2.075112

*********************************************************
 Using MIXING_FRACTION=0.450 to mix KS matrix:  iscf=  5
 KS_nw=0.450*KS + 0.550*KS_old
*********************************************************
     Est. extremal eigenvalues     -0.84561     5.34132  converged:  T
     TRS4 it   1 1.00000000   0.560E+02       0.019     5333.402   0.100E-11
     TRS4 it   2 1.00000000   0.543E+02       0.019     5351.200   0.100E-11
     TRS4 it   3 1.00000000   0.351E+02       0.035     5666.883   0.100E-11
     TRS4 it   4 1.00000000   0.185E+02       0.036     5630.875   0.100E-11
     TRS4 it   5 1.00000000   0.119E+02       0.036     5594.652   0.100E-11
     TRS4 it   6 1.00000000   0.618E+01       0.036     5576.792   0.100E-11
     TRS4 it   7 1.00000000   0.242E+01       0.036     5627.271   0.100E-11
     TRS4 it   8 1.00000000   0.646E+00       0.036     5548.797   0.100E-11
     TRS4 it   9 1.00000000   0.911E-01       0.036     5640.425   0.100E-11
     TRS4 it  10 1.00000000   0.434E-02       0.036     5577.448   0.100E-11
     TRS4 it  11 1.00000000   0.805E-05       0.036     5644.256   0.100E-11
     TRS4 it  12 1.00000000   0.255E-10       0.036     5600.544   0.100E-11
     Final TRS4 iteration   12 1.00000000   0.255E-10
     Chemical potential (mu):      -0.01883

 SCF     5     -1103.144270821        -0.000639688    2.062959

*********************************************************
 Using MIXING_FRACTION=0.450 to mix KS matrix:  iscf=  6
 KS_nw=0.450*KS + 0.550*KS_old
*********************************************************
     Est. extremal eigenvalues     -0.84500     5.34227  converged:  T
     TRS4 it   1 1.00000000   0.560E+02       0.018     5430.588   0.100E-11
     TRS4 it   2 1.00000000   0.543E+02       0.018     5474.289   0.100E-11
     TRS4 it   3 1.00000000   0.351E+02       0.036     5556.321   0.100E-11
     TRS4 it   4 1.00000000   0.185E+02       0.036     5550.864   0.100E-11
     TRS4 it   5 1.00000000   0.119E+02       0.036     5611.046   0.100E-11
     TRS4 it   6 1.00000000   0.619E+01       0.036     5605.463   0.100E-11
     TRS4 it   7 1.00000000   0.243E+01       0.036     5614.866   0.100E-11
     TRS4 it   8 1.00000000   0.651E+00       0.036     5581.625   0.100E-11
     TRS4 it   9 1.00000000   0.926E-01       0.035     5707.145   0.100E-11
     TRS4 it  10 1.00000000   0.452E-02       0.036     5592.901   0.100E-11
     TRS4 it  11 1.00000000   0.913E-05       0.036     5633.635   0.100E-11
     TRS4 it  12 1.00000000   0.345E-10       0.036     5629.871   0.100E-11
     Final TRS4 iteration   12 1.00000000   0.345E-10
     Chemical potential (mu):      -0.01775

 SCF     6     -1103.144364781        -0.000093961    2.069411

*********************************************************
 Using MIXING_FRACTION=0.450 to mix KS matrix:  iscf=  7
 KS_nw=0.450*KS + 0.550*KS_old
*********************************************************
     Est. extremal eigenvalues     -0.84450     5.34260  converged:  T
     TRS4 it   1 1.00000000   0.560E+02       0.019     5380.742   0.100E-11
     TRS4 it   2 1.00000000   0.543E+02       0.018     5497.138   0.100E-11
     TRS4 it   3 1.00000000   0.351E+02       0.036     5625.608   0.100E-11
     TRS4 it   4 1.00000000   0.185E+02       0.036     5614.436   0.100E-11
     TRS4 it   5 1.00000000   0.119E+02       0.036     5537.583   0.100E-11
     TRS4 it   6 1.00000000   0.619E+01       0.036     5584.250   0.100E-11
     TRS4 it   7 1.00000000   0.243E+01       0.036     5621.029   0.100E-11
     TRS4 it   8 1.00000000   0.651E+00       0.036     5565.294   0.100E-11
     TRS4 it   9 1.00000000   0.928E-01       0.036     5514.801   0.100E-11
     TRS4 it  10 1.00000000   0.455E-02       0.036     5573.308   0.100E-11
     TRS4 it  11 1.00000000   0.927E-05       0.036     5538.248   0.100E-11
     TRS4 it  12 1.00000000   0.352E-10       0.036     5574.126   0.100E-11
     Final TRS4 iteration   12 1.00000000   0.352E-10
     Chemical potential (mu):      -0.01739

 SCF     7     -1103.144384639        -0.000019858    2.067674

*********************************************************
 Using MIXING_FRACTION=0.450 to mix KS matrix:  iscf=  8
 KS_nw=0.450*KS + 0.550*KS_old
*********************************************************
     Est. extremal eigenvalues     -0.84430     5.34280  converged:  T
     TRS4 it   1 1.00000000   0.560E+02       0.018     5446.571   0.100E-11
     TRS4 it   2 1.00000000   0.543E+02       0.019     5352.393   0.100E-11
     TRS4 it   3 1.00000000   0.351E+02       0.036     5579.260   0.100E-11
     TRS4 it   4 1.00000000   0.185E+02       0.036     5633.437   0.100E-11
     TRS4 it   5 1.00000000   0.119E+02       0.035     5682.781   0.100E-11
     TRS4 it   6 1.00000000   0.619E+01       0.036     5573.897   0.100E-11
     TRS4 it   7 1.00000000   0.243E+01       0.036     5549.857   0.100E-11
     TRS4 it   8 1.00000000   0.652E+00       0.036     5610.432   0.100E-11
     TRS4 it   9 1.00000000   0.931E-01       0.035     5666.787   0.100E-11
     TRS4 it  10 1.00000000   0.458E-02       0.035     5718.022   0.100E-11
     TRS4 it  11 1.00000000   0.949E-05       0.036     5591.827   0.100E-11
     TRS4 it  12 1.00000000   0.373E-10       0.036     5620.297   0.100E-11
     Final TRS4 iteration   12 1.00000000   0.373E-10
     Chemical potential (mu):      -0.01714

 SCF     8     -1103.144389447        -0.000004808    2.063917


 SCF run converged in     8 steps.

 Writing restart DM 64H2O_ref_LS_DM_SPIN_1_RESTART.dm with checksum:       0.61869905E+04

 ENERGY| Total FORCE_EVAL ( QS ) energy [a.u.]:            -1103.144389446765217

 -------------------------------------------------------------------------------
 -                                                                             -
 -                                DBCSR STATISTICS                             -
 -                                                                             -
 -------------------------------------------------------------------------------
 COUNTER                                    TOTAL       BLAS       SMM       ACC
 flops     5 x     5 x     5          79283331500       0.0%    100.0%      0.0%     
 flops     5 x    13 x     5         102666344300       0.0%    100.0%      0.0%     
 flops    13 x     5 x     5         102677622450       0.0%    100.0%      0.0%     
 flops     5 x     5 x    13         103186186350       0.0%    100.0%      0.0%     
 flops     5 x    13 x    13         133662468420       0.0%    100.0%      0.0%     
 flops    13 x     5 x    13         133674200400       0.0%    100.0%      0.0%     
 flops    13 x    13 x     5         134809829700       0.0%    100.0%      0.0%     
 flops    13 x    13 x    13         175559971938       0.0%    100.0%      0.0%     
 flops inhomo. stacks                           0       0.0%      0.0%      0.0%
 flops total                       965.519955E+09       0.0%    100.0%      0.0%
 flops max/rank                     30.983169E+09       0.0%    100.0%      0.0%
 matmuls inhomo. stacks                         0       0.0%      0.0%      0.0%
 matmuls total                         1069706085       0.0%    100.0%      0.0%
 number of processed stacks               1514773       0.0%    100.0%      0.0%
 average stack size                                     0.0     706.2       0.0
 marketing flops                     1.569237E+12
 -------------------------------------------------------------------------------
 # multiplications                            246
 max memory usage/rank             618.549248E+06
 # max total images/rank                        2
 # max 3D layers                                1
 # MPI messages exchanged                  102336
 MPI messages size (bytes):
  total size                        42.327597E+09
  min size                           0.000000E+00
  max size                         541.696000E+03
  average size                     413.613938E+03
 MPI breakdown and total messages size (bytes):
             size <=      128                 312                        0
       128 < size <=     8192                  42                   279312
      8192 < size <=    32768                  62                   841968
     32768 < size <=   131072                   6                   763152
    131072 < size <=  4194304              101914              42325714928
   4194304 < size <= 16777216                   0                        0
  16777216 < size                               0                        0
 -------------------------------------------------------------------------------

 *** WARNING in dbcsr_mm.F:301 :: Using a non-square number of MPI ranks ***
 *** might lead to poor performance. Used ranks: 32 Suggested: 36 64     ***

 -------------------------------------------------------------------------------
 -                                                                             -
 -                      DBCSR MESSAGE PASSING PERFORMANCE                      -
 -                                                                             -
 -------------------------------------------------------------------------------
 ROUTINE             CALLS      AVE VOLUME [Bytes]
 MP_Bcast                9                     12.
 MP_Allreduce         1762                     34.
 MP_Alltoall           546                  34827.
 MP_ISend             8604                 170637.
 MP_IRecv             8238                 178822.
 -------------------------------------------------------------------------------

 -------------------------------------------------------------------------------
 -                                                                             -
 -                                DBM STATISTICS                               -
 -                                                                             -
 -------------------------------------------------------------------------------
    M  x    N  x    K                                          COUNT     PERCENT
 -------------------------------------------------------------------------------

 -------------------------------------------------------------------------------
 -                                                                             -
 -                                GRID STATISTICS                              -
 -                                                                             -
 -------------------------------------------------------------------------------
 LP    KERNEL             BACKEND                              COUNT     PERCENT
 2     collocate ortho    CPU                                7375095      28.83%
 2     integrate ortho    CPU                                7375095      28.83%
 3     collocate ortho    CPU                                4740291      18.53%
 3     integrate ortho    CPU                                4740291      18.53%
 4     collocate ortho    CPU                                 674127       2.63%
 4     integrate ortho    CPU                                 674127       2.63%
 0     collocate general  CPU                                   6144       0.02%
 -------------------------------------------------------------------------------

 MEMORY| Estimated peak process memory [MiB]                                 591

 -------------------------------------------------------------------------------
 -                                                                             -
 -                         MESSAGE PASSING PERFORMANCE                         -
 -                                                                             -
 -------------------------------------------------------------------------------

 ROUTINE             CALLS      AVE VOLUME [Bytes]
 MP_Group                5
 MP_Bcast             1930                 201634.
 MP_Allreduce         5274                    941.
 MP_Sync                 5
 MP_Alltoall           244
 MP_SendRecv           837                  18832.
 MP_ISendRecv          837                  18832.
 MP_Wait              2391
 MP_ISend             1406                 108579.
 MP_IRecv             1406                 108603.
 -------------------------------------------------------------------------------


 -------------------------------------------------------------------------------
 -                                                                             -
 -                           R E F E R E N C E S                               -
 -                                                                             -
 -------------------------------------------------------------------------------
 
 CP2K version 2024.3 (Development Version), the CP2K developers group (2024).
 CP2K is freely available from https://www.cp2k.org/ .
 
 T. D. Kuehne, M. Iannuzzi, M. Del Ben, V. V. Rybkin, P. Seewald, F. Stein, T. 
 Laino, R. Z. Khaliullin, O. Schuett, F. Schiffmann, D. Golze, J. Wilhelm, S. 
 Chulkov, M. H. Bani-Hashemian, V. Weber, U. Borstnik, M. Taillefumier, A. S. 
 Jakobovits, A. Lazzaro, H. Pabst, T. Mueller, R. Schade, M. Guidon, S. 
 Andermatt, N. Holmberg, G. K. Schenter, A. Hehn, A. Bussy, F. Belleflamme, G. 
 Tabacchi, A. Gloess, M. Lass, I. Bethune, C. J. Mundy, C. Plessl, M. Watkins, 
 J. VandeVondele, M. Krack, J. Hutter.
 J. Chem. Phys. 152, 194103 (2020).
 CP2K: An electronic structure and molecular dynamics software package - 
 Quickstep: Efficient and accurate electronic structure calculations.
 https://doi.org/10.1063/5.0007045

 O. Schuett, P. Messmer, J. Hutter, J. VandeVondele.
 Electronic Structure Calculations on Graphics Processing Units, 173-190 (2016).
 GPU-Accelerated Sparse Matrix-Matrix Multiplication for Linear Scaling Density 
 Functional Theory.
 https://doi.org/10.1002/9781118670712.ch8

 A. Heinecke, G. Henry, M. Hutchinson, H. Pabst.
 Proceedings of Intl. Supercomputing Conference, 981-991 (2016).
 LIBXSMM: Accelerating Small Matrix Multiplications by Runtime Code Generation.
 https://doi.org/10.1109/SC.2016.83

 J. Hutter, M. Iannuzzi, F. Schiffmann, J. VandeVondele.
 WIREs Comput Mol Sci. 4, 15-25 (2014).
 CP2K: atomistic simulations of condensed matter systems.
 https://doi.org/10.1002/wcms.1159

 U. Borstnik, J. VandeVondele, V. Weber, J. Hutter.
 Parallel Comput. 40, 47-58 (2014).
 Sparse matrix multiplication: The distributed block-compressed sparse row 
 library.
 https://doi.org/10.1016/j.parco.2014.03.012

 A. Marek, V. Blum, R. Johanni, V. Havu, B. Lang, T. Auckenthaler, A. Heinecke, 
 H. Bungartz, H. Lederer.
 J. Phys. Condens. Matter 26, 213201 (2014).
 The ELPA library: scalable parallel eigenvalue solutions for electronic 
 structure theory and computational science.
 https://doi.org/10.1088/0953-8984/26/21/213201

 J. VandeVondele, U. Borstnik, J. Hutter.
 J. Chem. Theory Comput. 8, 3565-3573 (2012).
 Linear Scaling Self-Consistent Field Calculations with Millions of Atoms in the 
 Condensed Phase.
 https://doi.org/10.1021/ct200897x

 J. VandeVondele, J. Hutter.
 J. Chem. Phys. 127, 114105 (2007).
 Gaussian basis sets for accurate calculations on molecular systems in gas and 
 condensed phases.
 https://doi.org/10.1063/1.2770708

 J. VandeVondele, M. Krack, F. Mohamed, M. Parrinello, T. Chassaing, J. Hutter.
 Comput. Phys. Commun. 167, 103-128 (2005).
 QUICKSTEP: Fast and accurate density functional calculations using a mixed 
 Gaussian and plane waves approach.
 https://doi.org/10.1016/j.cpc.2004.12.014

 M. Krack.
 Theor. Chem. Acc. 114, 145-152 (2005).
 Pseudopotentials for H to Kr optimized for gradient-corrected 
 exchange-correlation functionals.
 https://doi.org/10.1007/s00214-005-0655-y

 M. Frigo, S. G. Johnson.
 Proc. IEEE 93, 216-231 (2005).
 The design and implementation of FFTW3.
 https://doi.org/10.1109/JPROC.2004.840301

 A. M. N. Niklasson, C. J. Tymczak, M. Challacombe.
 J. Chem. Phys. 118, 8611-8620 (2003).
 Trace resetting density matrix purification in O(N) self-consistent-field 
 theory.
 https://doi.org/10.1063/1.1559913

 C. Hartwigsen, S. Goedecker, J. Hutter.
 Phys. Rev. B 58, 3641-3662 (1998).
 Relativistic separable dual-space Gaussian pseudopotentials from H to Rn.
 https://doi.org/10.1103/PhysRevB.58.3641

 G. Lippert, J. Hutter, M. Parrinello.
 Mol. Phys. 92, 477-487 (1997).
 A hybrid Gaussian and plane wave density functional scheme.
 https://doi.org/10.1080/002689797170220

 S. Goedecker, M. Teter, J. Hutter.
 Phys. Rev. B 54, 1703-1710 (1996).
 Separable dual-space Gaussian pseudopotentials.
 https://doi.org/10.1103/PhysRevB.54.1703

 J. P. Perdew, K. Burke, M. Ernzerhof.
 Phys. Rev. Lett. 77, 3865-3868 (1996).
 Generalized gradient approximation made simple.
 https://doi.org/10.1103/PhysRevLett.77.3865


 -------------------------------------------------------------------------------
 -                                                                             -
 -                                T I M I N G                                  -
 -                                                                             -
 -------------------------------------------------------------------------------
 SUBROUTINE                       CALLS  ASD         SELF TIME        TOTAL TIME
                                MAXIMUM       AVERAGE  MAXIMUM  AVERAGE  MAXIMUM
 CP2K                                 1  1.0    0.013    0.016   20.313   20.313
 qs_energies                          1  2.0    0.000    0.000   20.160   20.160
 ls_scf                               1  3.0    0.000    0.000   19.053   19.054
 ls_scf_main                          1  4.0    0.000    0.000   16.523   16.523
 ls_scf_dm_to_ks                      8  5.0    0.000    0.000   12.380   12.386
 qs_ks_update_qs_env                  9  6.1    0.000    0.000    7.799    7.800
 rebuild_ks_matrix                    9  7.1    0.000    0.000    7.793    7.794
 qs_ks_build_kohn_sham_matrix         9  8.1    0.002    0.002    7.793    7.794
 qs_rho_update_rho_low                9  6.1    0.000    0.000    6.127    6.133
 calculate_rho_elec                   9  7.1    0.003    0.003    6.127    6.133
 sum_up_and_integrate                 9  9.1    0.000    0.000    5.890    5.891
 integrate_v_rspace                   9 10.1    0.000    0.000    5.881    5.883
 grid_collocate_task_list             9  8.1    5.428    5.509    5.428    5.509
 grid_integrate_task_list             9 11.1    5.199    5.263    5.199    5.263
 dbcsr_multiply_generic             246  6.2    0.012    0.013    4.607    4.612
 density_matrix_trs4                  8  5.0    0.004    0.006    4.138    4.139
 multiply_cannon                    246  7.2    0.018    0.022    3.746    3.878
 multiply_cannon_loop               246  8.2    0.020    0.022    3.670    3.724
 ls_scf_init_scf                      1  4.0    0.000    0.000    2.468    2.468
 multiply_cannon_multrec           1968  9.2    2.102    2.155    2.108    2.161
 fft_wrap_pw1pw2                    172 11.3    0.003    0.003    1.762    1.803
 mp_waitall_1                     16729 10.5    1.698    1.778    1.698    1.778
 fft_wrap_pw1pw2_200                100 12.8    0.103    0.111    1.689    1.739
 qs_vxc_create                        9  9.1    0.000    0.000    1.556    1.583
 xc_vxc_pw_create                     9 10.1    0.013    0.019    1.555    1.582
 ls_scf_initial_guess                 1  5.0    0.000    0.000    1.550    1.551
 ls_scf_qs_atomic_guess               1  6.0    0.000    0.000    1.550    1.551
 multiply_cannon_metrocomm3        1968  9.2    0.005    0.006    1.324    1.398
 fft3d_ps                           172 13.3    0.713    0.806    1.323    1.379
 xc_pw_derive                        54 12.1    0.001    0.001    1.103    1.182
 qs_energies_init_hamiltonians        1  3.0    0.000    0.000    1.106    1.106
 build_core_hamiltonian_matrix        1  4.0    0.000    0.000    0.712    0.919
 ls_scf_init_matrix_S                 1  5.0    0.000    0.000    0.917    0.918
 matrix_sqrt_Newton_Schulz            1  6.0    0.001    0.001    0.894    0.894
 xc_rho_set_and_dset_create           9 11.1    0.020    0.026    0.786    0.806
 xc_pw_divergence                     9 11.1    0.000    0.000    0.737    0.774
 density_rs2pw                        9  8.1    0.000    0.000    0.664    0.734
 make_m2s                           492  7.2    0.005    0.007    0.681    0.694
 mp_waitany                        1406 12.5    0.575    0.689    0.575    0.689
 make_images                        492  8.2    0.039    0.041    0.671    0.684
 build_core_ppl                       1  5.0    0.485    0.669    0.485    0.669
 transfer_rs2pw                      46  9.0    0.001    0.001    0.508    0.622
 mp_alltoall_z22v                   172 15.3    0.435    0.610    0.435    0.610
 potential_pw2rs                      9 11.1    0.000    0.001    0.596    0.598
 transfer_rs2pw_200                  10  9.8    0.033    0.049    0.405    0.517
 qs_env_update_s_mstruct              1  4.0    0.000    0.000    0.377    0.435
 make_images_data                   492  9.2    0.005    0.007    0.372    0.408
 -------------------------------------------------------------------------------

 The number of warnings for this run is : 1
 
 -------------------------------------------------------------------------------
  **** **** ******  **  PROGRAM ENDED AT                 2024-09-23 17:51:57.991
 ***** ** ***  *** **   PROGRAM RAN ON                                    moritz
 **    ****   ******    PROGRAM RAN BY                                       ole
 ***** **    ** ** **   PROGRAM PROCESS ID                                160797
  **** **  *******  **  PROGRAM STOPPED IN /home/ole/git/pao_ml_equivar/64H2O_MD
                                           /Frame6200
