 DBCSR| CPU Multiplication driver                                           XSMM (U)
 DBCSR| Multrec recursion limit                                              512 (U)
 DBCSR| Multiplication stack size                                           1000 (D)
 DBCSR| Maximum elements for images                                    UNLIMITED (U)
 DBCSR| Multiplicative factor virtual images                                   1 (U)
 DBCSR| Use multiplication densification                                       T (D)
 DBCSR| Multiplication size stacks                                             3 (U)
 DBCSR| Use memory pool for CPU allocation                                     F (U)
 DBCSR| Number of 3D layers                                               SINGLE (U)
 DBCSR| Use MPI memory allocation                                              F (U)
 DBCSR| Use RMA algorithm                                                      F (U)
 DBCSR| Use Communication thread                                               T (U)
 DBCSR| Communication thread load                                             87 (D)
 DBCSR| MPI: My process id                                                     0
 DBCSR| MPI: Number of processes                                              32
 DBCSR| OMP: Current number of threads                                         1
 DBCSR| OMP: Max number of threads                                             1
 DBCSR| Split modifier for TAS multiplication algorithm                  1.0E+00 (U)


  **** **** ******  **  PROGRAM STARTED AT               2024-09-24 05:57:11.896
 ***** ** ***  *** **   PROGRAM STARTED ON                                moritz
 **    ****   ******    PROGRAM STARTED BY                                   ole
 ***** **    ** ** **   PROGRAM PROCESS ID                                169868
  **** **  *******  **  PROGRAM STARTED IN /home/ole/git/pao_ml_equivar/64H2O_MD
                                           /Frame6200

 CP2K| version string:                 CP2K version 2024.3 (Development Version)
 CP2K| source code revision number:                                  git:3f890bb
 CP2K| cp2kflags: omp libint fftw3 libxc libgrpp pexsi elpa parallel scalapack c
 CP2K|            osma quip deepmd xsmm plumed2 spglib libdftd4 sirius libvori l
 CP2K|            libbqb libvdwxc hdf5
 CP2K| is freely available from                            https://www.cp2k.org/
 CP2K| Program compiled at                          Mo 23 Sep 2024 17:17:04 CEST
 CP2K| Program compiled on                                                moritz
 CP2K| Program compiled for                                                local
 CP2K| Data directory path                               /home/ole/git/cp2k/data
 CP2K| Input file name                                           64H2O_pao44.inp

 GLOBAL| Force Environment number                                              1
 GLOBAL| Basis set file name                                        BASIS_MOLOPT
 GLOBAL| Potential file name                                      GTH_POTENTIALS
 GLOBAL| MM Potential file name                                     MM_POTENTIAL
 GLOBAL| Coordinate file name                                         coords.xyz
 GLOBAL| Method name                                                        CP2K
 GLOBAL| Project name                                                64H2O_pao44
 GLOBAL| Run type                                                         ENERGY
 GLOBAL| FFT library                                                       FFTW3
 GLOBAL| Diagonalization library                                            ELPA
 GLOBAL| DGEMM library                                                      BLAS
 GLOBAL| Minimum number of eigenvectors for ELPA usage                        16
 GLOBAL| Orthonormality check for eigenvectors                          DISABLED
 GLOBAL| Matrix multiplication library                                     COSMA
 GLOBAL| All-to-all communication in single precision                          F
 GLOBAL| FFTs using library dependent lengths                                  F
 GLOBAL| Grid backend                                                       AUTO
 GLOBAL| Global print level                                                  LOW
 GLOBAL| MPI I/O enabled                                                       T
 GLOBAL| Total number of message passing processes                            32
 GLOBAL| Number of threads for this process                                    1
 GLOBAL| This output is from process                                           0
 GLOBAL| Stack size for threads created by OpenMP (OMP_STACKSIZE)        default
 GLOBAL| CPU model name           AMD Ryzen Threadripper 3970X 32-Core Processor
 GLOBAL| CPUID                                                              1002

 MEMORY| system memory details [Kb]
 MEMORY|                        rank 0           min           max       average
 MEMORY| MemTotal            131752136     131752136     131752136     131752136
 MEMORY| MemFree             114335928     114335928     114335928     114335928
 MEMORY| Buffers               2027476       2027476       2027476       2027476
 MEMORY| Cached                8717924       8717924       8717924       8717924
 MEMORY| Slab                  1642856       1642856       1642856       1642856
 MEMORY| SReclaimable          1146140       1146140       1146140       1146140
 MEMORY| MemLikelyFree       126227468     126227468     126227468     126227468


 GENERATE|  Preliminary Number of Bonds generated:                             0
 GENERATE|  Achieved consistency in connectivity generation.

 *******************************************************************************
 *******************************************************************************
 **                                                                           **
 **     #####                         ##              ##                      **
 **    ##   ##            ##          ##              ##                      **
 **   ##     ##                       ##            ######                    **
 **   ##     ##  ##   ##  ##   #####  ##  ##   ####   ##    #####    #####    **
 **   ##     ##  ##   ##  ##  ##      ## ##   ##      ##   ##   ##  ##   ##   **
 **   ##  ## ##  ##   ##  ##  ##      ####     ###    ##   ######   ######    **
 **    ##  ###   ##   ##  ##  ##      ## ##      ##   ##   ##       ##        **
 **     #######   #####   ##   #####  ##  ##  ####    ##    #####   ##        **
 **           ##                                                    ##        **
 **                                                                           **
 **                                                ... make the atoms dance   **
 **                                                                           **
 **            Copyright (C) by CP2K developers group (2000-2024)             **
 **                      J. Chem. Phys. 152, 194103 (2020)                    **
 **                                                                           **
 *******************************************************************************


 TOTAL NUMBERS AND MAXIMUM NUMBERS

  Total number of            - Atomic kinds:                                   2
                             - Atoms:                                        192
                             - Shell sets:                                   192
                             - Shells:                                       704
                             - Primitive Cartesian functions:               1344
                             - Cartesian basis functions:                   1536
                             - Spherical basis functions:                   1472

  Maximum angular momentum of- Orbital basis functions:                        2
                             - Local part of the GTH pseudopotential:          2
                             - Non-local part of the GTH pseudopotential:      0

 ------------------------------ Linear scaling SCF -----------------------------
 eps_scf:                                                              0.100E-07
 eps_filter:                                                           0.100E-11
 mixing_fraction:                                                      0.450E+00
 max_scf:                                                                     25
 fixed chemical potential (mu)                                                 F
 has unit metric:                                                              F
 Computing inv(S):                                                             T
 Computing sqrt(S):                                                            T
 Computing S preconditioner                                                    F
 S sqrt method:                                                     NEWTONSCHULZ
 S sqrt order:                                                                 3
 Extrapolation order:                                                          1
 S preconditioner type                                                      NONE
 Polarized Atomic Orbitals (PAO)                                               T
 Purification method                                   Trace resetting 4th order
 Cluster type                                                             ATOMIC
 Computing Chebyshev                                                       FALSE
 Using PAO                                                                     T
 -------------------------------------------------------------------------------

 
 PAO|                                  EPS_PAO                           0.5E-06
 PAO|                                  MIXING                            0.5E+00
 PAO|                                  MAX_PAO                              1500
 PAO|                                  MAX_CYCLES                           1000
 PAO|                                  PARAMETERIZATION              EQUIVARIANT
 PAO|                                  PRECONDITION                            F
 PAO|                                  REGULARIZATION                    0.0E+00
 PAO|                                  EPS_PGF                           0.1E-09
 PAO|                                  PENALTY_DISTANCE                  0.1E+00
 PAO|                                  PENALTY_STRENGTH                  0.5E-02
 PAO|                                  LINPOT_PRECONDITION_DELTA         0.0E+00
 PAO|                                  LINPOT_INITGUESS_DELT             0.0E+00
 PAO|                                  LINPOT_REGULARIZATION_DELTA       0.0E+00
 PAO|                                  LINPOT_REGULARIZATION_STRENGTH    0.0E+00
 PAO|                                  OPTIMIZER                              CG
 PAO|                                  CG_INIT_STEPS                           2
 PAO|                                  CG_RESET_LIMIT                    0.1E+00
 PAO|                                  CHECK_UNITARY_TOL                -0.1E+01
 PAO|                                  CHECK_GRADIENT_TOL               -0.1E+01
 PAO|                                  NUM_GRADIENT_ORDER                      2
 PAO|                                  NUM_GRADIENT_EPS                  0.1E-07
 PAO|                                  PRINT%RESTART%WRITE_CYCLES            100
 PAO|                                  RESTART_FILE 
 PAO|                                  PREOPT_DM_FILE 64H2O_ref_LS_DM_SPIN_1_RESTART.dm
 PAO|                                  MACHINE_LEARNING%METHOD       GAUSSIAN_PR
 PAO|                                  MACHINE_LEARNING%PRIOR               ZERO
 PAO|                                  MACHINE_LEARNING%DESCRIPTOR     POTENTIAL
 PAO|                                  MACHINE_LEARNING%TOLERANCE        0.1E-01
 PAO|                                  MACHINE_LEARNING%GP_NOISE_VAR     0.1E+00
 PAO|                                  MACHINE_LEARNING%GP_SCALE         0.5E-01
 

 Calculating atomic Fock matrix for atomic kind: O

 Electronic structure
    Total number of core electrons                                          2.00
    Total number of valence electrons                                       6.00
    Total number of electrons                                               8.00
    Multiplicity                                                   not specified
    S   [  2.00] 2.00
    P      4.00


 *******************************************************************************
                  Iteration          Convergence                     Energy [au]
 *******************************************************************************
                          1        0.708315                     -15.576645311500
                          2        0.608879                     -15.587933561584
                          3        0.102828E-01                 -15.656849565404
                          4        0.113889E-02                 -15.656866888140
                          5        0.434197E-03                 -15.656867072159
                          6        0.263771E-03                 -15.656867091904
                          7        0.478536E-06                 -15.656867103452

 Energy components [Hartree]           Total Energy ::          -15.656867103452
                                        Band Energy ::           -3.000198112285
                                     Kinetic Energy ::           11.759971203220
                                   Potential Energy ::          -27.416838306672
                                      Virial (-V/T) ::            2.331369510426
                                        Core Energy ::          -26.140716385623
                                          XC Energy ::           -3.154051012914
                                     Coulomb Energy ::           13.637900295084
                       Total Pseudopotential Energy ::          -37.935781716540
                       Local Pseudopotential Energy ::          -39.218907440693
                    Nonlocal Pseudopotential Energy ::            1.283125724153
                                        Confinement ::            0.350941276976

 Orbital energies  State     L     Occupation   Energy[a.u.]          Energy[eV]

                       1     0          2.000      -0.864471          -23.523463

                       1     1          4.000      -0.317814           -8.648154


 Total Electron Density at R=0:                                         0.000068

 Calculating atomic Fock matrix for atomic kind: H

 Electronic structure
    Total number of core electrons                                          0.00
    Total number of valence electrons                                       1.00
    Total number of electrons                                               1.00
    Multiplicity                                                   not specified
    S      1.00


 *******************************************************************************
                  Iteration          Convergence                     Energy [au]
 *******************************************************************************
                          1        0.437545E-02                  -0.424159432110
                          2        0.531356E-03                  -0.424178438213
                          3        0.259176E-06                  -0.424178722480

 Energy components [Hartree]           Total Energy ::           -0.424178722480
                                        Band Energy ::           -0.199015229016
                                     Kinetic Energy ::            0.464007633961
                                   Potential Energy ::           -0.888186356441
                                      Virial (-V/T) ::            1.914163240935
                                        Core Energy ::           -0.479160803564
                                          XC Energy ::           -0.244352904054
                                     Coulomb Energy ::            0.299334985138
                       Total Pseudopotential Energy ::           -0.962295316385
                       Local Pseudopotential Energy ::           -0.962295316385
                    Nonlocal Pseudopotential Energy ::            0.000000000000
                                        Confinement ::            0.191268788606

 Orbital energies  State     L     Occupation   Energy[a.u.]          Energy[eV]

                       1     0          1.000      -0.199015           -5.415480


 Total Electron Density at R=0:                                         0.242907
 PAO| Made initial guess for matrix_X with norm:   27.712812921102035     

     Lanczos converged:  F threshold:   0.100E-02
     Est. extremal eigenvalues:    0.624E+01   0.947E-01
     Est. condition number :    0.659E+02

 Order=           3
     NS sqrt iter    1 1.00000000   0.153E+01       0.021     2664.432
     NS sqrt iter    2 1.00000000   0.826E+00       0.034     3365.359
     NS sqrt iter    3 1.00000000   0.332E+00       0.034     3346.107
     NS sqrt iter    4 1.00000000   0.927E-01       0.033     3381.784
     NS sqrt iter    5 1.00000000   0.338E-02       0.034     3372.441
     NS sqrt iter    6 1.00000000   0.298E-06       0.029     2947.764
     Symmetrizing Results
     Final NS sqrt iter    6 1.00000000   0.179E-12

 PAO| Read restart DM 64H2O_ref_LS_DM_SPIN_1_RESTART.dm with checksum:    6186.9905349530563     
 PAO| Quickstep energy from restart density:  -1103.1443894467652     
 PAO| ======================= Iteration:         1 =============================

     Lanczos converged:  F threshold:   0.100E-02
     Est. extremal eigenvalues:    0.624E+01   0.947E-01
     Est. condition number :    0.659E+02

 Order=           3
     NS sqrt iter    1 1.00000000   0.153E+01       0.021     2709.444
     NS sqrt iter    2 1.00000000   0.826E+00       0.033     3400.742
     NS sqrt iter    3 1.00000000   0.332E+00       0.034     3378.175
     NS sqrt iter    4 1.00000000   0.927E-01       0.034     3361.435
     NS sqrt iter    5 1.00000000   0.338E-02       0.034     3352.726
     NS sqrt iter    6 1.00000000   0.298E-06       0.029     2934.439
     Symmetrizing Results
     Final NS sqrt iter    6 1.00000000   0.179E-12

     Est. extremal eigenvalues     -0.82723     2.59886  converged:  T
     TRS4 it   1 1.00000000   0.273E+02       0.007     2111.207   0.100E-11
     TRS4 it   2 1.00000000   0.236E+02       0.013     2205.631   0.100E-11
     TRS4 it   3 1.00000000   0.161E+02       0.013     2207.326   0.100E-11
     TRS4 it   4 1.00000000   0.101E+02       0.013     2212.357   0.100E-11
     TRS4 it   5 1.00000000   0.493E+01       0.013     2220.794   0.100E-11
     TRS4 it   6 1.00000000   0.166E+01       0.013     2207.230   0.100E-11
     TRS4 it   7 1.00000000   0.332E+00       0.013     2185.170   0.100E-11
     TRS4 it   8 1.00000000   0.248E-01       0.013     2228.410   0.100E-11
     TRS4 it   9 1.00000000   0.244E-03       0.013     2202.015   0.100E-11
     TRS4 it  10 1.00000000   0.259E-07       0.013     2228.621   0.100E-11
     TRS4 it  11 1.00000000   0.266E-13       0.013     2208.501   0.100E-11
     Final TRS4 iteration   11 1.00000000   0.266E-13
     Chemical potential (mu):       0.00911
 
 PAO| energy:  -186.43042111560135      penalty:   1.3299701823960495E-031
 PAO|CG| warming up with steepest descent
 PAO|CG| beta:    0.0000000000000000     
 PAO| norm of gradient:   3.9865099297530997     
 PAO|LS| adapt:  T F F
 PAO|LS| adapt: scan_steps:    0.0000000000000000        0.0000000000000000        0.0000000000000000     
 PAO|LS| adapt: energies:   -186.43042111560135        0.0000000000000000        0.0000000000000000     
 PAO| ======================= Iteration:         2 =============================

     Lanczos converged:  F threshold:   0.100E-02
     Est. extremal eigenvalues:    0.602E+01   0.101E+00
     Est. condition number :    0.595E+02

 Order=           3
     NS sqrt iter    1 1.00000000   0.148E+01       0.021     2720.436
     NS sqrt iter    2 1.00000000   0.797E+00       0.033     3383.220
     NS sqrt iter    3 1.00000000   0.311E+00       0.034     3373.078
     NS sqrt iter    4 1.00000000   0.781E-01       0.033     3393.531
     NS sqrt iter    5 1.00000000   0.211E-02       0.034     3371.217
     NS sqrt iter    6 1.00000000   0.855E-07       0.029     2958.141
     Symmetrizing Results
     Final NS sqrt iter    6 1.00000000   0.172E-13

     Est. extremal eigenvalues     -0.83031     2.59281  converged:  T
     TRS4 it   1 1.00000000   0.275E+02       0.007     2150.369   0.100E-11
     TRS4 it   2 1.00000000   0.235E+02       0.013     2204.060   0.100E-11
     TRS4 it   3 1.00000000   0.160E+02       0.013     2238.929   0.100E-11
     TRS4 it   4 1.00000000   0.993E+01       0.013     2206.657   0.100E-11
     TRS4 it   5 1.00000000   0.471E+01       0.013     2225.058   0.100E-11
     TRS4 it   6 1.00000000   0.152E+01       0.013     2191.158   0.100E-11
     TRS4 it   7 1.00000000   0.285E+00       0.013     2218.703   0.100E-11
     TRS4 it   8 1.00000000   0.179E-01       0.013     2231.832   0.100E-11
     TRS4 it   9 1.00000000   0.116E-03       0.013     2218.839   0.100E-11
     TRS4 it  10 1.00000000   0.647E-08       0.013     2231.202   0.100E-11
     TRS4 it  11 1.00000000   0.266E-13       0.013     2219.575   0.100E-11
     Final TRS4 iteration   11 1.00000000   0.266E-13
     Chemical potential (mu):       0.01471
 
 PAO| energy:  -187.88894687804626      penalty:   4.7326375884511475E-007
 PAO|LS| adapt:  T T F
 PAO|LS| adapt: scan_steps:    0.0000000000000000       0.10000000000000001        0.0000000000000000     
 PAO|LS| adapt: energies:   -186.43042111560135       -187.88894687804626        0.0000000000000000     
 PAO| ======================= Iteration:         3 =============================

     Lanczos converged:  F threshold:   0.100E-02
     Est. extremal eigenvalues:    0.581E+01   0.107E+00
     Est. condition number :    0.544E+02

 Order=           3
     NS sqrt iter    1 1.00000000   0.144E+01       0.021     2705.537
     NS sqrt iter    2 1.00000000   0.768E+00       0.033     3399.464
     NS sqrt iter    3 1.00000000   0.291E+00       0.033     3398.937
     NS sqrt iter    4 1.00000000   0.655E-01       0.034     3376.351
     NS sqrt iter    5 1.00000000   0.133E-02       0.033     3395.405
     NS sqrt iter    6 1.00000000   0.260E-07       0.029     2939.248
     Symmetrizing Results
     Final NS sqrt iter    6 1.00000000   0.327E-14

     Est. extremal eigenvalues     -0.83323     2.59110  converged:  T
     TRS4 it   1 1.00000000   0.277E+02       0.007     2166.942   0.100E-11
     TRS4 it   2 1.00000000   0.235E+02       0.013     2213.099   0.100E-11
     TRS4 it   3 1.00000000   0.159E+02       0.013     2227.224   0.100E-11
     TRS4 it   4 1.00000000   0.973E+01       0.013     2216.144   0.100E-11
     TRS4 it   5 1.00000000   0.450E+01       0.013     2223.004   0.100E-11
     TRS4 it   6 1.00000000   0.139E+01       0.013     2217.639   0.100E-11
     TRS4 it   7 1.00000000   0.242E+00       0.013     2228.679   0.100E-11
     TRS4 it   8 1.00000000   0.126E-01       0.013     2180.999   0.100E-11
     TRS4 it   9 1.00000000   0.514E-04       0.013     2222.105   0.100E-11
     TRS4 it  10 1.00000000   0.139E-08       0.013     2234.241   0.100E-11
     TRS4 it  11 1.00000000   0.142E-13       0.013     2238.202   0.100E-11
     Final TRS4 iteration   11 1.00000000   0.142E-13
     Chemical potential (mu):       0.02109
 
 PAO| energy:  -189.06969584452199      penalty:   7.5722201415415423E-006
 PAO|LS| adapt:  T T F
 PAO|LS| adapt: scan_steps:    0.0000000000000000       0.20000000000000001        0.0000000000000000     
 PAO|LS| adapt: energies:   -186.43042111560135       -189.06969584452199        0.0000000000000000     
 PAO| ======================= Iteration:         4 =============================

     Lanczos converged:  F threshold:   0.100E-02
     Est. extremal eigenvalues:    0.539E+01   0.116E+00
     Est. condition number :    0.465E+02

 Order=           3
     NS sqrt iter    1 1.00000000   0.136E+01       0.021     2673.412
     NS sqrt iter    2 1.00000000   0.712E+00       0.033     3386.774
     NS sqrt iter    3 1.00000000   0.254E+00       0.033     3397.544
     NS sqrt iter    4 1.00000000   0.460E-01       0.034     3363.436
     NS sqrt iter    5 1.00000000   0.551E-03       0.033     3384.541
     NS sqrt iter    6 1.00000000   0.247E-08       0.029     2868.288
     Symmetrizing Results
     Final NS sqrt iter    6 1.00000000   0.148E-13

     Est. extremal eigenvalues     -0.83813     2.59739  converged:  T
     TRS4 it   1 1.00000000   0.282E+02       0.007     2141.686   0.100E-11
     TRS4 it   2 1.00000000   0.235E+02       0.013     2202.913   0.100E-11
     TRS4 it   3 1.00000000   0.157E+02       0.013     2249.965   0.100E-11
     TRS4 it   4 1.00000000   0.940E+01       0.013     2231.862   0.100E-11
     TRS4 it   5 1.00000000   0.413E+01       0.013     2241.307   0.100E-11
     TRS4 it   6 1.00000000   0.117E+01       0.013     2214.626   0.100E-11
     TRS4 it   7 1.00000000   0.173E+00       0.013     2241.415   0.100E-11
     TRS4 it   8 1.00000000   0.598E-02       0.013     2232.037   0.100E-11
     TRS4 it   9 1.00000000   0.970E-05       0.013     2214.606   0.100E-11
     TRS4 it  10 1.00000000   0.505E-10       0.013     2244.714   0.100E-11
     Final TRS4 iteration   10 1.00000000   0.505E-10
     Chemical potential (mu):       0.04027
 
 PAO| energy:  -190.55577053223678      penalty:   1.2115552226482453E-004
 PAO|LS| Need extra step
 PAO|LS| adapt:  T T F
 PAO|LS| adapt: scan_steps:    0.0000000000000000       0.40000000000000002        0.0000000000000000     
 PAO|LS| adapt: energies:   -186.43042111560135       -190.55577053223678        0.0000000000000000     
 PAO| ======================= Iteration:         5 =============================

     Lanczos converged:  F threshold:   0.100E-02
     Est. extremal eigenvalues:    0.472E+01   0.131E+00
     Est. condition number :    0.361E+02

 Order=           3
     NS sqrt iter    1 1.00000000   0.123E+01       0.021     2723.261
     NS sqrt iter    2 1.00000000   0.621E+00       0.033     3402.539
     NS sqrt iter    3 1.00000000   0.196E+00       0.033     3385.550
     NS sqrt iter    4 1.00000000   0.240E-01       0.034     3372.317
     NS sqrt iter    5 1.00000000   0.105E-03       0.034     3360.252
     NS sqrt iter    6 1.00000000   0.245E-10       0.019     2271.082
     Symmetrizing Results
     Final NS sqrt iter    6 1.00000000   0.211E-11

     Est. extremal eigenvalues     -0.84206     2.60084  converged:  T
     TRS4 it   1 1.00000000   0.288E+02       0.007     2132.302   0.100E-11
     TRS4 it   2 1.00000000   0.236E+02       0.013     2217.670   0.100E-11
     TRS4 it   3 1.00000000   0.155E+02       0.013     2239.834   0.100E-11
     TRS4 it   4 1.00000000   0.891E+01       0.013     2207.617   0.100E-11
     TRS4 it   5 1.00000000   0.361E+01       0.013     2231.648   0.100E-11
     TRS4 it   6 1.00000000   0.876E+00       0.013     2223.360   0.100E-11
     TRS4 it   7 1.00000000   0.952E-01       0.013     2212.774   0.100E-11
     TRS4 it   8 1.00000000   0.169E-02       0.013     2222.863   0.100E-11
     TRS4 it   9 1.00000000   0.783E-06       0.013     2226.952   0.100E-11
     TRS4 it  10 1.00000000   0.389E-12       0.013     2202.500   0.100E-11
     Final TRS4 iteration   10 1.00000000   0.389E-12
     Chemical potential (mu):       0.06193
 
 PAO| energy:  -190.15419128848032      penalty:   1.9384883562384774E-003
 PAO|LS| Need extra step
 PAO|LS| adapt:  T T T
 PAO|LS| adapt: scan_steps:    0.0000000000000000       0.40000000000000002       0.80000000000000004     
 PAO|LS| adapt: energies:   -186.43042111560135       -190.55577053223678       -190.15419128848032     
 PAO|LS| adapt: suggested step_size:   0.56451640625397492     
 PAO|LS| adapt: predicted energy  -190.93865883633541     
 PAO| ======================= Iteration:         6 =============================

     Lanczos converged:  F threshold:   0.100E-02
     Est. extremal eigenvalues:    0.509E+01   0.122E+00
     Est. condition number :    0.416E+02

 Order=           3
     NS sqrt iter    1 1.00000000   0.130E+01       0.021     2708.326
     NS sqrt iter    2 1.00000000   0.670E+00       0.033     3388.407
     NS sqrt iter    3 1.00000000   0.227E+00       0.034     3360.976
     NS sqrt iter    4 1.00000000   0.348E-01       0.033     3384.189
     NS sqrt iter    5 1.00000000   0.272E-03       0.033     3383.122
     NS sqrt iter    6 1.00000000   0.358E-09       0.028     2730.086
     Symmetrizing Results
     Final NS sqrt iter    6 1.00000000   0.252E-12

     Est. extremal eigenvalues     -0.84082     2.60123  converged:  T
     TRS4 it   1 1.00000000   0.285E+02       0.007     2155.813   0.100E-11
     TRS4 it   2 1.00000000   0.236E+02       0.013     2220.037   0.100E-11
     TRS4 it   3 1.00000000   0.156E+02       0.013     2218.896   0.100E-11
     TRS4 it   4 1.00000000   0.917E+01       0.013     2227.158   0.100E-11
     TRS4 it   5 1.00000000   0.389E+01       0.013     2226.186   0.100E-11
     TRS4 it   6 1.00000000   0.103E+01       0.013     2235.512   0.100E-11
     TRS4 it   7 1.00000000   0.132E+00       0.013     2232.359   0.100E-11
     TRS4 it   8 1.00000000   0.335E-02       0.013     2213.384   0.100E-11
     TRS4 it   9 1.00000000   0.293E-05       0.013     2200.602   0.100E-11
     TRS4 it  10 1.00000000   0.475E-11       0.013     2218.313   0.100E-11
     Final TRS4 iteration   10 1.00000000   0.475E-11
     Chemical potential (mu):       0.05033
 
 PAO| energy:  -190.91222820003480      penalty:   4.8062850165285736E-004
 PAO|CG| warming up with steepest descent
 PAO|CG| beta:    0.0000000000000000     
 PAO| norm of gradient:   2.1133445702021247     
 PAO| energy improvement:  -4.4818070844334557     
 PAO| step      6                 -190.912228200  0.413E-02  0.565E+00     2.419
 PAO|LS| adapt:  T F F
 PAO|LS| adapt: scan_steps:    0.0000000000000000        0.0000000000000000        0.0000000000000000     
 PAO|LS| adapt: energies:   -190.91222820003480        0.0000000000000000        0.0000000000000000     
 PAO| ======================= Iteration:         7 =============================

     Lanczos converged:  F threshold:   0.100E-02
     Est. extremal eigenvalues:    0.491E+01   0.130E+00
     Est. condition number :    0.378E+02

 Order=           3
     NS sqrt iter    1 1.00000000   0.126E+01       0.021     2717.348
     NS sqrt iter    2 1.00000000   0.643E+00       0.034     3377.288
     NS sqrt iter    3 1.00000000   0.209E+00       0.034     3377.081
     NS sqrt iter    4 1.00000000   0.278E-01       0.034     3371.694
     NS sqrt iter    5 1.00000000   0.149E-03       0.033     3391.639
     NS sqrt iter    6 1.00000000   0.633E-10       0.024     2413.285
     Symmetrizing Results
     Final NS sqrt iter    6 1.00000000   0.195E-11

     Est. extremal eigenvalues     -0.84108     2.59563  converged:  T
     TRS4 it   1 1.00000000   0.286E+02       0.007     2151.282   0.100E-11
     TRS4 it   2 1.00000000   0.236E+02       0.013     2206.619   0.100E-11
     TRS4 it   3 1.00000000   0.157E+02       0.013     2215.593   0.100E-11
     TRS4 it   4 1.00000000   0.930E+01       0.013     2208.402   0.100E-11
     TRS4 it   5 1.00000000   0.398E+01       0.013     2249.613   0.100E-11
     TRS4 it   6 1.00000000   0.105E+01       0.013     2234.955   0.100E-11
     TRS4 it   7 1.00000000   0.133E+00       0.013     2219.284   0.100E-11
     TRS4 it   8 1.00000000   0.330E-02       0.013     2237.039   0.100E-11
     TRS4 it   9 1.00000000   0.293E-05       0.013     2218.990   0.100E-11
     TRS4 it  10 1.00000000   0.512E-11       0.013     2224.248   0.100E-11
     Final TRS4 iteration   10 1.00000000   0.512E-11
     Chemical potential (mu):       0.05242
 
 PAO| energy:  -189.97587278885717      penalty:   6.8026199119194312E-004
 PAO|LS| adapt:  T F T
 PAO|LS| adapt: scan_steps:    0.0000000000000000        0.0000000000000000       0.56451640625397492     
 PAO|LS| adapt: energies:   -190.91222820003480        0.0000000000000000       -189.97587278885717     
 PAO| ======================= Iteration:         8 =============================

     Lanczos converged:  F threshold:   0.100E-02
     Est. extremal eigenvalues:    0.500E+01   0.126E+00
     Est. condition number :    0.397E+02

 Order=           3
     NS sqrt iter    1 1.00000000   0.128E+01       0.021     2702.789
     NS sqrt iter    2 1.00000000   0.656E+00       0.034     3379.824
     NS sqrt iter    3 1.00000000   0.218E+00       0.034     3380.481
     NS sqrt iter    4 1.00000000   0.312E-01       0.033     3389.579
     NS sqrt iter    5 1.00000000   0.202E-03       0.033     3396.479
     NS sqrt iter    6 1.00000000   0.153E-09       0.027     2599.411
     Symmetrizing Results
     Final NS sqrt iter    6 1.00000000   0.113E-11

     Est. extremal eigenvalues     -0.84217     2.59891  converged:  T
     TRS4 it   1 1.00000000   0.285E+02       0.007     2149.550   0.100E-11
     TRS4 it   2 1.00000000   0.236E+02       0.013     2217.655   0.100E-11
     TRS4 it   3 1.00000000   0.156E+02       0.013     2228.103   0.100E-11
     TRS4 it   4 1.00000000   0.921E+01       0.013     2220.473   0.100E-11
     TRS4 it   5 1.00000000   0.391E+01       0.013     2228.735   0.100E-11
     TRS4 it   6 1.00000000   0.103E+01       0.013     2247.007   0.100E-11
     TRS4 it   7 1.00000000   0.132E+00       0.013     2236.736   0.100E-11
     TRS4 it   8 1.00000000   0.332E-02       0.013     2228.908   0.100E-11
     TRS4 it   9 1.00000000   0.296E-05       0.013     2213.300   0.100E-11
     TRS4 it  10 1.00000000   0.508E-11       0.013     2191.666   0.100E-11
     Final TRS4 iteration   10 1.00000000   0.508E-11
     Chemical potential (mu):       0.05044
 
 PAO| energy:  -191.29438313057318      penalty:   5.1067981982335330E-004
 PAO|LS| adapt:  T T T
 PAO|LS| adapt: scan_steps:    0.0000000000000000       0.28225820312698746       0.56451640625397492     
 PAO|LS| adapt: energies:   -190.91222820003480       -191.29438313057318       -189.97587278885717     
 PAO|LS| adapt: suggested step_size:   0.20455508301303230     
 PAO|LS| adapt: predicted energy  -191.35882566596985     
 PAO| ======================= Iteration:         9 =============================

     Lanczos converged:  F threshold:   0.100E-02
     Est. extremal eigenvalues:    0.502E+01   0.125E+00
     Est. condition number :    0.402E+02

 Order=           3
     NS sqrt iter    1 1.00000000   0.128E+01       0.021     2684.180
     NS sqrt iter    2 1.00000000   0.660E+00       0.033     3384.599
     NS sqrt iter    3 1.00000000   0.220E+00       0.033     3397.776
     NS sqrt iter    4 1.00000000   0.321E-01       0.034     3319.697
     NS sqrt iter    5 1.00000000   0.220E-03       0.033     3386.554
     NS sqrt iter    6 1.00000000   0.194E-09       0.027     2621.608
     Symmetrizing Results
     Final NS sqrt iter    6 1.00000000   0.832E-12

     Est. extremal eigenvalues     -0.84205     2.59965  converged:  T
     TRS4 it   1 1.00000000   0.285E+02       0.007     2170.614   0.100E-11
     TRS4 it   2 1.00000000   0.236E+02       0.013     2216.328   0.100E-11
     TRS4 it   3 1.00000000   0.156E+02       0.013     2206.443   0.100E-11
     TRS4 it   4 1.00000000   0.919E+01       0.013     2230.336   0.100E-11
     TRS4 it   5 1.00000000   0.390E+01       0.013     2235.519   0.100E-11
     TRS4 it   6 1.00000000   0.103E+01       0.013     2208.656   0.100E-11
     TRS4 it   7 1.00000000   0.132E+00       0.013     2239.158   0.100E-11
     TRS4 it   8 1.00000000   0.333E-02       0.013     2220.328   0.100E-11
     TRS4 it   9 1.00000000   0.296E-05       0.013     2240.937   0.100E-11
     TRS4 it  10 1.00000000   0.503E-11       0.013     2225.968   0.100E-11
     Final TRS4 iteration   10 1.00000000   0.503E-11
     Chemical potential (mu):       0.05022
 
 PAO| energy:  -191.36328090079081      penalty:   4.9303435039071606E-004
 PAO|CG| trace_G_new   0.74267517743560796     
 PAO|CG| trace_G_prev    4.4662252724028040     
 PAO|CG| trace_G_mix   -4.3818994482280951E-002
 PAO|CG| trace_D    4.4662252724028040     
 PAO|CG| trace_D_Gnew   4.3818994482280951E-002
 PAO|CG| beta:   0.17609818671210006     
 PAO| norm of gradient:  0.86178603924385311     
 PAO| energy improvement: -0.45105270075600856     
 PAO| step      9                 -191.363280901  0.168E-02  0.205E+00     1.498
 PAO|LS| adapt:  T F F
 PAO|LS| adapt: scan_steps:    0.0000000000000000        0.0000000000000000        0.0000000000000000     
 PAO|LS| adapt: energies:   -191.36328090079081        0.0000000000000000        0.0000000000000000     
 PAO| ======================= Iteration:        10 =============================

     Lanczos converged:  F threshold:   0.100E-02
     Est. extremal eigenvalues:    0.497E+01   0.129E+00
     Est. condition number :    0.386E+02

 Order=           3
     NS sqrt iter    1 1.00000000   0.127E+01       0.021     2711.830
     NS sqrt iter    2 1.00000000   0.651E+00       0.034     3367.686
     NS sqrt iter    3 1.00000000   0.214E+00       0.033     3403.559
     NS sqrt iter    4 1.00000000   0.298E-01       0.034     3372.193
     NS sqrt iter    5 1.00000000   0.175E-03       0.034     3375.584
     NS sqrt iter    6 1.00000000   0.972E-10       0.025     2491.735
     Symmetrizing Results
     Final NS sqrt iter    6 1.00000000   0.165E-11

     Est. extremal eigenvalues     -0.84270     2.58463  converged:  T
     TRS4 it   1 1.00000000   0.285E+02       0.007     2144.636   0.100E-11
     TRS4 it   2 1.00000000   0.235E+02       0.013     2218.063   0.100E-11
     TRS4 it   3 1.00000000   0.156E+02       0.013     2214.878   0.100E-11
     TRS4 it   4 1.00000000   0.917E+01       0.013     2219.163   0.100E-11
     TRS4 it   5 1.00000000   0.388E+01       0.013     2225.034   0.100E-11
     TRS4 it   6 1.00000000   0.101E+01       0.013     2208.378   0.100E-11
     TRS4 it   7 1.00000000   0.128E+00       0.013     2231.683   0.100E-11
     TRS4 it   8 1.00000000   0.314E-02       0.013     2218.052   0.100E-11
     TRS4 it   9 1.00000000   0.266E-05       0.013     2214.847   0.100E-11
     TRS4 it  10 1.00000000   0.421E-11       0.013     2217.619   0.100E-11
     Final TRS4 iteration   10 1.00000000   0.421E-11
     Chemical potential (mu):       0.05105
 
 PAO| energy:  -191.46559902481749      penalty:   4.9569085644057126E-004
 PAO|LS| adapt:  T T F
 PAO|LS| adapt: scan_steps:    0.0000000000000000       0.20455508301303230        0.0000000000000000     
 PAO|LS| adapt: energies:   -191.36328090079081       -191.46559902481749        0.0000000000000000     
 PAO| ======================= Iteration:        11 =============================

     Lanczos converged:  F threshold:   0.100E-02
     Est. extremal eigenvalues:    0.491E+01   0.132E+00
     Est. condition number :    0.371E+02

 Order=           3
     NS sqrt iter    1 1.00000000   0.126E+01       0.021     2657.959
     NS sqrt iter    2 1.00000000   0.642E+00       0.033     3390.021
     NS sqrt iter    3 1.00000000   0.208E+00       0.033     3384.224
     NS sqrt iter    4 1.00000000   0.276E-01       0.034     3377.316
     NS sqrt iter    5 1.00000000   0.139E-03       0.033     3396.731
     NS sqrt iter    6 1.00000000   0.481E-10       0.022     2368.579
     Symmetrizing Results
     Final NS sqrt iter    6 1.00000000   0.218E-11

     Est. extremal eigenvalues     -0.84313     2.56923  converged:  T
     TRS4 it   1 1.00000000   0.285E+02       0.007     2153.783   0.100E-11
     TRS4 it   2 1.00000000   0.234E+02       0.013     2233.326   0.100E-11
     TRS4 it   3 1.00000000   0.156E+02       0.013     2221.170   0.100E-11
     TRS4 it   4 1.00000000   0.914E+01       0.013     2226.190   0.100E-11
     TRS4 it   5 1.00000000   0.385E+01       0.013     2209.887   0.100E-11
     TRS4 it   6 1.00000000   0.100E+01       0.013     2227.055   0.100E-11
     TRS4 it   7 1.00000000   0.124E+00       0.013     2199.755   0.100E-11
     TRS4 it   8 1.00000000   0.294E-02       0.013     2245.362   0.100E-11
     TRS4 it   9 1.00000000   0.237E-05       0.013     2225.592   0.100E-11
     TRS4 it  10 1.00000000   0.340E-11       0.013     2223.709   0.100E-11
     Final TRS4 iteration   10 1.00000000   0.340E-11
     Chemical potential (mu):       0.05195
 
 PAO| energy:  -191.47451978856043      penalty:   5.0831724946260226E-004
 PAO|LS| adapt:  T T F
 PAO|LS| adapt: scan_steps:    0.0000000000000000       0.40911016602606459        0.0000000000000000     
 PAO|LS| adapt: energies:   -191.36328090079081       -191.47451978856043        0.0000000000000000     
 PAO| ======================= Iteration:        12 =============================

     Lanczos converged:  F threshold:   0.100E-02
     Est. extremal eigenvalues:    0.480E+01   0.140E+00
     Est. condition number :    0.344E+02

 Order=           3
     NS sqrt iter    1 1.00000000   0.124E+01       0.021     2699.100
     NS sqrt iter    2 1.00000000   0.625E+00       0.033     3389.280
     NS sqrt iter    3 1.00000000   0.197E+00       0.034     3369.110
     NS sqrt iter    4 1.00000000   0.236E-01       0.034     3370.413
     NS sqrt iter    5 1.00000000   0.869E-04       0.034     3375.531
     NS sqrt iter    6 1.00000000   0.113E-10       0.015     2142.171
     Symmetrizing Results
     Final NS sqrt iter    6 1.00000000   0.186E-11

     Est. extremal eigenvalues     -0.84333     2.53837  converged:  T
     TRS4 it   1 1.00000000   0.284E+02       0.007     2174.727   0.100E-11
     TRS4 it   2 1.00000000   0.232E+02       0.013     2209.304   0.100E-11
     TRS4 it   3 1.00000000   0.156E+02       0.013     2221.579   0.100E-11
     TRS4 it   4 1.00000000   0.908E+01       0.013     2219.651   0.100E-11
     TRS4 it   5 1.00000000   0.379E+01       0.013     2219.661   0.100E-11
     TRS4 it   6 1.00000000   0.965E+00       0.013     2217.257   0.100E-11
     TRS4 it   7 1.00000000   0.115E+00       0.013     2236.901   0.100E-11
     TRS4 it   8 1.00000000   0.254E-02       0.013     2205.682   0.100E-11
     TRS4 it   9 1.00000000   0.182E-05       0.013     2196.229   0.100E-11
     TRS4 it  10 1.00000000   0.211E-11       0.013     2226.616   0.100E-11
     Final TRS4 iteration   10 1.00000000   0.211E-11
     Chemical potential (mu):       0.05391
 
 PAO| energy:  -191.22870378446626      penalty:   5.7055644243441989E-004
 PAO|LS| Need extra step
 PAO|LS| adapt:  T T T
 PAO|LS| adapt: scan_steps:    0.0000000000000000       0.40911016602606459       0.81822033205212918     
 PAO|LS| adapt: energies:   -191.36328090079081       -191.47451978856043       -191.22870378446626     
 PAO|LS| adapt: suggested step_size:   0.33201156346182631     
 PAO|LS| adapt: predicted energy  -191.48086020030485     
 PAO| ======================= Iteration:        13 =============================

     Lanczos converged:  F threshold:   0.100E-02
     Est. extremal eigenvalues:    0.493E+01   0.131E+00
     Est. condition number :    0.377E+02

 Order=           3
     NS sqrt iter    1 1.00000000   0.127E+01       0.021     2714.288
     NS sqrt iter    2 1.00000000   0.646E+00       0.033     3384.944
     NS sqrt iter    3 1.00000000   0.210E+00       0.034     3378.334
     NS sqrt iter    4 1.00000000   0.284E-01       0.033     3384.013
     NS sqrt iter    5 1.00000000   0.152E-03       0.033     3388.383
     NS sqrt iter    6 1.00000000   0.628E-10       0.023     2400.046
     Symmetrizing Results
     Final NS sqrt iter    6 1.00000000   0.201E-11

     Est. extremal eigenvalues     -0.84299     2.57506  converged:  T
     TRS4 it   1 1.00000000   0.285E+02       0.007     2133.370   0.100E-11
     TRS4 it   2 1.00000000   0.234E+02       0.013     2206.385   0.100E-11
     TRS4 it   3 1.00000000   0.156E+02       0.013     2196.402   0.100E-11
     TRS4 it   4 1.00000000   0.915E+01       0.013     2236.807   0.100E-11
     TRS4 it   5 1.00000000   0.386E+01       0.013     2215.671   0.100E-11
     TRS4 it   6 1.00000000   0.101E+01       0.013     2222.566   0.100E-11
     TRS4 it   7 1.00000000   0.125E+00       0.013     2207.003   0.100E-11
     TRS4 it   8 1.00000000   0.301E-02       0.013     2195.690   0.100E-11
     TRS4 it   9 1.00000000   0.248E-05       0.013     2201.419   0.100E-11
     TRS4 it  10 1.00000000   0.367E-11       0.013     2233.024   0.100E-11
     Final TRS4 iteration   10 1.00000000   0.367E-11
     Chemical potential (mu):       0.05160
 
 PAO| energy:  -191.48186715755517      penalty:   5.0230604303798355E-004
 PAO|CG| trace_G_new   0.28381522618683985     
 PAO|CG| trace_G_prev   0.74267517743560796     
 PAO|CG| trace_G_mix   -1.2245921235540188E-002
 PAO|CG| trace_D   0.86574248402622844     
 PAO|CG| trace_D_Gnew   1.2061269122491929E-002
 PAO|CG| beta:   0.39864150091114281     
 PAO| norm of gradient:  0.53274311463109481     
 PAO| energy improvement: -0.11858625676435963     
 PAO| step     13                 -191.481867158  0.104E-02  0.332E+00     1.928
 PAO|LS| adapt:  T F F
 PAO|LS| adapt: scan_steps:    0.0000000000000000        0.0000000000000000        0.0000000000000000     
 PAO|LS| adapt: energies:   -191.48186715755517        0.0000000000000000        0.0000000000000000     
 PAO| ======================= Iteration:        14 =============================

     Lanczos converged:  F threshold:   0.100E-02
     Est. extremal eigenvalues:    0.485E+01   0.134E+00
     Est. condition number :    0.363E+02

 Order=           3
     NS sqrt iter    1 1.00000000   0.125E+01       0.021     2697.630
     NS sqrt iter    2 1.00000000   0.634E+00       0.034     3373.326
     NS sqrt iter    3 1.00000000   0.204E+00       0.034     3378.846
     NS sqrt iter    4 1.00000000   0.261E-01       0.033     3391.691
     NS sqrt iter    5 1.00000000   0.120E-03       0.033     3385.244
     NS sqrt iter    6 1.00000000   0.311E-10       0.020     2248.284
     Symmetrizing Results
     Final NS sqrt iter    6 1.00000000   0.218E-11

     Est. extremal eigenvalues     -0.84357     2.56851  converged:  T
     TRS4 it   1 1.00000000   0.285E+02       0.007     2145.836   0.100E-11
     TRS4 it   2 1.00000000   0.234E+02       0.013     2215.614   0.100E-11
     TRS4 it   3 1.00000000   0.156E+02       0.013     2234.909   0.100E-11
     TRS4 it   4 1.00000000   0.910E+01       0.013     2220.527   0.100E-11
     TRS4 it   5 1.00000000   0.380E+01       0.013     2229.180   0.100E-11
     TRS4 it   6 1.00000000   0.974E+00       0.013     2205.698   0.100E-11
     TRS4 it   7 1.00000000   0.118E+00       0.013     2221.718   0.100E-11
     TRS4 it   8 1.00000000   0.266E-02       0.013     2228.232   0.100E-11
     TRS4 it   9 1.00000000   0.196E-05       0.013     2231.508   0.100E-11
     TRS4 it  10 1.00000000   0.235E-11       0.013     2229.529   0.100E-11
     Final TRS4 iteration   10 1.00000000   0.235E-11
     Chemical potential (mu):       0.05346
 
 PAO| energy:  -191.53550603855419      penalty:   5.0503964164461850E-004
 PAO|LS| adapt:  T T F
 PAO|LS| adapt: scan_steps:    0.0000000000000000       0.33201156346182631        0.0000000000000000     
 PAO|LS| adapt: energies:   -191.48186715755517       -191.53550603855419        0.0000000000000000     
 PAO| ======================= Iteration:        15 =============================

     Lanczos converged:  F threshold:   0.100E-02
     Est. extremal eigenvalues:    0.477E+01   0.136E+00
     Est. condition number :    0.350E+02

 Order=           3
     NS sqrt iter    1 1.00000000   0.123E+01       0.021     2700.240
     NS sqrt iter    2 1.00000000   0.622E+00       0.033     3388.498
     NS sqrt iter    3 1.00000000   0.197E+00       0.033     3383.395
     NS sqrt iter    4 1.00000000   0.240E-01       0.034     3343.795
     NS sqrt iter    5 1.00000000   0.950E-04       0.034     3361.975
     NS sqrt iter    6 1.00000000   0.155E-10       0.017     2158.936
     Symmetrizing Results
     Final NS sqrt iter    6 1.00000000   0.201E-11

     Est. extremal eigenvalues     -0.84379     2.56129  converged:  T
     TRS4 it   1 1.00000000   0.285E+02       0.007     2143.137   0.100E-11
     TRS4 it   2 1.00000000   0.234E+02       0.013     2205.381   0.100E-11
     TRS4 it   3 1.00000000   0.155E+02       0.013     2237.125   0.100E-11
     TRS4 it   4 1.00000000   0.904E+01       0.013     2217.428   0.100E-11
     TRS4 it   5 1.00000000   0.374E+01       0.013     2205.491   0.100E-11
     TRS4 it   6 1.00000000   0.944E+00       0.013     2219.833   0.100E-11
     TRS4 it   7 1.00000000   0.111E+00       0.013     2222.940   0.100E-11
     TRS4 it   8 1.00000000   0.234E-02       0.013     2216.028   0.100E-11
     TRS4 it   9 1.00000000   0.155E-05       0.013     2228.665   0.100E-11
     TRS4 it  10 1.00000000   0.152E-11       0.013     2215.493   0.100E-11
     Final TRS4 iteration   10 1.00000000   0.152E-11
     Chemical potential (mu):       0.05522
 
 PAO| energy:  -191.51237154686604      penalty:   5.2340220901215498E-004
 PAO|LS| adapt:  T T T
 PAO|LS| adapt: scan_steps:    0.0000000000000000       0.33201156346182631       0.66402312692365262     
 PAO|LS| adapt: energies:   -191.48186715755517       -191.53550603855419       -191.51237154686604     
 PAO|LS| adapt: suggested step_size:   0.39797069507908484     
 PAO|LS| adapt: predicted energy  -191.53702107842847     
 PAO| ======================= Iteration:        16 =============================

     Lanczos converged:  F threshold:   0.100E-02
     Est. extremal eigenvalues:    0.484E+01   0.134E+00
     Est. condition number :    0.361E+02

 Order=           3
     NS sqrt iter    1 1.00000000   0.124E+01       0.021     2702.347
     NS sqrt iter    2 1.00000000   0.631E+00       0.034     3368.475
     NS sqrt iter    3 1.00000000   0.202E+00       0.034     3368.208
     NS sqrt iter    4 1.00000000   0.256E-01       0.034     3376.376
     NS sqrt iter    5 1.00000000   0.114E-03       0.033     3384.826
     NS sqrt iter    6 1.00000000   0.271E-10       0.019     2231.531
     Symmetrizing Results
     Final NS sqrt iter    6 1.00000000   0.224E-11

     Est. extremal eigenvalues     -0.84365     2.56713  converged:  T
     TRS4 it   1 1.00000000   0.285E+02       0.007     2137.308   0.100E-11
     TRS4 it   2 1.00000000   0.234E+02       0.013     2219.659   0.100E-11
     TRS4 it   3 1.00000000   0.156E+02       0.013     2202.337   0.100E-11
     TRS4 it   4 1.00000000   0.908E+01       0.013     2203.191   0.100E-11
     TRS4 it   5 1.00000000   0.379E+01       0.013     2203.454   0.100E-11
     TRS4 it   6 1.00000000   0.968E+00       0.013     2224.975   0.100E-11
     TRS4 it   7 1.00000000   0.116E+00       0.013     2216.598   0.100E-11
     TRS4 it   8 1.00000000   0.259E-02       0.013     2181.263   0.100E-11
     TRS4 it   9 1.00000000   0.187E-05       0.013     2202.424   0.100E-11
     TRS4 it  10 1.00000000   0.216E-11       0.013     2234.316   0.100E-11
     Final TRS4 iteration   10 1.00000000   0.216E-11
     Chemical potential (mu):       0.05382
 
 PAO| energy:  -191.53696226158817      penalty:   5.0739244280747955E-004
 PAO|CG| trace_G_new   0.10542064124502962     
 PAO|CG| trace_G_prev   0.28381522618683985     
 PAO|CG| trace_G_mix    4.6056703077605871E-003
 PAO|CG| trace_D   0.41177848822355573     
 PAO|CG| trace_D_Gnew   8.2043387354535766E-004
 PAO|CG| beta:   0.35521339813848118     
 PAO| norm of gradient:  0.32468544969713320     
 PAO| energy improvement:  -5.5095104033000553E-002
 PAO| step     16                 -191.536962262  0.634E-03  0.398E+00     1.478
 PAO|LS| adapt:  T F F
 PAO|LS| adapt: scan_steps:    0.0000000000000000        0.0000000000000000        0.0000000000000000     
 PAO|LS| adapt: energies:   -191.53696226158817        0.0000000000000000        0.0000000000000000     
 PAO| ======================= Iteration:        17 =============================

     Lanczos converged:  F threshold:   0.100E-02
     Est. extremal eigenvalues:    0.479E+01   0.135E+00
     Est. condition number :    0.355E+02

 Order=           3
     NS sqrt iter    1 1.00000000   0.123E+01       0.021     2698.474
     NS sqrt iter    2 1.00000000   0.626E+00       0.034     3379.622
     NS sqrt iter    3 1.00000000   0.200E+00       0.033     3386.457
     NS sqrt iter    4 1.00000000   0.247E-01       0.033     3384.806
     NS sqrt iter    5 1.00000000   0.103E-03       0.033     3383.895
     NS sqrt iter    6 1.00000000   0.200E-10       0.018     2184.398
     Symmetrizing Results
     Final NS sqrt iter    6 1.00000000   0.213E-11

     Est. extremal eigenvalues     -0.84379     2.56368  converged:  T
     TRS4 it   1 1.00000000   0.285E+02       0.007     2159.641   0.100E-11
     TRS4 it   2 1.00000000   0.234E+02       0.013     2227.313   0.100E-11
     TRS4 it   3 1.00000000   0.155E+02       0.013     2212.992   0.100E-11
     TRS4 it   4 1.00000000   0.904E+01       0.013     2218.640   0.100E-11
     TRS4 it   5 1.00000000   0.375E+01       0.013     2203.578   0.100E-11
     TRS4 it   6 1.00000000   0.948E+00       0.013     2220.151   0.100E-11
     TRS4 it   7 1.00000000   0.112E+00       0.013     2178.321   0.100E-11
     TRS4 it   8 1.00000000   0.239E-02       0.013     2227.967   0.100E-11
     TRS4 it   9 1.00000000   0.160E-05       0.013     2223.214   0.100E-11
     TRS4 it  10 1.00000000   0.161E-11       0.013     2223.117   0.100E-11
     Final TRS4 iteration   10 1.00000000   0.161E-11
     Chemical potential (mu):       0.05490
 
 PAO| energy:  -191.54071995894299      penalty:   5.0032526581334034E-004
 PAO|LS| adapt:  T T F
 PAO|LS| adapt: scan_steps:    0.0000000000000000       0.39797069507908484        0.0000000000000000     
 PAO|LS| adapt: energies:   -191.53696226158817       -191.54071995894299        0.0000000000000000     
 PAO| ======================= Iteration:        18 =============================

     Lanczos converged:  F threshold:   0.100E-02
     Est. extremal eigenvalues:    0.475E+01   0.136E+00
     Est. condition number :    0.349E+02

 Order=           3
     NS sqrt iter    1 1.00000000   0.122E+01       0.021     2681.061
     NS sqrt iter    2 1.00000000   0.621E+00       0.033     3381.066
     NS sqrt iter    3 1.00000000   0.197E+00       0.034     3359.743
     NS sqrt iter    4 1.00000000   0.239E-01       0.034     3376.124
     NS sqrt iter    5 1.00000000   0.935E-04       0.033     3387.288
     NS sqrt iter    6 1.00000000   0.149E-10       0.016     2163.167
     Symmetrizing Results
     Final NS sqrt iter    6 1.00000000   0.197E-11

     Est. extremal eigenvalues     -0.84378     2.56004  converged:  T
     TRS4 it   1 1.00000000   0.286E+02       0.007     2164.127   0.100E-11
     TRS4 it   2 1.00000000   0.233E+02       0.013     2224.721   0.100E-11
     TRS4 it   3 1.00000000   0.155E+02       0.013     2213.770   0.100E-11
     TRS4 it   4 1.00000000   0.899E+01       0.013     2215.571   0.100E-11
     TRS4 it   5 1.00000000   0.370E+01       0.013     2208.635   0.100E-11
     TRS4 it   6 1.00000000   0.928E+00       0.013     2205.371   0.100E-11
     TRS4 it   7 1.00000000   0.108E+00       0.013     2220.508   0.100E-11
     TRS4 it   8 1.00000000   0.221E-02       0.013     2210.785   0.100E-11
     TRS4 it   9 1.00000000   0.138E-05       0.013     2202.893   0.100E-11
     TRS4 it  10 1.00000000   0.121E-11       0.013     2229.072   0.100E-11
     Final TRS4 iteration   10 1.00000000   0.121E-11
     Chemical potential (mu):       0.05605
 
 PAO| energy:  -191.46808195620773      penalty:   5.0085202342922068E-004
 PAO|LS| adapt:  T T T
 PAO|LS| adapt: scan_steps:    0.0000000000000000       0.39797069507908484       0.79594139015816967     
 PAO|LS| adapt: energies:   -191.53696226158817       -191.54071995894299       -191.46808195620773     
 PAO|LS| adapt: suggested step_size:   0.21856044700756219     
 PAO|LS| adapt: predicted energy  -191.54848298824913     
 PAO| ======================= Iteration:        19 =============================

     Lanczos converged:  F threshold:   0.100E-02
     Est. extremal eigenvalues:    0.481E+01   0.135E+00
     Est. condition number :    0.357E+02

 Order=           3
     NS sqrt iter    1 1.00000000   0.124E+01       0.021     2724.281
     NS sqrt iter    2 1.00000000   0.628E+00       0.033     3391.650
     NS sqrt iter    3 1.00000000   0.201E+00       0.034     3377.248
     NS sqrt iter    4 1.00000000   0.251E-01       0.033     3385.678
     NS sqrt iter    5 1.00000000   0.108E-03       0.033     3390.758
     NS sqrt iter    6 1.00000000   0.229E-10       0.018     2194.446
     Symmetrizing Results
     Final NS sqrt iter    6 1.00000000   0.212E-11

     Est. extremal eigenvalues     -0.84374     2.56526  converged:  T
     TRS4 it   1 1.00000000   0.285E+02       0.007     2119.992   0.100E-11
     TRS4 it   2 1.00000000   0.234E+02       0.013     2218.386   0.100E-11
     TRS4 it   3 1.00000000   0.156E+02       0.013     2229.210   0.100E-11
     TRS4 it   4 1.00000000   0.906E+01       0.013     2201.119   0.100E-11
     TRS4 it   5 1.00000000   0.377E+01       0.013     2190.412   0.100E-11
     TRS4 it   6 1.00000000   0.957E+00       0.013     2220.908   0.100E-11
     TRS4 it   7 1.00000000   0.114E+00       0.013     2220.586   0.100E-11
     TRS4 it   8 1.00000000   0.248E-02       0.013     2217.741   0.100E-11
     TRS4 it   9 1.00000000   0.172E-05       0.013     2217.743   0.100E-11
     TRS4 it  10 1.00000000   0.184E-11       0.013     2251.353   0.100E-11
     Final TRS4 iteration   10 1.00000000   0.184E-11
     Chemical potential (mu):       0.05441
 
 PAO| energy:  -191.54846338296008      penalty:   5.0258653685571327E-004
 PAO|CG| trace_G_new    2.1363649297132529E-002
 PAO|CG| trace_G_prev   0.10542064124502962     
 PAO|CG| trace_G_mix   -3.0232879423406592E-004
 PAO|CG| trace_D   0.15679457542857331     
 PAO|CG| trace_D_Gnew  -6.0154636242839752E-005
 PAO|CG| beta:   0.20551931609871613     
 PAO| norm of gradient:  0.14616309143259296     
 PAO| energy improvement:  -1.1501121371907175E-002
 PAO| step     19                 -191.548463383  0.285E-03  0.219E+00     1.473
 PAO|LS| adapt:  T F F
 PAO|LS| adapt: scan_steps:    0.0000000000000000        0.0000000000000000        0.0000000000000000     
 PAO|LS| adapt: energies:   -191.54846338296008        0.0000000000000000        0.0000000000000000     
 PAO| ======================= Iteration:        20 =============================

     Lanczos converged:  F threshold:   0.100E-02
     Est. extremal eigenvalues:    0.480E+01   0.135E+00
     Est. condition number :    0.357E+02

 Order=           3
     NS sqrt iter    1 1.00000000   0.124E+01       0.021     2705.754
     NS sqrt iter    2 1.00000000   0.628E+00       0.033     3383.444
     NS sqrt iter    3 1.00000000   0.201E+00       0.034     3376.807
     NS sqrt iter    4 1.00000000   0.251E-01       0.033     3392.973
     NS sqrt iter    5 1.00000000   0.107E-03       0.033     3387.673
     NS sqrt iter    6 1.00000000   0.224E-10       0.018     2224.386
     Symmetrizing Results
     Final NS sqrt iter    6 1.00000000   0.214E-11

     Est. extremal eigenvalues     -0.84377     2.56385  converged:  T
     TRS4 it   1 1.00000000   0.285E+02       0.007     2148.392   0.100E-11
     TRS4 it   2 1.00000000   0.234E+02       0.013     2238.126   0.100E-11
     TRS4 it   3 1.00000000   0.155E+02       0.013     2217.423   0.100E-11
     TRS4 it   4 1.00000000   0.905E+01       0.013     2214.294   0.100E-11
     TRS4 it   5 1.00000000   0.376E+01       0.013     2240.935   0.100E-11
     TRS4 it   6 1.00000000   0.953E+00       0.013     2215.771   0.100E-11
     TRS4 it   7 1.00000000   0.113E+00       0.013     2219.490   0.100E-11
     TRS4 it   8 1.00000000   0.244E-02       0.013     2232.571   0.100E-11
     TRS4 it   9 1.00000000   0.167E-05       0.013     2230.074   0.100E-11
     TRS4 it  10 1.00000000   0.174E-11       0.013     2208.800   0.100E-11
     Final TRS4 iteration   10 1.00000000   0.174E-11
     Chemical potential (mu):       0.05460
 
 PAO| energy:  -191.55223342024081      penalty:   4.9306610781571438E-004
 PAO|LS| adapt:  T T F
 PAO|LS| adapt: scan_steps:    0.0000000000000000       0.21856044700756219        0.0000000000000000     
 PAO|LS| adapt: energies:   -191.54846338296008       -191.55223342024081        0.0000000000000000     
 PAO| ======================= Iteration:        21 =============================

     Lanczos converged:  F threshold:   0.100E-02
     Est. extremal eigenvalues:    0.480E+01   0.135E+00
     Est. condition number :    0.356E+02

 Order=           3
     NS sqrt iter    1 1.00000000   0.124E+01       0.021     2704.089
     NS sqrt iter    2 1.00000000   0.627E+00       0.033     3391.469
     NS sqrt iter    3 1.00000000   0.200E+00       0.034     3370.378
     NS sqrt iter    4 1.00000000   0.251E-01       0.034     3364.362
     NS sqrt iter    5 1.00000000   0.107E-03       0.034     3358.500
     NS sqrt iter    6 1.00000000   0.219E-10       0.018     2195.934
     Symmetrizing Results
     Final NS sqrt iter    6 1.00000000   0.212E-11

     Est. extremal eigenvalues     -0.84379     2.56242  converged:  T
     TRS4 it   1 1.00000000   0.285E+02       0.007     2134.070   0.100E-11
     TRS4 it   2 1.00000000   0.233E+02       0.013     2228.340   0.100E-11
     TRS4 it   3 1.00000000   0.155E+02       0.013     2227.814   0.100E-11
     TRS4 it   4 1.00000000   0.904E+01       0.013     2224.723   0.100E-11
     TRS4 it   5 1.00000000   0.375E+01       0.013     2206.696   0.100E-11
     TRS4 it   6 1.00000000   0.948E+00       0.013     2227.390   0.100E-11
     TRS4 it   7 1.00000000   0.112E+00       0.013     2207.794   0.100E-11
     TRS4 it   8 1.00000000   0.240E-02       0.013     2211.556   0.100E-11
     TRS4 it   9 1.00000000   0.162E-05       0.013     2217.985   0.100E-11
     TRS4 it  10 1.00000000   0.164E-11       0.013     2206.248   0.100E-11
     Final TRS4 iteration   10 1.00000000   0.164E-11
     Chemical potential (mu):       0.05479
 
 PAO| energy:  -191.55418647610585      penalty:   4.8396148206139789E-004
 PAO|LS| adapt:  T T F
 PAO|LS| adapt: scan_steps:    0.0000000000000000       0.43712089401512438        0.0000000000000000     
 PAO|LS| adapt: energies:   -191.54846338296008       -191.55418647610585        0.0000000000000000     
 PAO| ======================= Iteration:        22 =============================

     Lanczos converged:  F threshold:   0.100E-02
     Est. extremal eigenvalues:    0.478E+01   0.135E+00
     Est. condition number :    0.355E+02

 Order=           3
     NS sqrt iter    1 1.00000000   0.123E+01       0.021     2691.663
     NS sqrt iter    2 1.00000000   0.626E+00       0.034     3379.464
     NS sqrt iter    3 1.00000000   0.200E+00       0.033     3392.471
     NS sqrt iter    4 1.00000000   0.250E-01       0.034     3364.215
     NS sqrt iter    5 1.00000000   0.106E-03       0.033     3404.205
     NS sqrt iter    6 1.00000000   0.210E-10       0.018     2183.236
     Symmetrizing Results
     Final NS sqrt iter    6 1.00000000   0.215E-11

     Est. extremal eigenvalues     -0.84382     2.55952  converged:  T
     TRS4 it   1 1.00000000   0.285E+02       0.007     2143.044   0.100E-11
     TRS4 it   2 1.00000000   0.233E+02       0.013     2237.770   0.100E-11
     TRS4 it   3 1.00000000   0.155E+02       0.013     2213.476   0.100E-11
     TRS4 it   4 1.00000000   0.901E+01       0.014     2006.769   0.100E-11
     TRS4 it   5 1.00000000   0.373E+01       0.016     1813.635   0.100E-11
     TRS4 it   6 1.00000000   0.940E+00       0.016     1810.037   0.100E-11
     TRS4 it   7 1.00000000   0.110E+00       0.016     1816.857   0.100E-11
     TRS4 it   8 1.00000000   0.233E-02       0.016     1826.671   0.100E-11
     TRS4 it   9 1.00000000   0.152E-05       0.016     1798.521   0.100E-11
     TRS4 it  10 1.00000000   0.147E-11       0.016     1803.427   0.100E-11
     Final TRS4 iteration   10 1.00000000   0.147E-11
     Chemical potential (mu):       0.05519
 
 PAO| energy:  -191.55256208023081      penalty:   4.6697382105314087E-004
 PAO|LS| Need extra step
 PAO|LS| adapt:  T T T
 PAO|LS| adapt: scan_steps:    0.0000000000000000       0.43712089401512438       0.87424178803024877     
 PAO|LS| adapt: energies:   -191.54846338296008       -191.55418647610585       -191.55256208023081     
 PAO|LS| adapt: suggested step_size:   0.55904188023265744     
 PAO|LS| adapt: predicted energy  -191.55447227645325     
 PAO| ======================= Iteration:        23 =============================

     Lanczos converged:  F threshold:   0.100E-02
     Est. extremal eigenvalues:    0.479E+01   0.135E+00
     Est. condition number :    0.356E+02

 Order=           3
     NS sqrt iter    1 1.00000000   0.123E+01       0.023     2461.463
     NS sqrt iter    2 1.00000000   0.627E+00       0.034     3362.276
     NS sqrt iter    3 1.00000000   0.200E+00       0.034     3374.205
     NS sqrt iter    4 1.00000000   0.251E-01       0.034     3366.987
     NS sqrt iter    5 1.00000000   0.106E-03       0.034     3378.488
     NS sqrt iter    6 1.00000000   0.217E-10       0.018     2183.171
     Symmetrizing Results
     Final NS sqrt iter    6 1.00000000   0.213E-11

     Est. extremal eigenvalues     -0.84380     2.56162  converged:  T
     TRS4 it   1 1.00000000   0.285E+02       0.007     2130.029   0.100E-11
     TRS4 it   2 1.00000000   0.233E+02       0.013     2218.810   0.100E-11
     TRS4 it   3 1.00000000   0.155E+02       0.013     2235.584   0.100E-11
     TRS4 it   4 1.00000000   0.903E+01       0.013     2200.743   0.100E-11
     TRS4 it   5 1.00000000   0.374E+01       0.013     2203.793   0.100E-11
     TRS4 it   6 1.00000000   0.946E+00       0.013     2197.910   0.100E-11
     TRS4 it   7 1.00000000   0.112E+00       0.013     2194.024   0.100E-11
     TRS4 it   8 1.00000000   0.238E-02       0.013     2247.792   0.100E-11
     TRS4 it   9 1.00000000   0.159E-05       0.013     2196.564   0.100E-11
     TRS4 it  10 1.00000000   0.161E-11       0.013     2223.113   0.100E-11
     Final TRS4 iteration   10 1.00000000   0.161E-11
     Chemical potential (mu):       0.05491
 
 PAO| energy:  -191.55447911890485      penalty:   4.7906066717780395E-004
 PAO|CG| trace_G_new    1.5699675336539837E-002
 PAO|CG| trace_G_prev    2.1363649297132529E-002
 PAO|CG| trace_G_mix    1.1016362489174619E-004
 PAO|CG| trace_D    2.8011094133081831E-002
 PAO|CG| trace_D_Gnew  -4.6713082919605682E-005
 PAO|CG| beta:   0.72972138302890721     
 PAO| norm of gradient:  0.12529834530647177     
 PAO| energy improvement:  -6.0157359447714498E-003
 PAO| step     23                 -191.554479119  0.245E-03  0.559E+00     1.965
 PAO|LS| adapt:  T F F
 PAO|LS| adapt: scan_steps:    0.0000000000000000        0.0000000000000000        0.0000000000000000     
 PAO|LS| adapt: energies:   -191.55447911890485        0.0000000000000000        0.0000000000000000     
 PAO| ======================= Iteration:        24 =============================

     Lanczos converged:  F threshold:   0.100E-02
     Est. extremal eigenvalues:    0.478E+01   0.134E+00
     Est. condition number :    0.355E+02

 Order=           3
     NS sqrt iter    1 1.00000000   0.123E+01       0.021     2713.608
     NS sqrt iter    2 1.00000000   0.625E+00       0.034     3376.915
     NS sqrt iter    3 1.00000000   0.200E+00       0.034     3340.639
     NS sqrt iter    4 1.00000000   0.249E-01       0.034     3365.581
     NS sqrt iter    5 1.00000000   0.105E-03       0.034     3375.139
     NS sqrt iter    6 1.00000000   0.210E-10       0.018     2202.289
     Symmetrizing Results
     Final NS sqrt iter    6 1.00000000   0.212E-11

     Est. extremal eigenvalues     -0.84383     2.55853  converged:  T
     TRS4 it   1 1.00000000   0.285E+02       0.007     2117.538   0.100E-11
     TRS4 it   2 1.00000000   0.233E+02       0.013     2210.683   0.100E-11
     TRS4 it   3 1.00000000   0.155E+02       0.013     2232.569   0.100E-11
     TRS4 it   4 1.00000000   0.900E+01       0.013     2208.968   0.100E-11
     TRS4 it   5 1.00000000   0.372E+01       0.013     2233.496   0.100E-11
     TRS4 it   6 1.00000000   0.937E+00       0.013     2219.467   0.100E-11
     TRS4 it   7 1.00000000   0.110E+00       0.013     2202.719   0.100E-11
     TRS4 it   8 1.00000000   0.230E-02       0.013     2201.007   0.100E-11
     TRS4 it   9 1.00000000   0.149E-05       0.013     2219.036   0.100E-11
     TRS4 it  10 1.00000000   0.144E-11       0.013     2221.940   0.100E-11
     Final TRS4 iteration   10 1.00000000   0.144E-11
     Chemical potential (mu):       0.05531
 
 PAO| energy:  -191.55743645920325      penalty:   4.4288934572864083E-004
 PAO|LS| adapt:  T T F
 PAO|LS| adapt: scan_steps:    0.0000000000000000       0.55904188023265744        0.0000000000000000     
 PAO|LS| adapt: energies:   -191.55447911890485       -191.55743645920325        0.0000000000000000     
 PAO| ======================= Iteration:        25 =============================

     Lanczos converged:  F threshold:   0.100E-02
     Est. extremal eigenvalues:    0.476E+01   0.134E+00
     Est. condition number :    0.355E+02

 Order=           3
     NS sqrt iter    1 1.00000000   0.122E+01       0.021     2702.891
     NS sqrt iter    2 1.00000000   0.623E+00       0.034     3368.234
     NS sqrt iter    3 1.00000000   0.199E+00       0.033     3385.608
     NS sqrt iter    4 1.00000000   0.249E-01       0.034     3338.508
     NS sqrt iter    5 1.00000000   0.104E-03       0.034     3378.574
     NS sqrt iter    6 1.00000000   0.204E-10       0.018     2195.303
     Symmetrizing Results
     Final NS sqrt iter    6 1.00000000   0.212E-11

     Est. extremal eigenvalues     -0.84383     2.55525  converged:  T
     TRS4 it   1 1.00000000   0.285E+02       0.007     2138.538   0.100E-11
     TRS4 it   2 1.00000000   0.233E+02       0.013     2203.210   0.100E-11
     TRS4 it   3 1.00000000   0.155E+02       0.013     2193.909   0.100E-11
     TRS4 it   4 1.00000000   0.898E+01       0.013     2203.587   0.100E-11
     TRS4 it   5 1.00000000   0.370E+01       0.013     2195.761   0.100E-11
     TRS4 it   6 1.00000000   0.928E+00       0.013     2215.656   0.100E-11
     TRS4 it   7 1.00000000   0.108E+00       0.013     2201.410   0.100E-11
     TRS4 it   8 1.00000000   0.222E-02       0.013     2208.087   0.100E-11
     TRS4 it   9 1.00000000   0.140E-05       0.013     2185.684   0.100E-11
     TRS4 it  10 1.00000000   0.124E-11       0.013     2228.590   0.100E-11
     Final TRS4 iteration   10 1.00000000   0.124E-11
     Chemical potential (mu):       0.05573
 
 PAO| energy:  -191.54853147888639      penalty:   4.1036709141244648E-004
 PAO|LS| adapt:  T T T
 PAO|LS| adapt: scan_steps:    0.0000000000000000       0.55904188023265744        1.1180837604653149     
 PAO|LS| adapt: energies:   -191.55447911890485       -191.55743645920325       -191.54853147888639     
 PAO|LS| adapt: suggested step_size:   0.41889308613441967     
 PAO|LS| adapt: predicted energy  -191.55780921954812     
 PAO| ======================= Iteration:        26 =============================

     Lanczos converged:  F threshold:   0.100E-02
     Est. extremal eigenvalues:    0.478E+01   0.134E+00
     Est. condition number :    0.355E+02

 Order=           3
     NS sqrt iter    1 1.00000000   0.123E+01       0.021     2700.938
     NS sqrt iter    2 1.00000000   0.625E+00       0.033     3398.643
     NS sqrt iter    3 1.00000000   0.200E+00       0.034     3358.074
     NS sqrt iter    4 1.00000000   0.250E-01       0.034     3376.203
     NS sqrt iter    5 1.00000000   0.106E-03       0.033     3389.627
     NS sqrt iter    6 1.00000000   0.211E-10       0.018     2204.310
     Symmetrizing Results
     Final NS sqrt iter    6 1.00000000   0.212E-11

     Est. extremal eigenvalues     -0.84383     2.55932  converged:  T
     TRS4 it   1 1.00000000   0.285E+02       0.007     2106.597   0.100E-11
     TRS4 it   2 1.00000000   0.233E+02       0.013     2196.024   0.100E-11
     TRS4 it   3 1.00000000   0.155E+02       0.013     2213.445   0.100E-11
     TRS4 it   4 1.00000000   0.901E+01       0.013     2203.220   0.100E-11
     TRS4 it   5 1.00000000   0.373E+01       0.013     2210.671   0.100E-11
     TRS4 it   6 1.00000000   0.939E+00       0.013     2218.108   0.100E-11
     TRS4 it   7 1.00000000   0.110E+00       0.013     2225.871   0.100E-11
     TRS4 it   8 1.00000000   0.232E-02       0.013     2215.124   0.100E-11
     TRS4 it   9 1.00000000   0.152E-05       0.013     2205.809   0.100E-11
     TRS4 it  10 1.00000000   0.146E-11       0.013     2214.247   0.100E-11
     Final TRS4 iteration   10 1.00000000   0.146E-11
     Chemical potential (mu):       0.05521
 
 PAO| energy:  -191.55779825432700      penalty:   4.5160833499351810E-004
 PAO|CG| trace_G_new    1.1778402698614262E-002
 PAO|CG| trace_G_prev    1.5699675336539837E-002
 PAO|CG| trace_G_mix    2.1769243634198768E-004
 PAO|CG| trace_D    3.0683570270776943E-002
 PAO|CG| trace_D_Gnew  -6.7559143143869067E-005
 PAO|CG| beta:   0.73636619958411331     
 PAO| norm of gradient:  0.10852834974611132     
 PAO| energy improvement:  -3.3191354221457914E-003
 PAO| step     26                 -191.557798254  0.212E-03  0.419E+00     1.479
 PAO|LS| adapt:  T F F
 PAO|LS| adapt: scan_steps:    0.0000000000000000        0.0000000000000000        0.0000000000000000     
 PAO|LS| adapt: energies:   -191.55779825432700        0.0000000000000000        0.0000000000000000     
 PAO| ======================= Iteration:        27 =============================

     Lanczos converged:  F threshold:   0.100E-02
     Est. extremal eigenvalues:    0.477E+01   0.134E+00
     Est. condition number :    0.355E+02

 Order=           3
     NS sqrt iter    1 1.00000000   0.123E+01       0.021     2697.113
     NS sqrt iter    2 1.00000000   0.624E+00       0.033     3383.056
     NS sqrt iter    3 1.00000000   0.199E+00       0.034     3364.396
     NS sqrt iter    4 1.00000000   0.249E-01       0.033     3380.583
     NS sqrt iter    5 1.00000000   0.105E-03       0.033     3381.940
     NS sqrt iter    6 1.00000000   0.210E-10       0.018     2162.699
     Symmetrizing Results
     Final NS sqrt iter    6 1.00000000   0.210E-11

     Est. extremal eigenvalues     -0.84385     2.55700  converged:  T
     TRS4 it   1 1.00000000   0.285E+02       0.007     2175.981   0.100E-11
     TRS4 it   2 1.00000000   0.233E+02       0.013     2237.992   0.100E-11
     TRS4 it   3 1.00000000   0.155E+02       0.013     2199.234   0.100E-11
     TRS4 it   4 1.00000000   0.899E+01       0.013     2233.056   0.100E-11
     TRS4 it   5 1.00000000   0.371E+01       0.013     2232.662   0.100E-11
     TRS4 it   6 1.00000000   0.931E+00       0.013     2226.886   0.100E-11
     TRS4 it   7 1.00000000   0.108E+00       0.013     2221.364   0.100E-11
     TRS4 it   8 1.00000000   0.225E-02       0.013     2207.710   0.100E-11
     TRS4 it   9 1.00000000   0.144E-05       0.013     2215.944   0.100E-11
     TRS4 it  10 1.00000000   0.129E-11       0.013     2233.946   0.100E-11
     Final TRS4 iteration   10 1.00000000   0.129E-11
     Chemical potential (mu):       0.05558
 
 PAO| energy:  -191.56016805468761      penalty:   4.1806712829953294E-004
 PAO|LS| adapt:  T T F
 PAO|LS| adapt: scan_steps:    0.0000000000000000       0.41889308613441967        0.0000000000000000     
 PAO|LS| adapt: energies:   -191.55779825432700       -191.56016805468761        0.0000000000000000     
 PAO| ======================= Iteration:        28 =============================

     Lanczos converged:  F threshold:   0.100E-02
     Est. extremal eigenvalues:    0.475E+01   0.134E+00
     Est. condition number :    0.355E+02

 Order=           3
     NS sqrt iter    1 1.00000000   0.122E+01       0.021     2708.413
     NS sqrt iter    2 1.00000000   0.622E+00       0.034     3376.035
     NS sqrt iter    3 1.00000000   0.199E+00       0.033     3384.277
     NS sqrt iter    4 1.00000000   0.247E-01       0.034     3363.811
     NS sqrt iter    5 1.00000000   0.105E-03       0.034     3373.075
     NS sqrt iter    6 1.00000000   0.209E-10       0.018     2152.145
     Symmetrizing Results
     Final NS sqrt iter    6 1.00000000   0.212E-11

     Est. extremal eigenvalues     -0.84387     2.55452  converged:  T
     TRS4 it   1 1.00000000   0.285E+02       0.007     2141.911   0.100E-11
     TRS4 it   2 1.00000000   0.233E+02       0.013     2217.206   0.100E-11
     TRS4 it   3 1.00000000   0.155E+02       0.013     2206.199   0.100E-11
     TRS4 it   4 1.00000000   0.897E+01       0.013     2177.893   0.100E-11
     TRS4 it   5 1.00000000   0.369E+01       0.013     2191.910   0.100E-11
     TRS4 it   6 1.00000000   0.924E+00       0.013     2194.689   0.100E-11
     TRS4 it   7 1.00000000   0.107E+00       0.013     2198.940   0.100E-11
     TRS4 it   8 1.00000000   0.218E-02       0.013     2206.667   0.100E-11
     TRS4 it   9 1.00000000   0.136E-05       0.013     2221.590   0.100E-11
     TRS4 it  10 1.00000000   0.118E-11       0.013     2202.170   0.100E-11
     Final TRS4 iteration   10 1.00000000   0.118E-11
     Chemical potential (mu):       0.05596
 
 PAO| energy:  -191.55732637074968      penalty:   3.8711891080601941E-004
 PAO|LS| adapt:  T T T
 PAO|LS| adapt: scan_steps:    0.0000000000000000       0.41889308613441967       0.83778617226883934     
 PAO|LS| adapt: energies:   -191.55779825432700       -191.56016805468761       -191.55732637074968     
 PAO|LS| adapt: suggested step_size:   0.39992835778873465     
 PAO|LS| adapt: predicted energy  -191.56017339563508     
 PAO| ======================= Iteration:        29 =============================

     Lanczos converged:  F threshold:   0.100E-02
     Est. extremal eigenvalues:    0.477E+01   0.134E+00
     Est. condition number :    0.355E+02

 Order=           3
     NS sqrt iter    1 1.00000000   0.123E+01       0.021     2706.592
     NS sqrt iter    2 1.00000000   0.624E+00       0.034     3377.747
     NS sqrt iter    3 1.00000000   0.199E+00       0.033     3382.764
     NS sqrt iter    4 1.00000000   0.249E-01       0.034     3374.992
     NS sqrt iter    5 1.00000000   0.105E-03       0.034     3370.135
     NS sqrt iter    6 1.00000000   0.210E-10       0.018     2199.420
     Symmetrizing Results
     Final NS sqrt iter    6 1.00000000   0.210E-11

     Est. extremal eigenvalues     -0.84385     2.55710  converged:  T
     TRS4 it   1 1.00000000   0.285E+02       0.007     2144.274   0.100E-11
     TRS4 it   2 1.00000000   0.233E+02       0.013     2219.230   0.100E-11
     TRS4 it   3 1.00000000   0.155E+02       0.013     2189.978   0.100E-11
     TRS4 it   4 1.00000000   0.899E+01       0.013     2214.971   0.100E-11
     TRS4 it   5 1.00000000   0.371E+01       0.013     2224.488   0.100E-11
     TRS4 it   6 1.00000000   0.932E+00       0.013     2224.450   0.100E-11
     TRS4 it   7 1.00000000   0.108E+00       0.013     2185.244   0.100E-11
     TRS4 it   8 1.00000000   0.225E-02       0.013     2219.523   0.100E-11
     TRS4 it   9 1.00000000   0.144E-05       0.013     2188.299   0.100E-11
[...]
     TRS4 it   5 1.00000000   0.419E+01       0.013     2193.052   0.100E-11
     TRS4 it   6 1.00000000   0.129E+01       0.013     2197.791   0.100E-11
     TRS4 it   7 1.00000000   0.219E+00       0.013     2196.822   0.100E-11
     TRS4 it   8 1.00000000   0.989E-02       0.013     2217.878   0.100E-11
     TRS4 it   9 1.00000000   0.276E-04       0.013     2221.652   0.100E-11
     TRS4 it  10 1.00000000   0.435E-09       0.013     2216.736   0.100E-11
     TRS4 it  11 1.00000000   0.888E-14       0.013     2212.239   0.100E-11
     Final TRS4 iteration   11 1.00000000   0.888E-14
     Chemical potential (mu):       0.02765
 
 PAO| energy:  -191.18150182817993      penalty:   1.2868679693640354E-008
 PAO| Writing restart file.
     Est. extremal eigenvalues     -0.84418     2.53027  converged:  T
     TRS4 it   1 1.00000000   0.287E+02       0.007     2162.098   0.100E-11
     TRS4 it   2 1.00000000   0.234E+02       0.013     2198.365   0.100E-11
     TRS4 it   3 1.00000000   0.157E+02       0.013     2196.110   0.100E-11
     TRS4 it   4 1.00000000   0.933E+01       0.013     2200.210   0.100E-11
     TRS4 it   5 1.00000000   0.419E+01       0.013     2216.253   0.100E-11
     TRS4 it   6 1.00000000   0.129E+01       0.013     2223.591   0.100E-11
     TRS4 it   7 1.00000000   0.219E+00       0.013     2214.428   0.100E-11
     TRS4 it   8 1.00000000   0.989E-02       0.013     2201.860   0.100E-11
     TRS4 it   9 1.00000000   0.276E-04       0.013     2207.323   0.100E-11
     TRS4 it  10 1.00000000   0.435E-09       0.013     2192.996   0.100E-11
     TRS4 it  11 1.00000000   0.888E-14       0.013     2217.380   0.100E-11
     Final TRS4 iteration   11 1.00000000   0.888E-14
     Chemical potential (mu):       0.02765

 SCF     1     -1103.053258666     -1103.053258666    1.759006

*********************************************************
 Using MIXING_FRACTION=0.450 to mix KS matrix:  iscf=  2
 KS_nw=0.450*KS + 0.550*KS_old
*********************************************************
     Est. extremal eigenvalues     -0.84418     2.53027  converged:  T
     TRS4 it   1 1.00000000   0.287E+02       0.007     2110.725   0.100E-11
     TRS4 it   2 1.00000000   0.234E+02       0.013     2183.234   0.100E-11
     TRS4 it   3 1.00000000   0.157E+02       0.013     2224.349   0.100E-11
     TRS4 it   4 1.00000000   0.933E+01       0.013     2202.417   0.100E-11
     TRS4 it   5 1.00000000   0.419E+01       0.013     2195.207   0.100E-11
     TRS4 it   6 1.00000000   0.129E+01       0.013     2237.204   0.100E-11
     TRS4 it   7 1.00000000   0.219E+00       0.013     2227.388   0.100E-11
     TRS4 it   8 1.00000000   0.989E-02       0.013     2235.842   0.100E-11
     TRS4 it   9 1.00000000   0.276E-04       0.013     2210.124   0.100E-11
     TRS4 it  10 1.00000000   0.435E-09       0.013     2198.478   0.100E-11
     TRS4 it  11 1.00000000   0.178E-13       0.013     2212.445   0.100E-11
     Final TRS4 iteration   11 1.00000000   0.178E-13
     Chemical potential (mu):       0.02765

 SCF     2     -1103.053258666        -0.000000000    1.758536


 SCF run converged in     2 steps.

 PAO| Storing density matrix for ASPC guess in slot:           1

 ENERGY| Total FORCE_EVAL ( QS ) energy [a.u.]:            -1103.053258666055171

 -------------------------------------------------------------------------------
 -                                                                             -
 -                                DBCSR STATISTICS                             -
 -                                                                             -
 -------------------------------------------------------------------------------
 COUNTER                                    TOTAL       BLAS       SMM       ACC
 flops     5 x     5 x     4             26419200       0.0%    100.0%      0.0%     
 flops    13 x     5 x     4             34078720       0.0%    100.0%      0.0%     
 flops     5 x    13 x     4             34078720       0.0%    100.0%      0.0%     
 flops    13 x    13 x     4             44994560       0.0%    100.0%      0.0%     
 flops     4 x     4 x     5           6338641920       0.0%    100.0%      0.0%     
 flops     5 x     4 x     5           7818444800       0.0%    100.0%      0.0%     
 flops     4 x     4 x    13           8240234496       0.0%    100.0%      0.0%     
 flops    13 x     4 x     5          10163978240       0.0%    100.0%      0.0%     
 flops     5 x     4 x    13          10163978240       0.0%    100.0%      0.0%     
 flops    13 x     4 x    13          13213171712       0.0%    100.0%      0.0%     
 flops     5 x     4 x     4         393751349280       0.0%    100.0%      0.0%     
 flops    13 x     4 x     4         520111554560       0.0%    100.0%      0.0%     
 flops     4 x     4 x     4       29056086308480       0.0%    100.0%      0.0%     
 flops inhomo. stacks                           0       0.0%      0.0%      0.0%
 flops total                        30.026027E+12       0.0%    100.0%      0.0%
 flops max/rank                    947.529035E+09       0.0%    100.0%      0.0%
 matmuls inhomo. stacks                         0       0.0%      0.0%      0.0%
 matmuls total                       230859567098       0.0%    100.0%      0.0%
 number of processed stacks             235842437       0.0%    100.0%      0.0%
 average stack size                                     0.0     978.9       0.0
 marketing flops                    52.049442E+12
 -------------------------------------------------------------------------------
 # multiplications                          48826
 max memory usage/rank             617.619456E+06
 # max total images/rank                        2
 # max 3D layers                                1
 # MPI messages exchanged                20311616
 MPI messages size (bytes):
  total size                         2.408447E+12
  min size                           0.000000E+00
  max size                         541.696000E+03
  average size                     118.574844E+03
 MPI breakdown and total messages size (bytes):
             size <=      128              869964                     9600
       128 < size <=     8192              328305               1268903168
      8192 < size <=    32768               58528               1491724032
     32768 < size <=   131072             8708295             647675806720
    131072 < size <=  4194304            10346524            1758376641536
   4194304 < size <= 16777216                   0                        0
  16777216 < size                               0                        0
 -------------------------------------------------------------------------------

 *** WARNING in dbcsr_mm.F:301 :: Using a non-square number of MPI ranks ***
 *** might lead to poor performance. Used ranks: 32 Suggested: 36 64     ***

 -------------------------------------------------------------------------------
 -                                                                             -
 -                      DBCSR MESSAGE PASSING PERFORMANCE                      -
 -                                                                             -
 -------------------------------------------------------------------------------
 ROUTINE             CALLS      AVE VOLUME [Bytes]
 MP_Bcast               14                     12.
 MP_Allreduce       293793                     37.
 MP_Alltoall        126080                  14590.
 MP_ISend          1633894                  55169.
 MP_IRecv          1598162                  56476.
 -------------------------------------------------------------------------------

 -------------------------------------------------------------------------------
 -                                                                             -
 -                                DBM STATISTICS                               -
 -                                                                             -
 -------------------------------------------------------------------------------
    M  x    N  x    K                                          COUNT     PERCENT
 -------------------------------------------------------------------------------

 -------------------------------------------------------------------------------
 -                                                                             -
 -                                GRID STATISTICS                              -
 -                                                                             -
 -------------------------------------------------------------------------------
 LP    KERNEL             BACKEND                              COUNT     PERCENT
 2     collocate ortho    CPU                               13111280      28.83%
 2     integrate ortho    CPU                               13111280      28.83%
 3     collocate ortho    CPU                                8427184      18.53%
 3     integrate ortho    CPU                                8427184      18.53%
 4     collocate ortho    CPU                                1198448       2.64%
 4     integrate ortho    CPU                                1198448       2.64%
 0     collocate general  CPU                                   6144       0.01%
 -------------------------------------------------------------------------------

 MEMORY| Estimated peak process memory [MiB]                                 590

 -------------------------------------------------------------------------------
 -                                                                             -
 -                         MESSAGE PASSING PERFORMANCE                         -
 -                                                                             -
 -------------------------------------------------------------------------------

 ROUTINE             CALLS      AVE VOLUME [Bytes]
 MP_Group                5
 MP_Bcast           348884                   2002.
 MP_Allreduce       867363                    514.
 MP_Sync                 5
 MP_Alltoall           419                2509603.
 MP_SendRecv          1488                  18832.
 MP_ISendRecv         1488                  18832.
 MP_Wait              4218
 MP_ISend             2470                 108139.
 MP_IRecv             2470                 108153.
 -------------------------------------------------------------------------------


 -------------------------------------------------------------------------------
 -                                                                             -
 -                           R E F E R E N C E S                               -
 -                                                                             -
 -------------------------------------------------------------------------------
 
 CP2K version 2024.3 (Development Version), the CP2K developers group (2024).
 CP2K is freely available from https://www.cp2k.org/ .
 
 T. D. Kuehne, M. Iannuzzi, M. Del Ben, V. V. Rybkin, P. Seewald, F. Stein, T. 
 Laino, R. Z. Khaliullin, O. Schuett, F. Schiffmann, D. Golze, J. Wilhelm, S. 
 Chulkov, M. H. Bani-Hashemian, V. Weber, U. Borstnik, M. Taillefumier, A. S. 
 Jakobovits, A. Lazzaro, H. Pabst, T. Mueller, R. Schade, M. Guidon, S. 
 Andermatt, N. Holmberg, G. K. Schenter, A. Hehn, A. Bussy, F. Belleflamme, G. 
 Tabacchi, A. Gloess, M. Lass, I. Bethune, C. J. Mundy, C. Plessl, M. Watkins, 
 J. VandeVondele, M. Krack, J. Hutter.
 J. Chem. Phys. 152, 194103 (2020).
 CP2K: An electronic structure and molecular dynamics software package - 
 Quickstep: Efficient and accurate electronic structure calculations.
 https://doi.org/10.1063/5.0007045

 O. Schuett, J. VandeVondele.
 J. Chem. Theory Comput. 14, 4168-4175 (2018).
 Machine Learning Adaptive Basis Sets for Efficient Large Scale Density 
 Functional Theory Simulation.
 https://doi.org/10.1021/acs.jctc.8b00378

 O. Schuett, P. Messmer, J. Hutter, J. VandeVondele.
 Electronic Structure Calculations on Graphics Processing Units, 173-190 (2016).
 GPU-Accelerated Sparse Matrix-Matrix Multiplication for Linear Scaling Density 
 Functional Theory.
 https://doi.org/10.1002/9781118670712.ch8

 A. Heinecke, G. Henry, M. Hutchinson, H. Pabst.
 Proceedings of Intl. Supercomputing Conference, 981-991 (2016).
 LIBXSMM: Accelerating Small Matrix Multiplications by Runtime Code Generation.
 https://doi.org/10.1109/SC.2016.83

 J. Hutter, M. Iannuzzi, F. Schiffmann, J. VandeVondele.
 WIREs Comput Mol Sci. 4, 15-25 (2014).
 CP2K: atomistic simulations of condensed matter systems.
 https://doi.org/10.1002/wcms.1159

 U. Borstnik, J. VandeVondele, V. Weber, J. Hutter.
 Parallel Comput. 40, 47-58 (2014).
 Sparse matrix multiplication: The distributed block-compressed sparse row 
 library.
 https://doi.org/10.1016/j.parco.2014.03.012

 A. Marek, V. Blum, R. Johanni, V. Havu, B. Lang, T. Auckenthaler, A. Heinecke, 
 H. Bungartz, H. Lederer.
 J. Phys. Condens. Matter 26, 213201 (2014).
 The ELPA library: scalable parallel eigenvalue solutions for electronic 
 structure theory and computational science.
 https://doi.org/10.1088/0953-8984/26/21/213201

 J. VandeVondele, U. Borstnik, J. Hutter.
 J. Chem. Theory Comput. 8, 3565-3573 (2012).
 Linear Scaling Self-Consistent Field Calculations with Millions of Atoms in the 
 Condensed Phase.
 https://doi.org/10.1021/ct200897x

 J. VandeVondele, J. Hutter.
 J. Chem. Phys. 127, 114105 (2007).
 Gaussian basis sets for accurate calculations on molecular systems in gas and 
 condensed phases.
 https://doi.org/10.1063/1.2770708

 J. VandeVondele, M. Krack, F. Mohamed, M. Parrinello, T. Chassaing, J. Hutter.
 Comput. Phys. Commun. 167, 103-128 (2005).
 QUICKSTEP: Fast and accurate density functional calculations using a mixed 
 Gaussian and plane waves approach.
 https://doi.org/10.1016/j.cpc.2004.12.014

 M. Krack.
 Theor. Chem. Acc. 114, 145-152 (2005).
 Pseudopotentials for H to Kr optimized for gradient-corrected 
 exchange-correlation functionals.
 https://doi.org/10.1007/s00214-005-0655-y

 M. Frigo, S. G. Johnson.
 Proc. IEEE 93, 216-231 (2005).
 The design and implementation of FFTW3.
 https://doi.org/10.1109/JPROC.2004.840301

 A. M. N. Niklasson, C. J. Tymczak, M. Challacombe.
 J. Chem. Phys. 118, 8611-8620 (2003).
 Trace resetting density matrix purification in O(N) self-consistent-field 
 theory.
 https://doi.org/10.1063/1.1559913

 C. Hartwigsen, S. Goedecker, J. Hutter.
 Phys. Rev. B 58, 3641-3662 (1998).
 Relativistic separable dual-space Gaussian pseudopotentials from H to Rn.
 https://doi.org/10.1103/PhysRevB.58.3641

 G. Lippert, J. Hutter, M. Parrinello.
 Mol. Phys. 92, 477-487 (1997).
 A hybrid Gaussian and plane wave density functional scheme.
 https://doi.org/10.1080/002689797170220

 S. Goedecker, M. Teter, J. Hutter.
 Phys. Rev. B 54, 1703-1710 (1996).
 Separable dual-space Gaussian pseudopotentials.
 https://doi.org/10.1103/PhysRevB.54.1703

 J. P. Perdew, K. Burke, M. Ernzerhof.
 Phys. Rev. Lett. 77, 3865-3868 (1996).
 Generalized gradient approximation made simple.
 https://doi.org/10.1103/PhysRevLett.77.3865


 -------------------------------------------------------------------------------
 -                                                                             -
 -                                T I M I N G                                  -
 -                                                                             -
 -------------------------------------------------------------------------------
 SUBROUTINE                       CALLS  ASD         SELF TIME        TOTAL TIME
                                MAXIMUM       AVERAGE  MAXIMUM  AVERAGE  MAXIMUM
 CP2K                                 1  1.0    0.012    0.015  433.268  433.268
 qs_energies                          1  2.0    0.000    0.000  433.115  433.116
 ls_scf                               1  3.0    0.000    0.000  432.085  432.085
 pao_update                           7  4.0    0.006    0.023  402.038  402.040
 pao_calc_energy                    795  5.0    0.003    0.017  360.437  360.441
 dbcsr_multiply_generic           48826  8.4    1.379    1.513  337.585  337.886
 multiply_cannon                  48826  9.4    2.548    2.982  271.819  275.730
 multiply_cannon_loop             48826 10.4    1.815    2.116  261.376  266.117
 ls_scf_init_matrix_S               802  7.0    0.008    0.010  207.376  207.446
 pao_rebuild_S                      795  6.0    0.002    0.003  205.554  205.623
 matrix_sqrt_Newton_Schulz          802  8.0    0.168    0.278  192.576  192.637
 multiply_cannon_multrec         390608 11.4  173.086  175.381  173.897  176.183
 pao_dm_trs4                        795  6.0    0.006    0.007  154.510  154.535
 density_matrix_trs4                810  7.0    0.209    0.349  148.975  149.059
 mp_waitall_1                   3126612 12.6   84.326   91.005   84.326   91.005
 multiply_cannon_metrocomm3      390608 11.4    0.683    0.741   66.881   72.536
 arnoldi_extremal                  1612  8.5    0.012    0.014   57.376   57.436
 arnoldi_normal_ev                 1612  9.5    0.035    0.059   57.361   57.419
 make_m2s                         97652  9.4    0.541    0.826   50.100   50.875
 build_subspace                    5626 10.7    0.344    0.372   50.447   50.478
 make_images                      97652 10.4    7.189    7.401   48.760   49.572
 dbcsr_matrix_vector_mult        172004 11.7    0.735    1.111   47.569   48.037
 dbcsr_matrix_vector_mult_local  172004 12.7   40.505   41.055   40.697   41.248
 pao_calc_AB                       1054  5.8    0.002    0.002   41.144   41.146
 pao_calc_AB_equi                  1054  6.8    0.039    0.098   41.142   41.144
 pao_calc_grad_lnv_wrt_AB           258  7.0    0.019    0.023   40.737   40.770
 ls_scf_main                          7  4.0    0.000    0.001   26.440   26.441
 ls_scf_dm_to_ks                     15  5.0    0.000    0.000   23.474   23.479
 make_images_data                 97652 11.4    0.861    1.092   21.351   23.302
 hybrid_alltoall_any              99251 12.3    0.885    1.631   16.760   19.582
 mp_sum_l                        199511  9.5    8.248   17.965    8.248   17.965
 matrix_qs_to_ls                   1612  7.5    0.016    0.022   16.631   16.792
 qs_ks_update_qs_env                 16  6.0    0.000    0.000   14.055   14.057
 rebuild_ks_matrix                   16  7.0    0.000    0.000   14.043   14.046
 qs_ks_build_kohn_sham_matrix        16  8.0    0.003    0.003   14.043   14.045
 dbcsr_multiply_generic_mpsum_f   35824  9.5    0.026    0.032    5.076   13.242
 calculate_norms                 729120 11.4   11.343   12.242   11.343   12.242
 make_images_pack                 97652 11.4   10.846   11.184   10.979   11.319
 qs_rho_update_rho_low               16  6.0    0.000    0.000   10.963   10.966
 calculate_rho_elec                  16  7.0    0.005    0.006   10.963   10.966
 sum_up_and_integrate                16  9.0    0.000    0.001   10.656   10.659
 integrate_v_rspace                  16 10.0    0.000    0.001   10.641   10.644
 grid_collocate_task_list            16  8.0    9.704    9.834    9.704    9.834
 grid_integrate_task_list            16 11.0    9.282    9.485    9.282    9.485
 -------------------------------------------------------------------------------

 The number of warnings for this run is : 1
 
 -------------------------------------------------------------------------------
  **** **** ******  **  PROGRAM ENDED AT                 2024-09-24 06:04:25.718
 ***** ** ***  *** **   PROGRAM RAN ON                                    moritz
 **    ****   ******    PROGRAM RAN BY                                       ole
 ***** **    ** ** **   PROGRAM PROCESS ID                                169868
  **** **  *******  **  PROGRAM STOPPED IN /home/ole/git/pao_ml_equivar/64H2O_MD
                                           /Frame6200
