 DBCSR| CPU Multiplication driver                                           XSMM (U)
 DBCSR| Multrec recursion limit                                              512 (U)
 DBCSR| Multiplication stack size                                           1000 (D)
 DBCSR| Maximum elements for images                                    UNLIMITED (U)
 DBCSR| Multiplicative factor virtual images                                   1 (U)
 DBCSR| Use multiplication densification                                       T (D)
 DBCSR| Multiplication size stacks                                             3 (U)
 DBCSR| Use memory pool for CPU allocation                                     F (U)
 DBCSR| Number of 3D layers                                               SINGLE (U)
 DBCSR| Use MPI memory allocation                                              F (U)
 DBCSR| Use RMA algorithm                                                      F (U)
 DBCSR| Use Communication thread                                               T (U)
 DBCSR| Communication thread load                                             87 (D)
 DBCSR| MPI: My process id                                                     0
 DBCSR| MPI: Number of processes                                              32
 DBCSR| OMP: Current number of threads                                         1
 DBCSR| OMP: Max number of threads                                             1
 DBCSR| Split modifier for TAS multiplication algorithm                  1.0E+00 (U)


  **** **** ******  **  PROGRAM STARTED AT               2024-09-24 00:08:33.049
 ***** ** ***  *** **   PROGRAM STARTED ON                                moritz
 **    ****   ******    PROGRAM STARTED BY                                   ole
 ***** **    ** ** **   PROGRAM PROCESS ID                                164983
  **** **  *******  **  PROGRAM STARTED IN /home/ole/git/pao_ml_equivar/64H2O_MD
                                           /Frame1500

 CP2K| version string:                 CP2K version 2024.3 (Development Version)
 CP2K| source code revision number:                                  git:3f890bb
 CP2K| cp2kflags: omp libint fftw3 libxc libgrpp pexsi elpa parallel scalapack c
 CP2K|            osma quip deepmd xsmm plumed2 spglib libdftd4 sirius libvori l
 CP2K|            libbqb libvdwxc hdf5
 CP2K| is freely available from                            https://www.cp2k.org/
 CP2K| Program compiled at                          Mo 23 Sep 2024 17:17:04 CEST
 CP2K| Program compiled on                                                moritz
 CP2K| Program compiled for                                                local
 CP2K| Data directory path                               /home/ole/git/cp2k/data
 CP2K| Input file name                                           64H2O_pao44.inp

 GLOBAL| Force Environment number                                              1
 GLOBAL| Basis set file name                                        BASIS_MOLOPT
 GLOBAL| Potential file name                                      GTH_POTENTIALS
 GLOBAL| MM Potential file name                                     MM_POTENTIAL
 GLOBAL| Coordinate file name                                         coords.xyz
 GLOBAL| Method name                                                        CP2K
 GLOBAL| Project name                                                64H2O_pao44
 GLOBAL| Run type                                                         ENERGY
 GLOBAL| FFT library                                                       FFTW3
 GLOBAL| Diagonalization library                                            ELPA
 GLOBAL| DGEMM library                                                      BLAS
 GLOBAL| Minimum number of eigenvectors for ELPA usage                        16
 GLOBAL| Orthonormality check for eigenvectors                          DISABLED
 GLOBAL| Matrix multiplication library                                     COSMA
 GLOBAL| All-to-all communication in single precision                          F
 GLOBAL| FFTs using library dependent lengths                                  F
 GLOBAL| Grid backend                                                       AUTO
 GLOBAL| Global print level                                                  LOW
 GLOBAL| MPI I/O enabled                                                       T
 GLOBAL| Total number of message passing processes                            32
 GLOBAL| Number of threads for this process                                    1
 GLOBAL| This output is from process                                           0
 GLOBAL| Stack size for threads created by OpenMP (OMP_STACKSIZE)        default
 GLOBAL| CPU model name           AMD Ryzen Threadripper 3970X 32-Core Processor
 GLOBAL| CPUID                                                              1002

 MEMORY| system memory details [Kb]
 MEMORY|                        rank 0           min           max       average
 MEMORY| MemTotal            131752136     131752136     131752136     131752136
 MEMORY| MemFree             114341628     114341628     114341628     114341628
 MEMORY| Buffers               1992504       1992500       1992504       1992500
 MEMORY| Cached                8624220       8624220       8624224       8624220
 MEMORY| Slab                  1640560       1640560       1640560       1640560
 MEMORY| SReclaimable          1142536       1142536       1142536       1142536
 MEMORY| MemLikelyFree       126100888     126100884     126100888     126100885


 GENERATE|  Preliminary Number of Bonds generated:                             0
 GENERATE|  Achieved consistency in connectivity generation.

 *******************************************************************************
 *******************************************************************************
 **                                                                           **
 **     #####                         ##              ##                      **
 **    ##   ##            ##          ##              ##                      **
 **   ##     ##                       ##            ######                    **
 **   ##     ##  ##   ##  ##   #####  ##  ##   ####   ##    #####    #####    **
 **   ##     ##  ##   ##  ##  ##      ## ##   ##      ##   ##   ##  ##   ##   **
 **   ##  ## ##  ##   ##  ##  ##      ####     ###    ##   ######   ######    **
 **    ##  ###   ##   ##  ##  ##      ## ##      ##   ##   ##       ##        **
 **     #######   #####   ##   #####  ##  ##  ####    ##    #####   ##        **
 **           ##                                                    ##        **
 **                                                                           **
 **                                                ... make the atoms dance   **
 **                                                                           **
 **            Copyright (C) by CP2K developers group (2000-2024)             **
 **                      J. Chem. Phys. 152, 194103 (2020)                    **
 **                                                                           **
 *******************************************************************************


 TOTAL NUMBERS AND MAXIMUM NUMBERS

  Total number of            - Atomic kinds:                                   2
                             - Atoms:                                        192
                             - Shell sets:                                   192
                             - Shells:                                       704
                             - Primitive Cartesian functions:               1344
                             - Cartesian basis functions:                   1536
                             - Spherical basis functions:                   1472

  Maximum angular momentum of- Orbital basis functions:                        2
                             - Local part of the GTH pseudopotential:          2
                             - Non-local part of the GTH pseudopotential:      0

 ------------------------------ Linear scaling SCF -----------------------------
 eps_scf:                                                              0.100E-07
 eps_filter:                                                           0.100E-11
 mixing_fraction:                                                      0.450E+00
 max_scf:                                                                     25
 fixed chemical potential (mu)                                                 F
 has unit metric:                                                              F
 Computing inv(S):                                                             T
 Computing sqrt(S):                                                            T
 Computing S preconditioner                                                    F
 S sqrt method:                                                     NEWTONSCHULZ
 S sqrt order:                                                                 3
 Extrapolation order:                                                          1
 S preconditioner type                                                      NONE
 Polarized Atomic Orbitals (PAO)                                               T
 Purification method                                   Trace resetting 4th order
 Cluster type                                                             ATOMIC
 Computing Chebyshev                                                       FALSE
 Using PAO                                                                     T
 -------------------------------------------------------------------------------

 
 PAO|                                  EPS_PAO                           0.5E-06
 PAO|                                  MIXING                            0.5E+00
 PAO|                                  MAX_PAO                              1500
 PAO|                                  MAX_CYCLES                           1000
 PAO|                                  PARAMETERIZATION              EQUIVARIANT
 PAO|                                  PRECONDITION                            F
 PAO|                                  REGULARIZATION                    0.0E+00
 PAO|                                  EPS_PGF                           0.1E-09
 PAO|                                  PENALTY_DISTANCE                  0.1E+00
 PAO|                                  PENALTY_STRENGTH                  0.5E-02
 PAO|                                  LINPOT_PRECONDITION_DELTA         0.0E+00
 PAO|                                  LINPOT_INITGUESS_DELT             0.0E+00
 PAO|                                  LINPOT_REGULARIZATION_DELTA       0.0E+00
 PAO|                                  LINPOT_REGULARIZATION_STRENGTH    0.0E+00
 PAO|                                  OPTIMIZER                              CG
 PAO|                                  CG_INIT_STEPS                           2
 PAO|                                  CG_RESET_LIMIT                    0.1E+00
 PAO|                                  CHECK_UNITARY_TOL                -0.1E+01
 PAO|                                  CHECK_GRADIENT_TOL               -0.1E+01
 PAO|                                  NUM_GRADIENT_ORDER                      2
 PAO|                                  NUM_GRADIENT_EPS                  0.1E-07
 PAO|                                  PRINT%RESTART%WRITE_CYCLES            100
 PAO|                                  RESTART_FILE 
 PAO|                                  PREOPT_DM_FILE 64H2O_ref_LS_DM_SPIN_1_RESTART.dm
 PAO|                                  MACHINE_LEARNING%METHOD       GAUSSIAN_PR
 PAO|                                  MACHINE_LEARNING%PRIOR               ZERO
 PAO|                                  MACHINE_LEARNING%DESCRIPTOR     POTENTIAL
 PAO|                                  MACHINE_LEARNING%TOLERANCE        0.1E-01
 PAO|                                  MACHINE_LEARNING%GP_NOISE_VAR     0.1E+00
 PAO|                                  MACHINE_LEARNING%GP_SCALE         0.5E-01
 

 Calculating atomic Fock matrix for atomic kind: O

 Electronic structure
    Total number of core electrons                                          2.00
    Total number of valence electrons                                       6.00
    Total number of electrons                                               8.00
    Multiplicity                                                   not specified
    S   [  2.00] 2.00
    P      4.00


 *******************************************************************************
                  Iteration          Convergence                     Energy [au]
 *******************************************************************************
                          1        0.708315                     -15.576645311500
                          2        0.608879                     -15.587933561584
                          3        0.102828E-01                 -15.656849565404
                          4        0.113889E-02                 -15.656866888140
                          5        0.434197E-03                 -15.656867072159
                          6        0.263771E-03                 -15.656867091904
                          7        0.478536E-06                 -15.656867103452

 Energy components [Hartree]           Total Energy ::          -15.656867103452
                                        Band Energy ::           -3.000198112285
                                     Kinetic Energy ::           11.759971203220
                                   Potential Energy ::          -27.416838306672
                                      Virial (-V/T) ::            2.331369510426
                                        Core Energy ::          -26.140716385623
                                          XC Energy ::           -3.154051012914
                                     Coulomb Energy ::           13.637900295084
                       Total Pseudopotential Energy ::          -37.935781716540
                       Local Pseudopotential Energy ::          -39.218907440693
                    Nonlocal Pseudopotential Energy ::            1.283125724153
                                        Confinement ::            0.350941276976

 Orbital energies  State     L     Occupation   Energy[a.u.]          Energy[eV]

                       1     0          2.000      -0.864471          -23.523463

                       1     1          4.000      -0.317814           -8.648154


 Total Electron Density at R=0:                                         0.000068

 Calculating atomic Fock matrix for atomic kind: H

 Electronic structure
    Total number of core electrons                                          0.00
    Total number of valence electrons                                       1.00
    Total number of electrons                                               1.00
    Multiplicity                                                   not specified
    S      1.00


 *******************************************************************************
                  Iteration          Convergence                     Energy [au]
 *******************************************************************************
                          1        0.437545E-02                  -0.424159432110
                          2        0.531356E-03                  -0.424178438213
                          3        0.259176E-06                  -0.424178722480

 Energy components [Hartree]           Total Energy ::           -0.424178722480
                                        Band Energy ::           -0.199015229016
                                     Kinetic Energy ::            0.464007633961
                                   Potential Energy ::           -0.888186356441
                                      Virial (-V/T) ::            1.914163240935
                                        Core Energy ::           -0.479160803564
                                          XC Energy ::           -0.244352904054
                                     Coulomb Energy ::            0.299334985138
                       Total Pseudopotential Energy ::           -0.962295316385
                       Local Pseudopotential Energy ::           -0.962295316385
                    Nonlocal Pseudopotential Energy ::            0.000000000000
                                        Confinement ::            0.191268788606

 Orbital energies  State     L     Occupation   Energy[a.u.]          Energy[eV]

                       1     0          1.000      -0.199015           -5.415480


 Total Electron Density at R=0:                                         0.242907
 PAO| Made initial guess for matrix_X with norm:   27.712812921102035     

     Lanczos converged:  F threshold:   0.100E-02
     Est. extremal eigenvalues:    0.609E+01   0.927E-01
     Est. condition number :    0.657E+02

 Order=           3
     NS sqrt iter    1 1.00000000   0.149E+01       0.021     2682.664
     NS sqrt iter    2 1.00000000   0.810E+00       0.034     3363.098
     NS sqrt iter    3 1.00000000   0.327E+00       0.034     3357.462
     NS sqrt iter    4 1.00000000   0.913E-01       0.034     3359.551
     NS sqrt iter    5 1.00000000   0.326E-02       0.034     3350.717
     NS sqrt iter    6 1.00000000   0.276E-06       0.029     2916.511
     Symmetrizing Results
     Final NS sqrt iter    6 1.00000000   0.166E-12

 PAO| Read restart DM 64H2O_ref_LS_DM_SPIN_1_RESTART.dm with checksum:    6083.4129763962228     
 PAO| Quickstep energy from restart density:  -1103.1203400268732     
 PAO| ======================= Iteration:         1 =============================

     Lanczos converged:  F threshold:   0.100E-02
     Est. extremal eigenvalues:    0.609E+01   0.927E-01
     Est. condition number :    0.657E+02

 Order=           3
     NS sqrt iter    1 1.00000000   0.149E+01       0.021     2694.072
     NS sqrt iter    2 1.00000000   0.810E+00       0.033     3389.026
     NS sqrt iter    3 1.00000000   0.327E+00       0.033     3386.380
     NS sqrt iter    4 1.00000000   0.913E-01       0.033     3382.632
     NS sqrt iter    5 1.00000000   0.326E-02       0.033     3380.985
     NS sqrt iter    6 1.00000000   0.276E-06       0.029     2927.667
     Symmetrizing Results
     Final NS sqrt iter    6 1.00000000   0.166E-12

     Est. extremal eigenvalues     -0.81814     2.62195  converged:  T
     TRS4 it   1 1.00000000   0.273E+02       0.007     2111.437   0.100E-11
     TRS4 it   2 1.00000000   0.236E+02       0.013     2179.490   0.100E-11
     TRS4 it   3 1.00000000   0.160E+02       0.013     2196.243   0.100E-11
     TRS4 it   4 1.00000000   0.997E+01       0.013     2205.218   0.100E-11
     TRS4 it   5 1.00000000   0.480E+01       0.013     2180.904   0.100E-11
     TRS4 it   6 1.00000000   0.159E+01       0.013     2202.929   0.100E-11
     TRS4 it   7 1.00000000   0.311E+00       0.013     2206.473   0.100E-11
     TRS4 it   8 1.00000000   0.209E-01       0.013     2233.530   0.100E-11
     TRS4 it   9 1.00000000   0.151E-03       0.013     2216.554   0.100E-11
     TRS4 it  10 1.00000000   0.646E-08       0.013     2198.165   0.100E-11
     TRS4 it  11 1.00000000   0.178E-13       0.013     2202.733   0.100E-11
     Final TRS4 iteration   11 1.00000000   0.178E-13
     Chemical potential (mu):       0.00671
 
 PAO| energy:  -186.72213394718372      penalty:   1.4637067577342990E-031
 PAO|CG| warming up with steepest descent
 PAO|CG| beta:    0.0000000000000000     
 PAO| norm of gradient:   4.0130745429968950     
 PAO|LS| adapt:  T F F
 PAO|LS| adapt: scan_steps:    0.0000000000000000        0.0000000000000000        0.0000000000000000     
 PAO|LS| adapt: energies:   -186.72213394718372        0.0000000000000000        0.0000000000000000     
 PAO| ======================= Iteration:         2 =============================

     Lanczos converged:  F threshold:   0.100E-02
     Est. extremal eigenvalues:    0.588E+01   0.993E-01
     Est. condition number :    0.592E+02

 Order=           3
     NS sqrt iter    1 1.00000000   0.144E+01       0.021     2701.413
     NS sqrt iter    2 1.00000000   0.781E+00       0.034     3359.942
     NS sqrt iter    3 1.00000000   0.307E+00       0.033     3383.317
     NS sqrt iter    4 1.00000000   0.767E-01       0.033     3382.358
     NS sqrt iter    5 1.00000000   0.202E-02       0.034     3374.630
     NS sqrt iter    6 1.00000000   0.776E-07       0.029     2935.892
     Symmetrizing Results
     Final NS sqrt iter    6 1.00000000   0.143E-13

     Est. extremal eigenvalues     -0.82150     2.61623  converged:  T
     TRS4 it   1 1.00000000   0.275E+02       0.007     2135.515   0.100E-11
     TRS4 it   2 1.00000000   0.236E+02       0.013     2211.478   0.100E-11
     TRS4 it   3 1.00000000   0.159E+02       0.013     2207.913   0.100E-11
     TRS4 it   4 1.00000000   0.976E+01       0.013     2207.503   0.100E-11
     TRS4 it   5 1.00000000   0.458E+01       0.013     2223.272   0.100E-11
     TRS4 it   6 1.00000000   0.146E+01       0.013     2217.493   0.100E-11
     TRS4 it   7 1.00000000   0.265E+00       0.013     2198.719   0.100E-11
     TRS4 it   8 1.00000000   0.148E-01       0.013     2207.406   0.100E-11
     TRS4 it   9 1.00000000   0.685E-04       0.013     2217.626   0.100E-11
     TRS4 it  10 1.00000000   0.153E-08       0.013     2203.400   0.100E-11
     TRS4 it  11 1.00000000   0.249E-13       0.013     2207.380   0.100E-11
     Final TRS4 iteration   11 1.00000000   0.249E-13
     Chemical potential (mu):       0.01234
 
 PAO| energy:  -188.19881339694604      penalty:   4.8313334073036856E-007
 PAO|LS| adapt:  T T F
 PAO|LS| adapt: scan_steps:    0.0000000000000000       0.10000000000000001        0.0000000000000000     
 PAO|LS| adapt: energies:   -186.72213394718372       -188.19881339694604        0.0000000000000000     
 PAO| ======================= Iteration:         3 =============================

     Lanczos converged:  F threshold:   0.100E-02
     Est. extremal eigenvalues:    0.567E+01   0.105E+00
     Est. condition number :    0.542E+02

 Order=           3
     NS sqrt iter    1 1.00000000   0.140E+01       0.021     2694.123
     NS sqrt iter    2 1.00000000   0.753E+00       0.034     3373.182
     NS sqrt iter    3 1.00000000   0.287E+00       0.033     3383.133
     NS sqrt iter    4 1.00000000   0.641E-01       0.034     3370.796
     NS sqrt iter    5 1.00000000   0.127E-02       0.034     3362.296
     NS sqrt iter    6 1.00000000   0.230E-07       0.029     2911.790
     Symmetrizing Results
     Final NS sqrt iter    6 1.00000000   0.314E-14

     Est. extremal eigenvalues     -0.82472     2.61317  converged:  T
     TRS4 it   1 1.00000000   0.277E+02       0.007     2115.071   0.100E-11
     TRS4 it   2 1.00000000   0.236E+02       0.013     2213.917   0.100E-11
     TRS4 it   3 1.00000000   0.158E+02       0.013     2194.429   0.100E-11
     TRS4 it   4 1.00000000   0.957E+01       0.013     2201.556   0.100E-11
     TRS4 it   5 1.00000000   0.437E+01       0.013     2229.149   0.100E-11
     TRS4 it   6 1.00000000   0.134E+01       0.013     2226.777   0.100E-11
     TRS4 it   7 1.00000000   0.224E+00       0.013     2215.367   0.100E-11
     TRS4 it   8 1.00000000   0.102E-01       0.013     2193.526   0.100E-11
     TRS4 it   9 1.00000000   0.294E-04       0.013     2192.634   0.100E-11
     TRS4 it  10 1.00000000   0.320E-09       0.013     2225.228   0.100E-11
     TRS4 it  11 1.00000000   0.000E+00       0.013     2228.371   0.100E-11
     Final TRS4 iteration   11 1.00000000   0.000E+00
     Chemical potential (mu):       0.01860
 
 PAO| energy:  -189.39153228560502      penalty:   7.7301334516888277E-006
 PAO|LS| adapt:  T T F
 PAO|LS| adapt: scan_steps:    0.0000000000000000       0.20000000000000001        0.0000000000000000     
 PAO|LS| adapt: energies:   -186.72213394718372       -189.39153228560502        0.0000000000000000     
 PAO| ======================= Iteration:         4 =============================

     Lanczos converged:  F threshold:   0.100E-02
     Est. extremal eigenvalues:    0.528E+01   0.114E+00
     Est. condition number :    0.463E+02

 Order=           3
     NS sqrt iter    1 1.00000000   0.132E+01       0.021     2678.197
     NS sqrt iter    2 1.00000000   0.699E+00       0.034     3367.135
     NS sqrt iter    3 1.00000000   0.250E+00       0.033     3391.945
     NS sqrt iter    4 1.00000000   0.451E-01       0.033     3396.946
     NS sqrt iter    5 1.00000000   0.526E-03       0.034     3376.227
     NS sqrt iter    6 1.00000000   0.215E-08       0.029     2878.496
     Symmetrizing Results
     Final NS sqrt iter    6 1.00000000   0.143E-13

     Est. extremal eigenvalues     -0.83014     2.61782  converged:  T
     TRS4 it   1 1.00000000   0.281E+02       0.007     2112.499   0.100E-11
     TRS4 it   2 1.00000000   0.236E+02       0.013     2230.164   0.100E-11
     TRS4 it   3 1.00000000   0.156E+02       0.013     2193.579   0.100E-11
     TRS4 it   4 1.00000000   0.924E+01       0.013     2213.923   0.100E-11
     TRS4 it   5 1.00000000   0.402E+01       0.013     2222.354   0.100E-11
     TRS4 it   6 1.00000000   0.112E+01       0.013     2230.161   0.100E-11
     TRS4 it   7 1.00000000   0.160E+00       0.013     2237.361   0.100E-11
     TRS4 it   8 1.00000000   0.481E-02       0.013     2194.597   0.100E-11
     TRS4 it   9 1.00000000   0.558E-05       0.013     2197.449   0.100E-11
     TRS4 it  10 1.00000000   0.136E-10       0.013     2224.864   0.100E-11
     Final TRS4 iteration   10 1.00000000   0.136E-10
     Chemical potential (mu):       0.03769
 
 PAO| energy:  -190.88346667976154      penalty:   1.2368213522704461E-004
 PAO|LS| Need extra step
 PAO|LS| adapt:  T T F
 PAO|LS| adapt: scan_steps:    0.0000000000000000       0.40000000000000002        0.0000000000000000     
 PAO|LS| adapt: energies:   -186.72213394718372       -190.88346667976154        0.0000000000000000     
 PAO| ======================= Iteration:         5 =============================

     Lanczos converged:  F threshold:   0.100E-02
     Est. extremal eigenvalues:    0.466E+01   0.129E+00
     Est. condition number :    0.362E+02

 Order=           3
     NS sqrt iter    1 1.00000000   0.121E+01       0.021     2704.257
     NS sqrt iter    2 1.00000000   0.615E+00       0.034     3370.373
     NS sqrt iter    3 1.00000000   0.194E+00       0.033     3389.487
     NS sqrt iter    4 1.00000000   0.239E-01       0.033     3401.615
     NS sqrt iter    5 1.00000000   0.105E-03       0.033     3390.256
     NS sqrt iter    6 1.00000000   0.242E-10       0.019     2238.817
     Symmetrizing Results
     Final NS sqrt iter    6 1.00000000   0.216E-11

     Est. extremal eigenvalues     -0.83397     2.62371  converged:  T
     TRS4 it   1 1.00000000   0.288E+02       0.007     2123.901   0.100E-11
     TRS4 it   2 1.00000000   0.236E+02       0.013     2208.638   0.100E-11
     TRS4 it   3 1.00000000   0.154E+02       0.013     2211.139   0.100E-11
     TRS4 it   4 1.00000000   0.876E+01       0.013     2211.380   0.100E-11
     TRS4 it   5 1.00000000   0.351E+01       0.013     2222.472   0.100E-11
     TRS4 it   6 1.00000000   0.840E+00       0.013     2211.909   0.100E-11
     TRS4 it   7 1.00000000   0.885E-01       0.013     2216.442   0.100E-11
     TRS4 it   8 1.00000000   0.142E-02       0.013     2204.077   0.100E-11
     TRS4 it   9 1.00000000   0.507E-06       0.013     2201.006   0.100E-11
     TRS4 it  10 1.00000000   0.155E-12       0.013     2184.394   0.100E-11
     Final TRS4 iteration   10 1.00000000   0.155E-12
     Chemical potential (mu):       0.05803
 
 PAO| energy:  -190.42654376109198      penalty:   1.9789141636328998E-003
 PAO|LS| Need extra step
 PAO|LS| adapt:  T T T
 PAO|LS| adapt: scan_steps:    0.0000000000000000       0.40000000000000002       0.80000000000000004     
 PAO|LS| adapt: energies:   -186.72213394718372       -190.88346667976154       -190.42654376109198     
 PAO|LS| adapt: suggested step_size:   0.56042463188055458     
 PAO|LS| adapt: predicted energy  -191.25489079271838     
 PAO| ======================= Iteration:         6 =============================

     Lanczos converged:  F threshold:   0.100E-02
     Est. extremal eigenvalues:    0.500E+01   0.121E+00
     Est. condition number :    0.411E+02

 Order=           3
     NS sqrt iter    1 1.00000000   0.127E+01       0.021     2697.787
     NS sqrt iter    2 1.00000000   0.661E+00       0.033     3394.241
     NS sqrt iter    3 1.00000000   0.225E+00       0.033     3386.336
     NS sqrt iter    4 1.00000000   0.345E-01       0.033     3381.905
     NS sqrt iter    5 1.00000000   0.268E-03       0.033     3388.276
     NS sqrt iter    6 1.00000000   0.336E-09       0.028     2709.319
     Symmetrizing Results
     Final NS sqrt iter    6 1.00000000   0.243E-12

     Est. extremal eigenvalues     -0.83297     2.62276  converged:  T
     TRS4 it   1 1.00000000   0.284E+02       0.007     2119.011   0.100E-11
     TRS4 it   2 1.00000000   0.236E+02       0.013     2232.447   0.100E-11
     TRS4 it   3 1.00000000   0.155E+02       0.013     2199.715   0.100E-11
     TRS4 it   4 1.00000000   0.902E+01       0.013     2209.932   0.100E-11
     TRS4 it   5 1.00000000   0.378E+01       0.013     2223.336   0.100E-11
     TRS4 it   6 1.00000000   0.988E+00       0.013     2203.293   0.100E-11
     TRS4 it   7 1.00000000   0.123E+00       0.013     2214.338   0.100E-11
     TRS4 it   8 1.00000000   0.277E-02       0.013     2213.836   0.100E-11
     TRS4 it   9 1.00000000   0.185E-05       0.013     2234.812   0.100E-11
     TRS4 it  10 1.00000000   0.159E-11       0.013     2224.459   0.100E-11
     Final TRS4 iteration   10 1.00000000   0.159E-11
     Chemical potential (mu):       0.04679
 
 PAO| energy:  -191.22826982692814      penalty:   4.7658006239339979E-004
 PAO|CG| warming up with steepest descent
 PAO|CG| beta:    0.0000000000000000     
 PAO| norm of gradient:   2.1614300375393931     
 PAO| energy improvement:  -4.5061358797444200     
 PAO| step      6                 -191.228269827  0.422E-02  0.560E+00     2.428
 PAO|LS| adapt:  T F F
 PAO|LS| adapt: scan_steps:    0.0000000000000000        0.0000000000000000        0.0000000000000000     
 PAO|LS| adapt: energies:   -191.22826982692814        0.0000000000000000        0.0000000000000000     
 PAO| ======================= Iteration:         7 =============================

     Lanczos converged:  F threshold:   0.100E-02
     Est. extremal eigenvalues:    0.485E+01   0.129E+00
     Est. condition number :    0.376E+02

 Order=           3
     NS sqrt iter    1 1.00000000   0.125E+01       0.021     2696.975
     NS sqrt iter    2 1.00000000   0.637E+00       0.034     3359.795
     NS sqrt iter    3 1.00000000   0.207E+00       0.034     3376.560
     NS sqrt iter    4 1.00000000   0.278E-01       0.034     3373.835
     NS sqrt iter    5 1.00000000   0.149E-03       0.034     3346.284
     NS sqrt iter    6 1.00000000   0.637E-10       0.024     2388.498
     Symmetrizing Results
     Final NS sqrt iter    6 1.00000000   0.197E-11

     Est. extremal eigenvalues     -0.83356     2.61902  converged:  T
     TRS4 it   1 1.00000000   0.286E+02       0.007     2150.971   0.100E-11
     TRS4 it   2 1.00000000   0.237E+02       0.013     2239.901   0.100E-11
     TRS4 it   3 1.00000000   0.156E+02       0.013     2220.033   0.100E-11
     TRS4 it   4 1.00000000   0.916E+01       0.013     2185.728   0.100E-11
     TRS4 it   5 1.00000000   0.388E+01       0.013     2204.716   0.100E-11
     TRS4 it   6 1.00000000   0.102E+01       0.013     2197.088   0.100E-11
     TRS4 it   7 1.00000000   0.127E+00       0.013     2233.954   0.100E-11
     TRS4 it   8 1.00000000   0.299E-02       0.013     2204.069   0.100E-11
     TRS4 it   9 1.00000000   0.237E-05       0.013     2204.719   0.100E-11
     TRS4 it  10 1.00000000   0.275E-11       0.013     2211.255   0.100E-11
     Final TRS4 iteration   10 1.00000000   0.275E-11
     Chemical potential (mu):       0.04824
 
 PAO| energy:  -190.29597101090459      penalty:   6.8738127569647990E-004
 PAO|LS| adapt:  T F T
 PAO|LS| adapt: scan_steps:    0.0000000000000000        0.0000000000000000       0.56042463188055458     
 PAO|LS| adapt: energies:   -191.22826982692814        0.0000000000000000       -190.29597101090459     
 PAO| ======================= Iteration:         8 =============================

     Lanczos converged:  F threshold:   0.100E-02
     Est. extremal eigenvalues:    0.493E+01   0.126E+00
     Est. condition number :    0.390E+02

 Order=           3
     NS sqrt iter    1 1.00000000   0.126E+01       0.021     2671.767
     NS sqrt iter    2 1.00000000   0.649E+00       0.034     3375.801
     NS sqrt iter    3 1.00000000   0.216E+00       0.034     3368.148
     NS sqrt iter    4 1.00000000   0.310E-01       0.034     3373.838
     NS sqrt iter    5 1.00000000   0.201E-03       0.034     3377.627
     NS sqrt iter    6 1.00000000   0.148E-09       0.028     2550.550
     Symmetrizing Results
     Final NS sqrt iter    6 1.00000000   0.104E-11

     Est. extremal eigenvalues     -0.83436     2.62107  converged:  T
     TRS4 it   1 1.00000000   0.285E+02       0.007     2154.025   0.100E-11
     TRS4 it   2 1.00000000   0.236E+02       0.013     2204.731   0.100E-11
     TRS4 it   3 1.00000000   0.155E+02       0.013     2229.843   0.100E-11
     TRS4 it   4 1.00000000   0.906E+01       0.013     2224.209   0.100E-11
     TRS4 it   5 1.00000000   0.381E+01       0.013     2231.357   0.100E-11
     TRS4 it   6 1.00000000   0.993E+00       0.013     2201.093   0.100E-11
     TRS4 it   7 1.00000000   0.124E+00       0.013     2217.421   0.100E-11
     TRS4 it   8 1.00000000   0.284E-02       0.013     2228.655   0.100E-11
     TRS4 it   9 1.00000000   0.205E-05       0.013     2228.254   0.100E-11
     TRS4 it  10 1.00000000   0.197E-11       0.013     2212.487   0.100E-11
     Final TRS4 iteration   10 1.00000000   0.197E-11
     Chemical potential (mu):       0.04618
 
 PAO| energy:  -191.63541951449741      penalty:   5.0876239973345798E-004
 PAO|LS| adapt:  T T T
 PAO|LS| adapt: scan_steps:    0.0000000000000000       0.28021231594027729       0.56042463188055458     
 PAO|LS| adapt: energies:   -191.22826982692814       -191.63541951449741       -190.29597101090459     
 PAO|LS| adapt: suggested step_size:   0.20542648033474503     
 PAO|LS| adapt: predicted energy  -191.69762479779877     
 PAO| ======================= Iteration:         9 =============================

     Lanczos converged:  F threshold:   0.100E-02
     Est. extremal eigenvalues:    0.494E+01   0.125E+00
     Est. condition number :    0.395E+02

 Order=           3
     NS sqrt iter    1 1.00000000   0.126E+01       0.021     2685.590
     NS sqrt iter    2 1.00000000   0.652E+00       0.034     3357.028
     NS sqrt iter    3 1.00000000   0.218E+00       0.034     3358.264
     NS sqrt iter    4 1.00000000   0.319E-01       0.034     3368.434
     NS sqrt iter    5 1.00000000   0.218E-03       0.034     3356.366
     NS sqrt iter    6 1.00000000   0.185E-09       0.028     2611.896
     Symmetrizing Results
     Final NS sqrt iter    6 1.00000000   0.728E-12

     Est. extremal eigenvalues     -0.83421     2.62163  converged:  T
     TRS4 it   1 1.00000000   0.285E+02       0.007     2140.903   0.100E-11
     TRS4 it   2 1.00000000   0.236E+02       0.013     2200.536   0.100E-11
     TRS4 it   3 1.00000000   0.155E+02       0.013     2188.424   0.100E-11
     TRS4 it   4 1.00000000   0.904E+01       0.013     2228.062   0.100E-11
     TRS4 it   5 1.00000000   0.379E+01       0.013     2196.370   0.100E-11
     TRS4 it   6 1.00000000   0.990E+00       0.013     2191.721   0.100E-11
     TRS4 it   7 1.00000000   0.123E+00       0.013     2207.560   0.100E-11
     TRS4 it   8 1.00000000   0.282E-02       0.013     2238.592   0.100E-11
     TRS4 it   9 1.00000000   0.199E-05       0.013     2231.439   0.100E-11
     TRS4 it  10 1.00000000   0.185E-11       0.013     2195.547   0.100E-11
     Final TRS4 iteration   10 1.00000000   0.185E-11
     Chemical potential (mu):       0.04609
 
 PAO| energy:  -191.70207487002227      penalty:   4.9051846253280937E-004
 PAO|CG| trace_G_new   0.79129687004167293     
 PAO|CG| trace_G_prev    4.6717798071775416     
 PAO|CG| trace_G_mix   -4.6169946619627665E-002
 PAO|CG| trace_D    4.6717798071775416     
 PAO|CG| trace_D_Gnew   4.6169946619627665E-002
 PAO|CG| beta:   0.17926076382595110     
 PAO| norm of gradient:  0.88954868896630546     
 PAO| energy improvement: -0.47380504309413141     
 PAO| step      9                 -191.702074870  0.174E-02  0.205E+00     1.504
 PAO|LS| adapt:  T F F
 PAO|LS| adapt: scan_steps:    0.0000000000000000        0.0000000000000000        0.0000000000000000     
 PAO|LS| adapt: energies:   -191.70207487002227        0.0000000000000000        0.0000000000000000     
 PAO| ======================= Iteration:        10 =============================

     Lanczos converged:  F threshold:   0.100E-02
     Est. extremal eigenvalues:    0.489E+01   0.128E+00
     Est. condition number :    0.384E+02

 Order=           3
     NS sqrt iter    1 1.00000000   0.125E+01       0.021     2696.656
     NS sqrt iter    2 1.00000000   0.644E+00       0.034     3370.174
     NS sqrt iter    3 1.00000000   0.212E+00       0.033     3393.910
     NS sqrt iter    4 1.00000000   0.295E-01       0.033     3390.871
     NS sqrt iter    5 1.00000000   0.173E-03       0.034     3377.434
     NS sqrt iter    6 1.00000000   0.926E-10       0.026     2492.562
     Symmetrizing Results
     Final NS sqrt iter    6 1.00000000   0.164E-11

     Est. extremal eigenvalues     -0.83481     2.60677  converged:  T
     TRS4 it   1 1.00000000   0.285E+02       0.007     2150.958   0.100E-11
     TRS4 it   2 1.00000000   0.236E+02       0.013     2202.341   0.100E-11
     TRS4 it   3 1.00000000   0.155E+02       0.013     2191.857   0.100E-11
     TRS4 it   4 1.00000000   0.902E+01       0.013     2198.133   0.100E-11
     TRS4 it   5 1.00000000   0.377E+01       0.013     2215.700   0.100E-11
     TRS4 it   6 1.00000000   0.977E+00       0.013     2234.044   0.100E-11
     TRS4 it   7 1.00000000   0.120E+00       0.013     2214.882   0.100E-11
     TRS4 it   8 1.00000000   0.269E-02       0.013     2216.155   0.100E-11
     TRS4 it   9 1.00000000   0.184E-05       0.013     2188.269   0.100E-11
     TRS4 it  10 1.00000000   0.154E-11       0.013     2232.528   0.100E-11
     Final TRS4 iteration   10 1.00000000   0.154E-11
     Chemical potential (mu):       0.04670
 
 PAO| energy:  -191.81162362353632      penalty:   4.9429228051846047E-004
 PAO|LS| adapt:  T T F
 PAO|LS| adapt: scan_steps:    0.0000000000000000       0.20542648033474503        0.0000000000000000     
 PAO|LS| adapt: energies:   -191.70207487002227       -191.81162362353632        0.0000000000000000     
 PAO| ======================= Iteration:        11 =============================

     Lanczos converged:  F threshold:   0.100E-02
     Est. extremal eigenvalues:    0.484E+01   0.131E+00
     Est. condition number :    0.370E+02

 Order=           3
     NS sqrt iter    1 1.00000000   0.124E+01       0.021     2694.069
     NS sqrt iter    2 1.00000000   0.635E+00       0.033     3387.026
     NS sqrt iter    3 1.00000000   0.207E+00       0.034     3368.222
     NS sqrt iter    4 1.00000000   0.273E-01       0.033     3383.166
     NS sqrt iter    5 1.00000000   0.137E-03       0.034     3363.205
     NS sqrt iter    6 1.00000000   0.460E-10       0.022     2354.810
     Symmetrizing Results
     Final NS sqrt iter    6 1.00000000   0.221E-11

     Est. extremal eigenvalues     -0.83510     2.59380  converged:  T
     TRS4 it   1 1.00000000   0.284E+02       0.007     2138.371   0.100E-11
     TRS4 it   2 1.00000000   0.235E+02       0.013     2213.957   0.100E-11
     TRS4 it   3 1.00000000   0.155E+02       0.013     2216.176   0.100E-11
     TRS4 it   4 1.00000000   0.900E+01       0.013     2201.777   0.100E-11
     TRS4 it   5 1.00000000   0.375E+01       0.013     2215.539   0.100E-11
     TRS4 it   6 1.00000000   0.963E+00       0.013     2222.498   0.100E-11
     TRS4 it   7 1.00000000   0.117E+00       0.013     2230.465   0.100E-11
     TRS4 it   8 1.00000000   0.255E-02       0.013     2213.690   0.100E-11
     TRS4 it   9 1.00000000   0.167E-05       0.013     2209.809   0.100E-11
     TRS4 it  10 1.00000000   0.124E-11       0.013     2209.025   0.100E-11
     Final TRS4 iteration   10 1.00000000   0.124E-11
     Chemical potential (mu):       0.04740
 
 PAO| energy:  -191.82152745314337      penalty:   5.0896797621589819E-004
 PAO|LS| adapt:  T T F
 PAO|LS| adapt: scan_steps:    0.0000000000000000       0.41085296066949006        0.0000000000000000     
 PAO|LS| adapt: energies:   -191.70207487002227       -191.82152745314337        0.0000000000000000     
 PAO| ======================= Iteration:        12 =============================

     Lanczos converged:  F threshold:   0.100E-02
     Est. extremal eigenvalues:    0.475E+01   0.139E+00
     Est. condition number :    0.342E+02

 Order=           3
     NS sqrt iter    1 1.00000000   0.123E+01       0.021     2709.113
     NS sqrt iter    2 1.00000000   0.619E+00       0.033     3389.319
     NS sqrt iter    3 1.00000000   0.196E+00       0.033     3388.114
     NS sqrt iter    4 1.00000000   0.234E-01       0.034     3356.502
     NS sqrt iter    5 1.00000000   0.864E-04       0.033     3385.947
     NS sqrt iter    6 1.00000000   0.111E-10       0.015     2141.014
     Symmetrizing Results
     Final NS sqrt iter    6 1.00000000   0.180E-11

     Est. extremal eigenvalues     -0.83479     2.58722  converged:  T
     TRS4 it   1 1.00000000   0.285E+02       0.007     2148.762   0.100E-11
     TRS4 it   2 1.00000000   0.235E+02       0.013     2227.098   0.100E-11
     TRS4 it   3 1.00000000   0.155E+02       0.013     2205.365   0.100E-11
     TRS4 it   4 1.00000000   0.896E+01       0.013     2163.730   0.100E-11
     TRS4 it   5 1.00000000   0.370E+01       0.013     2206.061   0.100E-11
     TRS4 it   6 1.00000000   0.934E+00       0.013     2187.082   0.100E-11
     TRS4 it   7 1.00000000   0.109E+00       0.013     2220.956   0.100E-11
     TRS4 it   8 1.00000000   0.227E-02       0.013     2202.559   0.100E-11
     TRS4 it   9 1.00000000   0.136E-05       0.013     2219.010   0.100E-11
     TRS4 it  10 1.00000000   0.821E-12       0.013     2186.748   0.100E-11
     Final TRS4 iteration   10 1.00000000   0.821E-12
     Chemical potential (mu):       0.04903
 
 PAO| energy:  -191.56102252604995      penalty:   5.7942880300032064E-004
 PAO|LS| Need extra step
 PAO|LS| adapt:  T T T
 PAO|LS| adapt: scan_steps:    0.0000000000000000       0.41085296066949006       0.82170592133898013     
 PAO|LS| adapt: energies:   -191.70207487002227       -191.82152745314337       -191.56102252604995     
 PAO|LS| adapt: suggested step_size:   0.33459210047793986     
 PAO|LS| adapt: predicted energy  -191.82807284414278     
 PAO| ======================= Iteration:        13 =============================

     Lanczos converged:  F threshold:   0.100E-02
     Est. extremal eigenvalues:    0.486E+01   0.130E+00
     Est. condition number :    0.375E+02

 Order=           3
     NS sqrt iter    1 1.00000000   0.125E+01       0.021     2682.632
     NS sqrt iter    2 1.00000000   0.638E+00       0.033     3381.283
     NS sqrt iter    3 1.00000000   0.209E+00       0.034     3365.696
     NS sqrt iter    4 1.00000000   0.281E-01       0.034     3355.410
     NS sqrt iter    5 1.00000000   0.150E-03       0.034     3377.534
     NS sqrt iter    6 1.00000000   0.597E-10       0.023     2415.993
     Symmetrizing Results
     Final NS sqrt iter    6 1.00000000   0.205E-11

     Est. extremal eigenvalues     -0.83502     2.59733  converged:  T
     TRS4 it   1 1.00000000   0.284E+02       0.007     2123.055   0.100E-11
     TRS4 it   2 1.00000000   0.235E+02       0.013     2241.995   0.100E-11
     TRS4 it   3 1.00000000   0.155E+02       0.013     2212.938   0.100E-11
     TRS4 it   4 1.00000000   0.901E+01       0.013     2203.724   0.100E-11
     TRS4 it   5 1.00000000   0.376E+01       0.013     2223.779   0.100E-11
     TRS4 it   6 1.00000000   0.968E+00       0.013     2216.521   0.100E-11
     TRS4 it   7 1.00000000   0.118E+00       0.013     2214.105   0.100E-11
     TRS4 it   8 1.00000000   0.260E-02       0.013     2226.905   0.100E-11
     TRS4 it   9 1.00000000   0.173E-05       0.013     2201.724   0.100E-11
     TRS4 it  10 1.00000000   0.136E-11       0.013     2203.228   0.100E-11
     Final TRS4 iteration   10 1.00000000   0.136E-11
     Chemical potential (mu):       0.04713
 
 PAO| energy:  -191.82919180883781      penalty:   5.0215093112944398E-004
 PAO|CG| trace_G_new   0.30633795407583614     
 PAO|CG| trace_G_prev   0.79129687004167293     
 PAO|CG| trace_G_mix   -1.4597906665274784E-002
 PAO|CG| trace_D   0.92486889148158968     
 PAO|CG| trace_D_Gnew   1.3579689284934679E-002
 PAO|CG| beta:   0.40558211828161173     
 PAO| norm of gradient:  0.55347805202721101     
 PAO| energy improvement: -0.12711693881553288     
 PAO| step     13                 -191.829191809  0.108E-02  0.335E+00     1.942
 PAO|LS| adapt:  T F F
 PAO|LS| adapt: scan_steps:    0.0000000000000000        0.0000000000000000        0.0000000000000000     
 PAO|LS| adapt: energies:   -191.82919180883781        0.0000000000000000        0.0000000000000000     
 PAO| ======================= Iteration:        14 =============================

     Lanczos converged:  F threshold:   0.100E-02
     Est. extremal eigenvalues:    0.479E+01   0.133E+00
     Est. condition number :    0.361E+02

 Order=           3
     NS sqrt iter    1 1.00000000   0.123E+01       0.021     2665.908
     NS sqrt iter    2 1.00000000   0.627E+00       0.034     3360.397
     NS sqrt iter    3 1.00000000   0.202E+00       0.034     3352.971
     NS sqrt iter    4 1.00000000   0.259E-01       0.033     3383.683
     NS sqrt iter    5 1.00000000   0.119E-03       0.034     3361.612
     NS sqrt iter    6 1.00000000   0.304E-10       0.020     2265.052
     Symmetrizing Results
     Final NS sqrt iter    6 1.00000000   0.223E-11

     Est. extremal eigenvalues     -0.83546     2.59612  converged:  T
     TRS4 it   1 1.00000000   0.285E+02       0.007     2117.954   0.100E-11
     TRS4 it   2 1.00000000   0.235E+02       0.013     2202.002   0.100E-11
     TRS4 it   3 1.00000000   0.155E+02       0.013     2219.835   0.100E-11
     TRS4 it   4 1.00000000   0.895E+01       0.013     2226.999   0.100E-11
     TRS4 it   5 1.00000000   0.370E+01       0.013     2217.417   0.100E-11
     TRS4 it   6 1.00000000   0.939E+00       0.013     2217.251   0.100E-11
     TRS4 it   7 1.00000000   0.111E+00       0.013     2201.431   0.100E-11
     TRS4 it   8 1.00000000   0.231E-02       0.013     2192.909   0.100E-11
     TRS4 it   9 1.00000000   0.139E-05       0.013     2212.159   0.100E-11
     TRS4 it  10 1.00000000   0.863E-12       0.013     2213.012   0.100E-11
     Final TRS4 iteration   10 1.00000000   0.863E-12
     Chemical potential (mu):       0.04883
 
 PAO| energy:  -191.88619953157314      penalty:   5.0730066668564237E-004
 PAO|LS| adapt:  T T F
 PAO|LS| adapt: scan_steps:    0.0000000000000000       0.33459210047793986        0.0000000000000000     
 PAO|LS| adapt: energies:   -191.82919180883781       -191.88619953157314        0.0000000000000000     
 PAO| ======================= Iteration:        15 =============================

     Lanczos converged:  F threshold:   0.100E-02
     Est. extremal eigenvalues:    0.472E+01   0.136E+00
     Est. condition number :    0.348E+02

 Order=           3
     NS sqrt iter    1 1.00000000   0.122E+01       0.021     2701.322
     NS sqrt iter    2 1.00000000   0.617E+00       0.033     3384.443
     NS sqrt iter    3 1.00000000   0.196E+00       0.034     3368.018
     NS sqrt iter    4 1.00000000   0.238E-01       0.034     3372.468
     NS sqrt iter    5 1.00000000   0.944E-04       0.033     3392.804
     NS sqrt iter    6 1.00000000   0.156E-10       0.017     2161.087
     Symmetrizing Results
     Final NS sqrt iter    6 1.00000000   0.207E-11

     Est. extremal eigenvalues     -0.83551     2.59681  converged:  T
     TRS4 it   1 1.00000000   0.286E+02       0.007     2128.370   0.100E-11
     TRS4 it   2 1.00000000   0.235E+02       0.013     2208.422   0.100E-11
     TRS4 it   3 1.00000000   0.154E+02       0.013     2202.532   0.100E-11
     TRS4 it   4 1.00000000   0.890E+01       0.013     2226.990   0.100E-11
     TRS4 it   5 1.00000000   0.364E+01       0.013     2207.673   0.100E-11
     TRS4 it   6 1.00000000   0.910E+00       0.013     2218.740   0.100E-11
     TRS4 it   7 1.00000000   0.105E+00       0.013     2236.598   0.100E-11
     TRS4 it   8 1.00000000   0.206E-02       0.013     2208.041   0.100E-11
     TRS4 it   9 1.00000000   0.112E-05       0.013     2212.595   0.100E-11
     TRS4 it  10 1.00000000   0.583E-12       0.013     2222.153   0.100E-11
     Final TRS4 iteration   10 1.00000000   0.583E-12
     Chemical potential (mu):       0.05046
 
 PAO| energy:  -191.85731764766680      penalty:   5.3007487546052987E-004
 PAO|LS| adapt:  T T T
 PAO|LS| adapt: scan_steps:    0.0000000000000000       0.33459210047793986       0.66918420095587972     
 PAO|LS| adapt: energies:   -191.82919180883781       -191.88619953157314       -191.85731764766680     
 PAO|LS| adapt: suggested step_size:   0.38937569921276460     
 PAO|LS| adapt: predicted energy  -191.88735081000013     
 PAO| ======================= Iteration:        16 =============================

     Lanczos converged:  F threshold:   0.100E-02
     Est. extremal eigenvalues:    0.478E+01   0.133E+00
     Est. condition number :    0.358E+02

 Order=           3
     NS sqrt iter    1 1.00000000   0.123E+01       0.021     2697.153
     NS sqrt iter    2 1.00000000   0.626E+00       0.034     3375.664
     NS sqrt iter    3 1.00000000   0.201E+00       0.033     3383.969
     NS sqrt iter    4 1.00000000   0.255E-01       0.034     3376.310
     NS sqrt iter    5 1.00000000   0.114E-03       0.033     3381.922
     NS sqrt iter    6 1.00000000   0.273E-10       0.019     2236.349
     Symmetrizing Results
     Final NS sqrt iter    6 1.00000000   0.219E-11

     Est. extremal eigenvalues     -0.83549     2.59624  converged:  T
     TRS4 it   1 1.00000000   0.285E+02       0.007     2164.368   0.100E-11
     TRS4 it   2 1.00000000   0.235E+02       0.013     2210.317   0.100E-11
     TRS4 it   3 1.00000000   0.155E+02       0.013     2218.102   0.100E-11
     TRS4 it   4 1.00000000   0.894E+01       0.013     2223.477   0.100E-11
     TRS4 it   5 1.00000000   0.369E+01       0.013     2224.956   0.100E-11
     TRS4 it   6 1.00000000   0.934E+00       0.013     2229.420   0.100E-11
     TRS4 it   7 1.00000000   0.110E+00       0.013     2207.190   0.100E-11
     TRS4 it   8 1.00000000   0.227E-02       0.013     2222.179   0.100E-11
     TRS4 it   9 1.00000000   0.134E-05       0.013     2220.166   0.100E-11
     TRS4 it  10 1.00000000   0.805E-12       0.013     2226.112   0.100E-11
     Final TRS4 iteration   10 1.00000000   0.805E-12
     Chemical potential (mu):       0.04911
 
 PAO| energy:  -191.88729375396036      penalty:   5.0976665146146684E-004
 PAO|CG| trace_G_new   0.11625211209462691     
 PAO|CG| trace_G_prev   0.30633795407583614     
 PAO|CG| trace_G_mix    5.2978828003927775E-003
 PAO|CG| trace_D   0.44746061941492171     
 PAO|CG| trace_D_Gnew   9.8675771447382190E-004
 PAO|CG| beta:   0.36219550277066426     
 PAO| norm of gradient:  0.34095763973641491     
 PAO| energy improvement:  -5.8101945122558618E-002
 PAO| step     16                 -191.887293754  0.666E-03  0.389E+00     1.481
 PAO|LS| adapt:  T F F
 PAO|LS| adapt: scan_steps:    0.0000000000000000        0.0000000000000000        0.0000000000000000     
 PAO|LS| adapt: energies:   -191.88729375396036        0.0000000000000000        0.0000000000000000     
 PAO| ======================= Iteration:        17 =============================

     Lanczos converged:  F threshold:   0.100E-02
     Est. extremal eigenvalues:    0.474E+01   0.134E+00
     Est. condition number :    0.354E+02

 Order=           3
     NS sqrt iter    1 1.00000000   0.122E+01       0.021     2696.338
     NS sqrt iter    2 1.00000000   0.621E+00       0.034     3360.847
     NS sqrt iter    3 1.00000000   0.198E+00       0.034     3380.071
     NS sqrt iter    4 1.00000000   0.247E-01       0.033     3381.528
     NS sqrt iter    5 1.00000000   0.104E-03       0.034     3319.953
     NS sqrt iter    6 1.00000000   0.206E-10       0.018     2202.610
     Symmetrizing Results
     Final NS sqrt iter    6 1.00000000   0.215E-11

     Est. extremal eigenvalues     -0.83556     2.59866  converged:  T
     TRS4 it   1 1.00000000   0.286E+02       0.007     2098.289   0.100E-11
     TRS4 it   2 1.00000000   0.235E+02       0.013     2218.219   0.100E-11
     TRS4 it   3 1.00000000   0.154E+02       0.013     2208.876   0.100E-11
     TRS4 it   4 1.00000000   0.890E+01       0.013     2232.929   0.100E-11
     TRS4 it   5 1.00000000   0.365E+01       0.013     2225.880   0.100E-11
     TRS4 it   6 1.00000000   0.915E+00       0.013     2207.694   0.100E-11
     TRS4 it   7 1.00000000   0.106E+00       0.013     2209.668   0.100E-11
     TRS4 it   8 1.00000000   0.211E-02       0.013     2218.354   0.100E-11
     TRS4 it   9 1.00000000   0.116E-05       0.013     2209.076   0.100E-11
     TRS4 it  10 1.00000000   0.574E-12       0.013     2222.789   0.100E-11
     Final TRS4 iteration   10 1.00000000   0.574E-12
     Chemical potential (mu):       0.05014
 
 PAO| energy:  -191.89195256487972      penalty:   5.0457530036215848E-004
 PAO|LS| adapt:  T T F
 PAO|LS| adapt: scan_steps:    0.0000000000000000       0.38937569921276460        0.0000000000000000     
 PAO|LS| adapt: energies:   -191.88729375396036       -191.89195256487972        0.0000000000000000     
 PAO| ======================= Iteration:        18 =============================

     Lanczos converged:  F threshold:   0.100E-02
     Est. extremal eigenvalues:    0.471E+01   0.135E+00
     Est. condition number :    0.349E+02

 Order=           3
     NS sqrt iter    1 1.00000000   0.121E+01       0.021     2695.827
     NS sqrt iter    2 1.00000000   0.616E+00       0.034     3335.302
     NS sqrt iter    3 1.00000000   0.196E+00       0.034     3363.250
     NS sqrt iter    4 1.00000000   0.239E-01       0.034     3367.513
     NS sqrt iter    5 1.00000000   0.950E-04       0.034     3370.208
     NS sqrt iter    6 1.00000000   0.157E-10       0.017     2161.947
     Symmetrizing Results
     Final NS sqrt iter    6 1.00000000   0.205E-11

     Est. extremal eigenvalues     -0.83545     2.60114  converged:  T
     TRS4 it   1 1.00000000   0.286E+02       0.007     2143.467   0.100E-11
     TRS4 it   2 1.00000000   0.235E+02       0.013     2222.036   0.100E-11
     TRS4 it   3 1.00000000   0.154E+02       0.013     2225.216   0.100E-11
     TRS4 it   4 1.00000000   0.886E+01       0.013     2229.025   0.100E-11
     TRS4 it   5 1.00000000   0.361E+01       0.013     2218.005   0.100E-11
     TRS4 it   6 1.00000000   0.896E+00       0.013     2221.811   0.100E-11
     TRS4 it   7 1.00000000   0.102E+00       0.013     2224.106   0.100E-11
     TRS4 it   8 1.00000000   0.196E-02       0.013     2228.771   0.100E-11
     TRS4 it   9 1.00000000   0.100E-05       0.013     2238.926   0.100E-11
     TRS4 it  10 1.00000000   0.455E-12       0.013     2233.576   0.100E-11
     Final TRS4 iteration   10 1.00000000   0.455E-12
     Chemical potential (mu):       0.05122
 
 PAO| energy:  -191.81551754671636      penalty:   5.0773987202533410E-004
 PAO|LS| adapt:  T T T
 PAO|LS| adapt: scan_steps:    0.0000000000000000       0.38937569921276460       0.77875139842552921     
 PAO|LS| adapt: energies:   -191.88729375396036       -191.89195256487972       -191.81551754671636     
 PAO|LS| adapt: suggested step_size:   0.21705734158551632     
 PAO|LS| adapt: predicted energy  -191.89989371154988     
 PAO| ======================= Iteration:        19 =============================

     Lanczos converged:  F threshold:   0.100E-02
     Est. extremal eigenvalues:    0.476E+01   0.134E+00
     Est. condition number :    0.356E+02

 Order=           3
     NS sqrt iter    1 1.00000000   0.122E+01       0.021     2678.840
     NS sqrt iter    2 1.00000000   0.623E+00       0.034     3360.745
     NS sqrt iter    3 1.00000000   0.200E+00       0.034     3369.718
     NS sqrt iter    4 1.00000000   0.250E-01       0.033     3381.720
     NS sqrt iter    5 1.00000000   0.108E-03       0.034     3377.782
     NS sqrt iter    6 1.00000000   0.233E-10       0.019     2227.683
     Symmetrizing Results
     Final NS sqrt iter    6 1.00000000   0.217E-11

     Est. extremal eigenvalues     -0.83555     2.59758  converged:  T
     TRS4 it   1 1.00000000   0.285E+02       0.007     2123.137   0.100E-11
     TRS4 it   2 1.00000000   0.235E+02       0.013     2204.545   0.100E-11
     TRS4 it   3 1.00000000   0.154E+02       0.013     2211.437   0.100E-11
     TRS4 it   4 1.00000000   0.892E+01       0.013     2236.908   0.100E-11
     TRS4 it   5 1.00000000   0.367E+01       0.013     2198.101   0.100E-11
     TRS4 it   6 1.00000000   0.923E+00       0.013     2218.223   0.100E-11
     TRS4 it   7 1.00000000   0.108E+00       0.013     2227.020   0.100E-11
     TRS4 it   8 1.00000000   0.218E-02       0.013     2210.403   0.100E-11
     TRS4 it   9 1.00000000   0.123E-05       0.013     2239.608   0.100E-11
     TRS4 it  10 1.00000000   0.680E-12       0.013     2225.947   0.100E-11
     Final TRS4 iteration   10 1.00000000   0.680E-12
     Chemical potential (mu):       0.04967
 
 PAO| energy:  -191.89988149620581      penalty:   5.0586474982509391E-004
 PAO|CG| trace_G_new    2.1268003469147909E-002
 PAO|CG| trace_G_prev   0.11625211209462691     
 PAO|CG| trace_G_mix   -3.9712065861372339E-004
 PAO|CG| trace_D   0.17423769556334581     
 PAO|CG| trace_D_Gnew  -4.4978028351600678E-005
 PAO|CG| beta:   0.18636327321198820     
 PAO| norm of gradient:  0.14583553568711541     
 PAO| energy improvement:  -1.2587742245443678E-002
 PAO| step     19                 -191.899881496  0.285E-03  0.217E+00     1.477
 PAO|LS| adapt:  T F F
 PAO|LS| adapt: scan_steps:    0.0000000000000000        0.0000000000000000        0.0000000000000000     
 PAO|LS| adapt: energies:   -191.89988149620581        0.0000000000000000        0.0000000000000000     
 PAO| ======================= Iteration:        20 =============================

     Lanczos converged:  F threshold:   0.100E-02
     Est. extremal eigenvalues:    0.475E+01   0.134E+00
     Est. condition number :    0.356E+02

 Order=           3
     NS sqrt iter    1 1.00000000   0.122E+01       0.021     2674.549
     NS sqrt iter    2 1.00000000   0.623E+00       0.033     3381.209
     NS sqrt iter    3 1.00000000   0.200E+00       0.034     3347.931
     NS sqrt iter    4 1.00000000   0.250E-01       0.034     3342.360
     NS sqrt iter    5 1.00000000   0.108E-03       0.034     3353.164
     NS sqrt iter    6 1.00000000   0.230E-10       0.018     2227.351
     Symmetrizing Results
     Final NS sqrt iter    6 1.00000000   0.218E-11

     Est. extremal eigenvalues     -0.83556     2.59785  converged:  T
     TRS4 it   1 1.00000000   0.286E+02       0.007     2132.772   0.100E-11
     TRS4 it   2 1.00000000   0.235E+02       0.013     2194.365   0.100E-11
     TRS4 it   3 1.00000000   0.154E+02       0.013     2197.498   0.100E-11
     TRS4 it   4 1.00000000   0.891E+01       0.013     2207.603   0.100E-11
     TRS4 it   5 1.00000000   0.366E+01       0.013     2222.500   0.100E-11
     TRS4 it   6 1.00000000   0.919E+00       0.013     2225.163   0.100E-11
     TRS4 it   7 1.00000000   0.107E+00       0.013     2216.889   0.100E-11
     TRS4 it   8 1.00000000   0.215E-02       0.013     2207.110   0.100E-11
     TRS4 it   9 1.00000000   0.120E-05       0.013     2202.697   0.100E-11
     TRS4 it  10 1.00000000   0.639E-12       0.013     2227.156   0.100E-11
     Final TRS4 iteration   10 1.00000000   0.639E-12
     Chemical potential (mu):       0.04984
 
 PAO| energy:  -191.90360759922342      penalty:   4.9659875923693656E-004
 PAO|LS| adapt:  T T F
 PAO|LS| adapt: scan_steps:    0.0000000000000000       0.21705734158551632        0.0000000000000000     
 PAO|LS| adapt: energies:   -191.89988149620581       -191.90360759922342        0.0000000000000000     
 PAO| ======================= Iteration:        21 =============================

     Lanczos converged:  F threshold:   0.100E-02
     Est. extremal eigenvalues:    0.475E+01   0.133E+00
     Est. condition number :    0.356E+02

 Order=           3
     NS sqrt iter    1 1.00000000   0.122E+01       0.021     2688.712
     NS sqrt iter    2 1.00000000   0.622E+00       0.034     3344.490
     NS sqrt iter    3 1.00000000   0.200E+00       0.034     3371.464
     NS sqrt iter    4 1.00000000   0.250E-01       0.033     3391.908
     NS sqrt iter    5 1.00000000   0.108E-03       0.034     3360.730
     NS sqrt iter    6 1.00000000   0.227E-10       0.018     2215.204
     Symmetrizing Results
     Final NS sqrt iter    6 1.00000000   0.218E-11

     Est. extremal eigenvalues     -0.83556     2.59812  converged:  T
     TRS4 it   1 1.00000000   0.286E+02       0.007     2144.983   0.100E-11
     TRS4 it   2 1.00000000   0.235E+02       0.013     2212.074   0.100E-11
     TRS4 it   3 1.00000000   0.154E+02       0.013     2213.997   0.100E-11
     TRS4 it   4 1.00000000   0.890E+01       0.013     2229.104   0.100E-11
     TRS4 it   5 1.00000000   0.365E+01       0.013     2207.286   0.100E-11
     TRS4 it   6 1.00000000   0.916E+00       0.013     2190.267   0.100E-11
     TRS4 it   7 1.00000000   0.106E+00       0.013     2202.387   0.100E-11
     TRS4 it   8 1.00000000   0.212E-02       0.013     2215.891   0.100E-11
     TRS4 it   9 1.00000000   0.117E-05       0.013     2218.842   0.100E-11
     TRS4 it  10 1.00000000   0.574E-12       0.013     2216.410   0.100E-11
     Final TRS4 iteration   10 1.00000000   0.574E-12
     Chemical potential (mu):       0.05000
 
 PAO| energy:  -191.90553643501210      penalty:   4.8771924821710904E-004
 PAO|LS| adapt:  T T F
 PAO|LS| adapt: scan_steps:    0.0000000000000000       0.43411468317103263        0.0000000000000000     
 PAO|LS| adapt: energies:   -191.89988149620581       -191.90553643501210        0.0000000000000000     
 PAO| ======================= Iteration:        22 =============================

     Lanczos converged:  F threshold:   0.100E-02
     Est. extremal eigenvalues:    0.474E+01   0.133E+00
     Est. condition number :    0.356E+02

 Order=           3
     NS sqrt iter    1 1.00000000   0.122E+01       0.021     2704.947
     NS sqrt iter    2 1.00000000   0.622E+00       0.034     3375.319
     NS sqrt iter    3 1.00000000   0.200E+00       0.034     3358.460
     NS sqrt iter    4 1.00000000   0.250E-01       0.033     3383.744
     NS sqrt iter    5 1.00000000   0.107E-03       0.034     3355.045
     NS sqrt iter    6 1.00000000   0.222E-10       0.018     2213.215
     Symmetrizing Results
     Final NS sqrt iter    6 1.00000000   0.218E-11

     Est. extremal eigenvalues     -0.83556     2.59867  converged:  T
     TRS4 it   1 1.00000000   0.286E+02       0.007     2134.852   0.100E-11
     TRS4 it   2 1.00000000   0.235E+02       0.013     2210.078   0.100E-11
     TRS4 it   3 1.00000000   0.154E+02       0.013     2250.735   0.100E-11
     TRS4 it   4 1.00000000   0.888E+01       0.013     2220.897   0.100E-11
     TRS4 it   5 1.00000000   0.363E+01       0.013     2223.105   0.100E-11
     TRS4 it   6 1.00000000   0.909E+00       0.013     2212.738   0.100E-11
     TRS4 it   7 1.00000000   0.105E+00       0.013     2218.157   0.100E-11
     TRS4 it   8 1.00000000   0.207E-02       0.013     2217.341   0.100E-11
     TRS4 it   9 1.00000000   0.111E-05       0.013     2207.115   0.100E-11
     TRS4 it  10 1.00000000   0.528E-12       0.013     2207.615   0.100E-11
     Final TRS4 iteration   10 1.00000000   0.528E-12
     Chemical potential (mu):       0.05034
 
 PAO| energy:  -191.90392329869974      penalty:   4.7109725799194656E-004
 PAO|LS| Need extra step
 PAO|LS| adapt:  T T T
 PAO|LS| adapt: scan_steps:    0.0000000000000000       0.43411468317103263       0.86822936634206527     
 PAO|LS| adapt: energies:   -191.89988149620581       -191.90553643501210       -191.90392329869974     
 PAO|LS| adapt: suggested step_size:   0.55482104492774165     
 PAO|LS| adapt: predicted energy  -191.90581739260975     
 PAO| ======================= Iteration:        23 =============================

     Lanczos converged:  F threshold:   0.100E-02
     Est. extremal eigenvalues:    0.475E+01   0.133E+00
     Est. condition number :    0.356E+02

 Order=           3
     NS sqrt iter    1 1.00000000   0.122E+01       0.021     2678.065
     NS sqrt iter    2 1.00000000   0.622E+00       0.033     3381.536
     NS sqrt iter    3 1.00000000   0.200E+00       0.034     3368.207
     NS sqrt iter    4 1.00000000   0.250E-01       0.034     3347.215
     NS sqrt iter    5 1.00000000   0.108E-03       0.034     3374.548
     NS sqrt iter    6 1.00000000   0.226E-10       0.018     2222.917
     Symmetrizing Results
     Final NS sqrt iter    6 1.00000000   0.218E-11

     Est. extremal eigenvalues     -0.83556     2.59827  converged:  T
     TRS4 it   1 1.00000000   0.286E+02       0.007     2129.252   0.100E-11
     TRS4 it   2 1.00000000   0.235E+02       0.013     2220.040   0.100E-11
     TRS4 it   3 1.00000000   0.154E+02       0.013     2205.687   0.100E-11
     TRS4 it   4 1.00000000   0.889E+01       0.013     2234.759   0.100E-11
     TRS4 it   5 1.00000000   0.365E+01       0.013     2231.142   0.100E-11
     TRS4 it   6 1.00000000   0.914E+00       0.013     2232.789   0.100E-11
     TRS4 it   7 1.00000000   0.106E+00       0.013     2250.752   0.100E-11
     TRS4 it   8 1.00000000   0.211E-02       0.013     2225.578   0.100E-11
     TRS4 it   9 1.00000000   0.115E-05       0.013     2222.040   0.100E-11
     TRS4 it  10 1.00000000   0.574E-12       0.013     2217.253   0.100E-11
     Final TRS4 iteration   10 1.00000000   0.574E-12
     Chemical potential (mu):       0.05009
 
 PAO| energy:  -191.90582416575793      penalty:   4.8294628569677932E-004
 PAO|CG| trace_G_new    1.5284879006161423E-002
 PAO|CG| trace_G_prev    2.1268003469147909E-002
 PAO|CG| trace_G_mix    1.0896432790453598E-004
 PAO|CG| trace_D    2.7336264353811982E-002
 PAO|CG| trace_D_Gnew  -4.6757661884005232E-005
 PAO|CG| beta:   0.71355615021746566     
 PAO| norm of gradient:  0.12363203066423128     
 PAO| energy improvement:  -5.9426695521267447E-003
 PAO| step     23                 -191.905824166  0.241E-03  0.555E+00     1.920
 PAO|LS| adapt:  T F F
 PAO|LS| adapt: scan_steps:    0.0000000000000000        0.0000000000000000        0.0000000000000000     
 PAO|LS| adapt: energies:   -191.90582416575793        0.0000000000000000        0.0000000000000000     
 PAO| ======================= Iteration:        24 =============================

     Lanczos converged:  F threshold:   0.100E-02
     Est. extremal eigenvalues:    0.474E+01   0.133E+00
     Est. condition number :    0.357E+02

 Order=           3
     NS sqrt iter    1 1.00000000   0.122E+01       0.021     2706.000
     NS sqrt iter    2 1.00000000   0.621E+00       0.033     3393.550
     NS sqrt iter    3 1.00000000   0.199E+00       0.034     3367.090
     NS sqrt iter    4 1.00000000   0.250E-01       0.034     3343.588
     NS sqrt iter    5 1.00000000   0.107E-03       0.034     3356.549
     NS sqrt iter    6 1.00000000   0.223E-10       0.018     2204.809
     Symmetrizing Results
     Final NS sqrt iter    6 1.00000000   0.217E-11

     Est. extremal eigenvalues     -0.83557     2.59943  converged:  T
     TRS4 it   1 1.00000000   0.286E+02       0.007     2124.678   0.100E-11
     TRS4 it   2 1.00000000   0.235E+02       0.013     2223.467   0.100E-11
     TRS4 it   3 1.00000000   0.154E+02       0.013     2239.182   0.100E-11
     TRS4 it   4 1.00000000   0.888E+01       0.013     2197.540   0.100E-11
     TRS4 it   5 1.00000000   0.363E+01       0.013     2220.149   0.100E-11
     TRS4 it   6 1.00000000   0.908E+00       0.013     2215.479   0.100E-11
     TRS4 it   7 1.00000000   0.105E+00       0.013     2247.617   0.100E-11
     TRS4 it   8 1.00000000   0.206E-02       0.013     2219.974   0.100E-11
     TRS4 it   9 1.00000000   0.110E-05       0.013     2234.123   0.100E-11
     TRS4 it  10 1.00000000   0.535E-12       0.013     2229.156   0.100E-11
     Final TRS4 iteration   10 1.00000000   0.535E-12
     Chemical potential (mu):       0.05037
 
 PAO| energy:  -191.90847810239657      penalty:   4.4734953568548218E-004
 PAO|LS| adapt:  T T F
 PAO|LS| adapt: scan_steps:    0.0000000000000000       0.55482104492774165        0.0000000000000000     
 PAO|LS| adapt: energies:   -191.90582416575793       -191.90847810239657        0.0000000000000000     
 PAO| ======================= Iteration:        25 =============================

     Lanczos converged:  F threshold:   0.100E-02
     Est. extremal eigenvalues:    0.473E+01   0.132E+00
     Est. condition number :    0.358E+02

 Order=           3
     NS sqrt iter    1 1.00000000   0.121E+01       0.021     2669.094
     NS sqrt iter    2 1.00000000   0.620E+00       0.034     3347.402
     NS sqrt iter    3 1.00000000   0.199E+00       0.034     3364.700
     NS sqrt iter    4 1.00000000   0.250E-01       0.034     3345.908
     NS sqrt iter    5 1.00000000   0.107E-03       0.033     3381.378
     NS sqrt iter    6 1.00000000   0.222E-10       0.019     2188.130
     Symmetrizing Results
     Final NS sqrt iter    6 1.00000000   0.215E-11

     Est. extremal eigenvalues     -0.83557     2.60057  converged:  T
     TRS4 it   1 1.00000000   0.286E+02       0.007     2136.035   0.100E-11
     TRS4 it   2 1.00000000   0.235E+02       0.013     2238.405   0.100E-11
     TRS4 it   3 1.00000000   0.154E+02       0.013     2223.590   0.100E-11
     TRS4 it   4 1.00000000   0.886E+01       0.013     2187.423   0.100E-11
     TRS4 it   5 1.00000000   0.361E+01       0.013     2237.894   0.100E-11
     TRS4 it   6 1.00000000   0.901E+00       0.013     2222.725   0.100E-11
     TRS4 it   7 1.00000000   0.103E+00       0.013     2212.121   0.100E-11
     TRS4 it   8 1.00000000   0.202E-02       0.013     2235.881   0.100E-11
     TRS4 it   9 1.00000000   0.106E-05       0.013     2209.169   0.100E-11
     TRS4 it  10 1.00000000   0.476E-12       0.013     2230.832   0.100E-11
     Final TRS4 iteration   10 1.00000000   0.476E-12
     Chemical potential (mu):       0.05065
 
 PAO| energy:  -191.89926584257216      penalty:   4.1513901078201989E-004
 PAO|LS| adapt:  T T T
 PAO|LS| adapt: scan_steps:    0.0000000000000000       0.55482104492774165        1.1096420898554833     
 PAO|LS| adapt: energies:   -191.90582416575793       -191.90847810239657       -191.89926584257216     
 PAO|LS| adapt: suggested step_size:   0.40149913869455001     
 PAO|LS| adapt: predicted energy  -191.90893119201070     
 PAO| ======================= Iteration:        26 =============================

     Lanczos converged:  F threshold:   0.100E-02
     Est. extremal eigenvalues:    0.474E+01   0.133E+00
     Est. condition number :    0.357E+02

 Order=           3
     NS sqrt iter    1 1.00000000   0.122E+01       0.021     2693.766
     NS sqrt iter    2 1.00000000   0.621E+00       0.034     3350.881
     NS sqrt iter    3 1.00000000   0.199E+00       0.033     3383.578
     NS sqrt iter    4 1.00000000   0.250E-01       0.034     3370.918
     NS sqrt iter    5 1.00000000   0.108E-03       0.033     3390.998
     NS sqrt iter    6 1.00000000   0.224E-10       0.018     2229.887
     Symmetrizing Results
     Final NS sqrt iter    6 1.00000000   0.217E-11

     Est. extremal eigenvalues     -0.83557     2.59911  converged:  T
     TRS4 it   1 1.00000000   0.286E+02       0.007     2145.170   0.100E-11
     TRS4 it   2 1.00000000   0.235E+02       0.013     2218.942   0.100E-11
     TRS4 it   3 1.00000000   0.154E+02       0.013     2172.792   0.100E-11
     TRS4 it   4 1.00000000   0.888E+01       0.013     2216.713   0.100E-11
     TRS4 it   5 1.00000000   0.363E+01       0.013     2244.562   0.100E-11
     TRS4 it   6 1.00000000   0.909E+00       0.013     2208.468   0.100E-11
     TRS4 it   7 1.00000000   0.105E+00       0.013     2218.482   0.100E-11
     TRS4 it   8 1.00000000   0.207E-02       0.013     2223.171   0.100E-11
     TRS4 it   9 1.00000000   0.112E-05       0.013     2230.883   0.100E-11
     TRS4 it  10 1.00000000   0.552E-12       0.013     2242.004   0.100E-11
     Final TRS4 iteration   10 1.00000000   0.552E-12
     Chemical potential (mu):       0.05029
 
 PAO| energy:  -191.90891990014171      penalty:   4.5684206924970146E-004
 PAO|CG| trace_G_new    1.1013161504721872E-002
 PAO|CG| trace_G_prev    1.5284879006161423E-002
 PAO|CG| trace_G_mix    1.9700465399507920E-004
 PAO|CG| trace_D    2.9270204845963637E-002
 PAO|CG| trace_D_Gnew  -6.1367008322821867E-005
 PAO|CG| beta:   0.70763771478771520     
 PAO| norm of gradient:  0.10494361107147911     
 PAO| energy improvement:  -3.0957343837769713E-003
 PAO| step     26                 -191.908919900  0.205E-03  0.401E+00     1.479
 PAO|LS| adapt:  T F F
 PAO|LS| adapt: scan_steps:    0.0000000000000000        0.0000000000000000        0.0000000000000000     
 PAO|LS| adapt: energies:   -191.90891990014171        0.0000000000000000        0.0000000000000000     
 PAO| ======================= Iteration:        27 =============================

     Lanczos converged:  F threshold:   0.100E-02
     Est. extremal eigenvalues:    0.473E+01   0.132E+00
     Est. condition number :    0.358E+02

 Order=           3
     NS sqrt iter    1 1.00000000   0.122E+01       0.021     2693.574
     NS sqrt iter    2 1.00000000   0.620E+00       0.034     3360.118
     NS sqrt iter    3 1.00000000   0.199E+00       0.034     3339.914
     NS sqrt iter    4 1.00000000   0.249E-01       0.033     3386.970
     NS sqrt iter    5 1.00000000   0.107E-03       0.034     3378.971
     NS sqrt iter    6 1.00000000   0.221E-10       0.018     2216.622
     Symmetrizing Results
     Final NS sqrt iter    6 1.00000000   0.216E-11

     Est. extremal eigenvalues     -0.83558     2.59847  converged:  T
     TRS4 it   1 1.00000000   0.286E+02       0.007     2121.950   0.100E-11
     TRS4 it   2 1.00000000   0.235E+02       0.013     2220.694   0.100E-11
     TRS4 it   3 1.00000000   0.154E+02       0.013     2228.397   0.100E-11
     TRS4 it   4 1.00000000   0.887E+01       0.013     2219.525   0.100E-11
     TRS4 it   5 1.00000000   0.362E+01       0.013     2231.318   0.100E-11
     TRS4 it   6 1.00000000   0.904E+00       0.013     2214.706   0.100E-11
     TRS4 it   7 1.00000000   0.104E+00       0.013     2219.169   0.100E-11
     TRS4 it   8 1.00000000   0.203E-02       0.013     2229.153   0.100E-11
     TRS4 it   9 1.00000000   0.108E-05       0.013     2212.098   0.100E-11
     TRS4 it  10 1.00000000   0.528E-12       0.013     2232.447   0.100E-11
     Final TRS4 iteration   10 1.00000000   0.528E-12
     Chemical potential (mu):       0.05052
 
 PAO| energy:  -191.91109873004581      penalty:   4.2517121543162372E-004
 PAO|LS| adapt:  T T F
 PAO|LS| adapt: scan_steps:    0.0000000000000000       0.40149913869455001        0.0000000000000000     
 PAO|LS| adapt: energies:   -191.90891990014171       -191.91109873004581        0.0000000000000000     
 PAO| ======================= Iteration:        28 =============================

     Lanczos converged:  F threshold:   0.100E-02
     Est. extremal eigenvalues:    0.472E+01   0.132E+00
     Est. condition number :    0.358E+02

 Order=           3
     NS sqrt iter    1 1.00000000   0.121E+01       0.021     2688.014
     NS sqrt iter    2 1.00000000   0.619E+00       0.034     3374.927
     NS sqrt iter    3 1.00000000   0.198E+00       0.034     3348.572
     NS sqrt iter    4 1.00000000   0.248E-01       0.034     3362.864
     NS sqrt iter    5 1.00000000   0.107E-03       0.034     3373.273
     NS sqrt iter    6 1.00000000   0.219E-10       0.018     2209.784
     Symmetrizing Results
     Final NS sqrt iter    6 1.00000000   0.215E-11

     Est. extremal eigenvalues     -0.83559     2.59783  converged:  T
     TRS4 it   1 1.00000000   0.286E+02       0.007     2138.654   0.100E-11
     TRS4 it   2 1.00000000   0.235E+02       0.013     2205.194   0.100E-11
     TRS4 it   3 1.00000000   0.154E+02       0.013     2213.396   0.100E-11
     TRS4 it   4 1.00000000   0.885E+01       0.013     2211.457   0.100E-11
     TRS4 it   5 1.00000000   0.361E+01       0.013     2205.620   0.100E-11
     TRS4 it   6 1.00000000   0.898E+00       0.013     2211.033   0.100E-11
     TRS4 it   7 1.00000000   0.103E+00       0.013     2222.878   0.100E-11
     TRS4 it   8 1.00000000   0.200E-02       0.013     2236.816   0.100E-11
     TRS4 it   9 1.00000000   0.104E-05       0.013     2208.375   0.100E-11
     TRS4 it  10 1.00000000   0.469E-12       0.013     2204.359   0.100E-11
     Final TRS4 iteration   10 1.00000000   0.469E-12
     Chemical potential (mu):       0.05076
 
 PAO| energy:  -191.90872302028777      penalty:   3.9569021770602565E-004
 PAO|LS| adapt:  T T T
 PAO|LS| adapt: scan_steps:    0.0000000000000000       0.40149913869455001       0.80299827738910001     
 PAO|LS| adapt: energies:   -191.90891990014171       -191.91109873004581       -191.90872302028777     
 PAO|LS| adapt: suggested step_size:   0.39282130321071418     
 PAO|LS| adapt: predicted energy  -191.91109979386565     
 PAO| ======================= Iteration:        29 =============================

     Lanczos converged:  F threshold:   0.100E-02
     Est. extremal eigenvalues:    0.473E+01   0.132E+00
     Est. condition number :    0.358E+02

 Order=           3
     NS sqrt iter    1 1.00000000   0.122E+01       0.021     2693.216
     NS sqrt iter    2 1.00000000   0.620E+00       0.033     3383.380
     NS sqrt iter    3 1.00000000   0.199E+00       0.033     3402.591
     NS sqrt iter    4 1.00000000   0.249E-01       0.034     3365.197
     NS sqrt iter    5 1.00000000   0.107E-03       0.034     3359.391
     NS sqrt iter    6 1.00000000   0.221E-10       0.018     2214.003
     Symmetrizing Results
     Final NS sqrt iter    6 1.00000000   0.216E-11

     Est. extremal eigenvalues     -0.83558     2.59848  converged:  T
     TRS4 it   1 1.00000000   0.286E+02       0.007     2146.859   0.100E-11
     TRS4 it   2 1.00000000   0.235E+02       0.013     2217.899   0.100E-11
     TRS4 it   3 1.00000000   0.154E+02       0.013     2226.516   0.100E-11
     TRS4 it   4 1.00000000   0.887E+01       0.013     2217.704   0.100E-11
     TRS4 it   5 1.00000000   0.362E+01       0.013     2233.236   0.100E-11
     TRS4 it   6 1.00000000   0.904E+00       0.013     2215.951   0.100E-11
     TRS4 it   7 1.00000000   0.104E+00       0.013     2211.600   0.100E-11
     TRS4 it   8 1.00000000   0.203E-02       0.013     2201.169   0.100E-11
     TRS4 it   9 1.00000000   0.108E-05       0.013     2209.323   0.100E-11
[...]
     TRS4 it   4 1.00000000   0.926E+01       0.013     2197.919   0.100E-11
     TRS4 it   5 1.00000000   0.416E+01       0.013     2246.082   0.100E-11
     TRS4 it   6 1.00000000   0.130E+01       0.013     2223.255   0.100E-11
     TRS4 it   7 1.00000000   0.228E+00       0.013     2221.426   0.100E-11
     TRS4 it   8 1.00000000   0.105E-01       0.013     2218.290   0.100E-11
     TRS4 it   9 1.00000000   0.264E-04       0.013     2247.867   0.100E-11
     TRS4 it  10 1.00000000   0.264E-09       0.013     2221.161   0.100E-11
     TRS4 it  11 1.00000000   0.533E-14       0.013     2198.045   0.100E-11
     Final TRS4 iteration   11 1.00000000   0.533E-14
     Chemical potential (mu):       0.02018
 
 PAO| energy:  -191.53518757050819      penalty:   3.8387819388489628E-008
 PAO| Writing restart file.
     Est. extremal eigenvalues     -0.83546     2.61089  converged:  T
     TRS4 it   1 1.00000000   0.289E+02       0.007     2162.057   0.100E-11
     TRS4 it   2 1.00000000   0.238E+02       0.013     2237.509   0.100E-11
     TRS4 it   3 1.00000000   0.156E+02       0.013     2209.082   0.100E-11
     TRS4 it   4 1.00000000   0.926E+01       0.013     2194.719   0.100E-11
     TRS4 it   5 1.00000000   0.416E+01       0.013     2222.203   0.100E-11
     TRS4 it   6 1.00000000   0.130E+01       0.013     2230.136   0.100E-11
     TRS4 it   7 1.00000000   0.228E+00       0.013     2221.731   0.100E-11
     TRS4 it   8 1.00000000   0.105E-01       0.013     2220.166   0.100E-11
     TRS4 it   9 1.00000000   0.264E-04       0.013     2205.526   0.100E-11
     TRS4 it  10 1.00000000   0.264E-09       0.013     2217.288   0.100E-11
     TRS4 it  11 1.00000000   0.533E-14       0.013     2188.458   0.100E-11
     Final TRS4 iteration   11 1.00000000   0.533E-14
     Chemical potential (mu):       0.02018

 SCF     1     -1103.033352939     -1103.033352939    1.755460

*********************************************************
 Using MIXING_FRACTION=0.450 to mix KS matrix:  iscf=  2
 KS_nw=0.450*KS + 0.550*KS_old
*********************************************************
     Est. extremal eigenvalues     -0.83546     2.61089  converged:  T
     TRS4 it   1 1.00000000   0.289E+02       0.007     2145.969   0.100E-11
     TRS4 it   2 1.00000000   0.238E+02       0.013     2216.502   0.100E-11
     TRS4 it   3 1.00000000   0.156E+02       0.013     2206.181   0.100E-11
     TRS4 it   4 1.00000000   0.926E+01       0.013     2228.804   0.100E-11
     TRS4 it   5 1.00000000   0.416E+01       0.013     2216.283   0.100E-11
     TRS4 it   6 1.00000000   0.130E+01       0.013     2200.519   0.100E-11
     TRS4 it   7 1.00000000   0.228E+00       0.013     2203.235   0.100E-11
     TRS4 it   8 1.00000000   0.105E-01       0.013     2209.912   0.100E-11
     TRS4 it   9 1.00000000   0.264E-04       0.013     2218.382   0.100E-11
     TRS4 it  10 1.00000000   0.264E-09       0.013     2209.437   0.100E-11
     TRS4 it  11 1.00000000   0.231E-13       0.013     2201.551   0.100E-11
     Final TRS4 iteration   11 1.00000000   0.231E-13
     Chemical potential (mu):       0.02018

 SCF     2     -1103.033352939        -0.000000000    1.755490


 SCF run converged in     2 steps.

 PAO| Storing density matrix for ASPC guess in slot:           1

 ENERGY| Total FORCE_EVAL ( QS ) energy [a.u.]:            -1103.033352939071392

 -------------------------------------------------------------------------------
 -                                                                             -
 -                                DBCSR STATISTICS                             -
 -                                                                             -
 -------------------------------------------------------------------------------
 COUNTER                                    TOTAL       BLAS       SMM       ACC
 flops     5 x     5 x     4             26419200       0.0%    100.0%      0.0%     
 flops    13 x     5 x     4             34078720       0.0%    100.0%      0.0%     
 flops     5 x    13 x     4             34078720       0.0%    100.0%      0.0%     
 flops    13 x    13 x     4             44994560       0.0%    100.0%      0.0%     
 flops     4 x     4 x     5           6307184640       0.0%    100.0%      0.0%     
 flops     5 x     4 x     5           7782400000       0.0%    100.0%      0.0%     
 flops     4 x     4 x    13           8199340032       0.0%    100.0%      0.0%     
 flops    13 x     4 x     5          10117120000       0.0%    100.0%      0.0%     
 flops     5 x     4 x    13          10117120000       0.0%    100.0%      0.0%     
 flops    13 x     4 x    13          13152256000       0.0%    100.0%      0.0%     
 flops     5 x     4 x     4         406039176000       0.0%    100.0%      0.0%     
 flops    13 x     4 x     4         560318150080       0.0%    100.0%      0.0%     
 flops     4 x     4 x     4       28392971888256       0.0%    100.0%      0.0%     
 flops inhomo. stacks                           0       0.0%      0.0%      0.0%
 flops total                        29.415144E+12       0.0%    100.0%      0.0%
 flops max/rank                    927.820340E+09       0.0%    100.0%      0.0%
 matmuls inhomo. stacks                         0       0.0%      0.0%      0.0%
 matmuls total                       225851734661       0.0%    100.0%      0.0%
 number of processed stacks             230718458       0.0%    100.0%      0.0%
 average stack size                                     0.0     978.9       0.0
 marketing flops                    51.003412E+12
 -------------------------------------------------------------------------------
 # multiplications                          47711
 max memory usage/rank             620.744704E+06
 # max total images/rank                        2
 # max 3D layers                                1
 # MPI messages exchanged                19847776
 MPI messages size (bytes):
  total size                         2.349833E+12
  min size                           0.000000E+00
  max size                         541.696000E+03
  average size                     118.392766E+03
 MPI breakdown and total messages size (bytes):
             size <=      128              865821                    11520
       128 < size <=     8192              298314               1130544768
      8192 < size <=    32768               67781               1613835392
     32768 < size <=   131072             8515998             626511780992
    131072 < size <=  4194304            10099862            1720950790400
   4194304 < size <= 16777216                   0                        0
  16777216 < size                               0                        0
 -------------------------------------------------------------------------------

 *** WARNING in dbcsr_mm.F:301 :: Using a non-square number of MPI ranks ***
 *** might lead to poor performance. Used ranks: 32 Suggested: 36 64     ***

 -------------------------------------------------------------------------------
 -                                                                             -
 -                      DBCSR MESSAGE PASSING PERFORMANCE                      -
 -                                                                             -
 -------------------------------------------------------------------------------
 ROUTINE             CALLS      AVE VOLUME [Bytes]
 MP_Bcast               14                     12.
 MP_Allreduce       285773                     37.
 MP_Alltoall        123712                  14784.
 MP_ISend          1594356                  55139.
 MP_IRecv          1560554                  56395.
 -------------------------------------------------------------------------------

 -------------------------------------------------------------------------------
 -                                                                             -
 -                                DBM STATISTICS                               -
 -                                                                             -
 -------------------------------------------------------------------------------
    M  x    N  x    K                                          COUNT     PERCENT
 -------------------------------------------------------------------------------

 -------------------------------------------------------------------------------
 -                                                                             -
 -                                GRID STATISTICS                              -
 -                                                                             -
 -------------------------------------------------------------------------------
 LP    KERNEL             BACKEND                              COUNT     PERCENT
 2     collocate ortho    CPU                               13112672      28.83%
 2     integrate ortho    CPU                               13112672      28.83%
 3     collocate ortho    CPU                                8426800      18.53%
 3     integrate ortho    CPU                                8426800      18.53%
 4     collocate ortho    CPU                                1197968       2.63%
 4     integrate ortho    CPU                                1197968       2.63%
 0     collocate general  CPU                                   6144       0.01%
 -------------------------------------------------------------------------------

 MEMORY| Estimated peak process memory [MiB]                                 592

 -------------------------------------------------------------------------------
 -                                                                             -
 -                         MESSAGE PASSING PERFORMANCE                         -
 -                                                                             -
 -------------------------------------------------------------------------------

 ROUTINE             CALLS      AVE VOLUME [Bytes]
 MP_Group                5
 MP_Bcast           347209                   2008.
 MP_Allreduce       863209                    514.
 MP_Sync                 5
 MP_Alltoall           419                 827295.
 MP_SendRecv          1488                  18832.
 MP_ISendRecv         1488                  18832.
 MP_Wait              4218
 MP_ISend             2470                 108139.
 MP_IRecv             2470                 108153.
 -------------------------------------------------------------------------------


 -------------------------------------------------------------------------------
 -                                                                             -
 -                           R E F E R E N C E S                               -
 -                                                                             -
 -------------------------------------------------------------------------------
 
 CP2K version 2024.3 (Development Version), the CP2K developers group (2024).
 CP2K is freely available from https://www.cp2k.org/ .
 
 T. D. Kuehne, M. Iannuzzi, M. Del Ben, V. V. Rybkin, P. Seewald, F. Stein, T. 
 Laino, R. Z. Khaliullin, O. Schuett, F. Schiffmann, D. Golze, J. Wilhelm, S. 
 Chulkov, M. H. Bani-Hashemian, V. Weber, U. Borstnik, M. Taillefumier, A. S. 
 Jakobovits, A. Lazzaro, H. Pabst, T. Mueller, R. Schade, M. Guidon, S. 
 Andermatt, N. Holmberg, G. K. Schenter, A. Hehn, A. Bussy, F. Belleflamme, G. 
 Tabacchi, A. Gloess, M. Lass, I. Bethune, C. J. Mundy, C. Plessl, M. Watkins, 
 J. VandeVondele, M. Krack, J. Hutter.
 J. Chem. Phys. 152, 194103 (2020).
 CP2K: An electronic structure and molecular dynamics software package - 
 Quickstep: Efficient and accurate electronic structure calculations.
 https://doi.org/10.1063/5.0007045

 O. Schuett, J. VandeVondele.
 J. Chem. Theory Comput. 14, 4168-4175 (2018).
 Machine Learning Adaptive Basis Sets for Efficient Large Scale Density 
 Functional Theory Simulation.
 https://doi.org/10.1021/acs.jctc.8b00378

 O. Schuett, P. Messmer, J. Hutter, J. VandeVondele.
 Electronic Structure Calculations on Graphics Processing Units, 173-190 (2016).
 GPU-Accelerated Sparse Matrix-Matrix Multiplication for Linear Scaling Density 
 Functional Theory.
 https://doi.org/10.1002/9781118670712.ch8

 A. Heinecke, G. Henry, M. Hutchinson, H. Pabst.
 Proceedings of Intl. Supercomputing Conference, 981-991 (2016).
 LIBXSMM: Accelerating Small Matrix Multiplications by Runtime Code Generation.
 https://doi.org/10.1109/SC.2016.83

 J. Hutter, M. Iannuzzi, F. Schiffmann, J. VandeVondele.
 WIREs Comput Mol Sci. 4, 15-25 (2014).
 CP2K: atomistic simulations of condensed matter systems.
 https://doi.org/10.1002/wcms.1159

 U. Borstnik, J. VandeVondele, V. Weber, J. Hutter.
 Parallel Comput. 40, 47-58 (2014).
 Sparse matrix multiplication: The distributed block-compressed sparse row 
 library.
 https://doi.org/10.1016/j.parco.2014.03.012

 A. Marek, V. Blum, R. Johanni, V. Havu, B. Lang, T. Auckenthaler, A. Heinecke, 
 H. Bungartz, H. Lederer.
 J. Phys. Condens. Matter 26, 213201 (2014).
 The ELPA library: scalable parallel eigenvalue solutions for electronic 
 structure theory and computational science.
 https://doi.org/10.1088/0953-8984/26/21/213201

 J. VandeVondele, U. Borstnik, J. Hutter.
 J. Chem. Theory Comput. 8, 3565-3573 (2012).
 Linear Scaling Self-Consistent Field Calculations with Millions of Atoms in the 
 Condensed Phase.
 https://doi.org/10.1021/ct200897x

 J. VandeVondele, J. Hutter.
 J. Chem. Phys. 127, 114105 (2007).
 Gaussian basis sets for accurate calculations on molecular systems in gas and 
 condensed phases.
 https://doi.org/10.1063/1.2770708

 J. VandeVondele, M. Krack, F. Mohamed, M. Parrinello, T. Chassaing, J. Hutter.
 Comput. Phys. Commun. 167, 103-128 (2005).
 QUICKSTEP: Fast and accurate density functional calculations using a mixed 
 Gaussian and plane waves approach.
 https://doi.org/10.1016/j.cpc.2004.12.014

 M. Krack.
 Theor. Chem. Acc. 114, 145-152 (2005).
 Pseudopotentials for H to Kr optimized for gradient-corrected 
 exchange-correlation functionals.
 https://doi.org/10.1007/s00214-005-0655-y

 M. Frigo, S. G. Johnson.
 Proc. IEEE 93, 216-231 (2005).
 The design and implementation of FFTW3.
 https://doi.org/10.1109/JPROC.2004.840301

 A. M. N. Niklasson, C. J. Tymczak, M. Challacombe.
 J. Chem. Phys. 118, 8611-8620 (2003).
 Trace resetting density matrix purification in O(N) self-consistent-field 
 theory.
 https://doi.org/10.1063/1.1559913

 C. Hartwigsen, S. Goedecker, J. Hutter.
 Phys. Rev. B 58, 3641-3662 (1998).
 Relativistic separable dual-space Gaussian pseudopotentials from H to Rn.
 https://doi.org/10.1103/PhysRevB.58.3641

 G. Lippert, J. Hutter, M. Parrinello.
 Mol. Phys. 92, 477-487 (1997).
 A hybrid Gaussian and plane wave density functional scheme.
 https://doi.org/10.1080/002689797170220

 S. Goedecker, M. Teter, J. Hutter.
 Phys. Rev. B 54, 1703-1710 (1996).
 Separable dual-space Gaussian pseudopotentials.
 https://doi.org/10.1103/PhysRevB.54.1703

 J. P. Perdew, K. Burke, M. Ernzerhof.
 Phys. Rev. Lett. 77, 3865-3868 (1996).
 Generalized gradient approximation made simple.
 https://doi.org/10.1103/PhysRevLett.77.3865


 -------------------------------------------------------------------------------
 -                                                                             -
 -                                T I M I N G                                  -
 -                                                                             -
 -------------------------------------------------------------------------------
 SUBROUTINE                       CALLS  ASD         SELF TIME        TOTAL TIME
                                MAXIMUM       AVERAGE  MAXIMUM  AVERAGE  MAXIMUM
 CP2K                                 1  1.0    0.012    0.015  424.782  424.782
 qs_energies                          1  2.0    0.000    0.000  424.627  424.627
 ls_scf                               1  3.0    0.000    0.000  423.517  423.518
 pao_update                           7  4.0    0.006    0.024  393.661  393.661
 pao_calc_energy                    791  5.0    0.003    0.017  351.928  351.930
 dbcsr_multiply_generic           47711  8.4    1.327    1.396  329.942  330.136
 multiply_cannon                  47711  9.4    2.472    2.851  266.567  271.102
 multiply_cannon_loop             47711 10.4    1.799    2.044  256.363  259.288
 ls_scf_init_matrix_S               798  7.0    0.008    0.009  205.400  205.444
 pao_rebuild_S                      791  6.0    0.002    0.003  203.587  203.631
 matrix_sqrt_Newton_Schulz          798  8.0    0.163    0.274  190.671  190.700
 multiply_cannon_multrec         381688 11.4  168.925  171.754  169.715  172.535
 pao_dm_trs4                        791  6.0    0.006    0.006  147.970  148.009
 density_matrix_trs4                806  7.0    0.196    0.334  142.494  142.545
 mp_waitall_1                   3055252 12.6   83.498   90.817   83.498   90.817
 multiply_cannon_metrocomm3      381688 11.4    0.674    0.729   66.442   70.405
 arnoldi_extremal                  1604  8.5    0.013    0.014   57.038   57.072
 arnoldi_normal_ev                 1604  9.5    0.035    0.060   57.023   57.056
 build_subspace                    5599 10.7    0.342    0.369   50.161   50.209
 make_m2s                         95422  9.4    0.522    0.739   48.554   49.603
 make_images                      95422 10.4    6.995    7.256   47.263   48.383
 dbcsr_matrix_vector_mult        171178 11.7    0.734    1.102   47.234   47.588
 pao_calc_AB                       1049  5.8    0.002    0.002   41.267   41.269
 pao_calc_AB_equi                  1049  6.8    0.039    0.097   41.265   41.267
 pao_calc_grad_lnv_wrt_AB           257  7.0    0.019    0.023   40.869   40.903
 dbcsr_matrix_vector_mult_local  171178 12.7   40.308   40.688   40.500   40.878
 ls_scf_main                          7  4.0    0.000    0.001   26.345   26.346
 ls_scf_dm_to_ks                     15  5.0    0.000    0.000   23.389   23.391
 make_images_data                 95422 11.4    0.836    1.055   20.712   22.900
 hybrid_alltoall_any              97013 12.4    0.863    1.628   16.305   20.007
 matrix_qs_to_ls                   1604  7.5    0.016    0.022   16.501   16.577
 qs_ks_update_qs_env                 16  6.0    0.000    0.000   13.910   13.912
 rebuild_ks_matrix                   16  7.0    0.000    0.000   13.898   13.901
 qs_ks_build_kohn_sham_matrix        16  8.0    0.003    0.003   13.898   13.900
 calculate_norms                 711536 11.4   11.083   12.060   11.083   12.060
 make_images_pack                 95422 11.4   10.509   10.947   10.638   11.081
 qs_rho_update_rho_low               16  6.0    0.000    0.000   10.944   10.947
 calculate_rho_elec                  16  7.0    0.005    0.006   10.944   10.947
 mp_sum_l                        194588  9.5    7.627   10.843    7.627   10.843
 sum_up_and_integrate                16  9.0    0.000    0.001   10.533   10.536
 integrate_v_rspace                  16 10.0    0.000    0.001   10.518   10.523
 grid_collocate_task_list            16  8.0    9.718    9.867    9.718    9.867
 grid_integrate_task_list            16 11.0    9.280    9.443    9.280    9.443
 -------------------------------------------------------------------------------

 The number of warnings for this run is : 1
 
 -------------------------------------------------------------------------------
  **** **** ******  **  PROGRAM ENDED AT                 2024-09-24 00:15:38.379
 ***** ** ***  *** **   PROGRAM RAN ON                                    moritz
 **    ****   ******    PROGRAM RAN BY                                       ole
 ***** **    ** ** **   PROGRAM PROCESS ID                                164983
  **** **  *******  **  PROGRAM STOPPED IN /home/ole/git/pao_ml_equivar/64H2O_MD
                                           /Frame1500
