 DBCSR| CPU Multiplication driver                                           XSMM (U)
 DBCSR| Multrec recursion limit                                              512 (U)
 DBCSR| Multiplication stack size                                           1000 (D)
 DBCSR| Maximum elements for images                                    UNLIMITED (U)
 DBCSR| Multiplicative factor virtual images                                   1 (U)
 DBCSR| Use multiplication densification                                       T (D)
 DBCSR| Multiplication size stacks                                             3 (U)
 DBCSR| Use memory pool for CPU allocation                                     F (U)
 DBCSR| Number of 3D layers                                               SINGLE (U)
 DBCSR| Use MPI memory allocation                                              F (U)
 DBCSR| Use RMA algorithm                                                      F (U)
 DBCSR| Use Communication thread                                               T (U)
 DBCSR| Communication thread load                                             87 (D)
 DBCSR| MPI: My process id                                                     0
 DBCSR| MPI: Number of processes                                              32
 DBCSR| OMP: Current number of threads                                         1
 DBCSR| OMP: Max number of threads                                             1
 DBCSR| Split modifier for TAS multiplication algorithm                  1.0E+00 (U)


  **** **** ******  **  PROGRAM STARTED AT               2024-09-23 17:34:30.710
 ***** ** ***  *** **   PROGRAM STARTED ON                                moritz
 **    ****   ******    PROGRAM STARTED BY                                   ole
 ***** **    ** ** **   PROGRAM PROCESS ID                                156137
  **** **  *******  **  PROGRAM STARTED IN /home/ole/git/pao_ml_equivar/64H2O_MD
                                           /Frame1500

 CP2K| version string:                 CP2K version 2024.3 (Development Version)
 CP2K| source code revision number:                                  git:3f890bb
 CP2K| cp2kflags: omp libint fftw3 libxc libgrpp pexsi elpa parallel scalapack c
 CP2K|            osma quip deepmd xsmm plumed2 spglib libdftd4 sirius libvori l
 CP2K|            libbqb libvdwxc hdf5
 CP2K| is freely available from                            https://www.cp2k.org/
 CP2K| Program compiled at                          Mo 23 Sep 2024 17:17:04 CEST
 CP2K| Program compiled on                                                moritz
 CP2K| Program compiled for                                                local
 CP2K| Data directory path                               /home/ole/git/cp2k/data
 CP2K| Input file name                                             64H2O_ref.inp

 GLOBAL| Force Environment number                                              1
 GLOBAL| Basis set file name                                        BASIS_MOLOPT
 GLOBAL| Potential file name                                      GTH_POTENTIALS
 GLOBAL| MM Potential file name                                     MM_POTENTIAL
 GLOBAL| Coordinate file name                                         coords.xyz
 GLOBAL| Method name                                                        CP2K
 GLOBAL| Project name                                                  64H2O_ref
 GLOBAL| Run type                                                         ENERGY
 GLOBAL| FFT library                                                       FFTW3
 GLOBAL| Diagonalization library                                            ELPA
 GLOBAL| DGEMM library                                                      BLAS
 GLOBAL| Minimum number of eigenvectors for ELPA usage                        16
 GLOBAL| Orthonormality check for eigenvectors                          DISABLED
 GLOBAL| Matrix multiplication library                                     COSMA
 GLOBAL| All-to-all communication in single precision                          F
 GLOBAL| FFTs using library dependent lengths                                  F
 GLOBAL| Grid backend                                                       AUTO
 GLOBAL| Global print level                                                  LOW
 GLOBAL| MPI I/O enabled                                                       T
 GLOBAL| Total number of message passing processes                            32
 GLOBAL| Number of threads for this process                                    1
 GLOBAL| This output is from process                                           0
 GLOBAL| Stack size for threads created by OpenMP (OMP_STACKSIZE)        default
 GLOBAL| CPU model name           AMD Ryzen Threadripper 3970X 32-Core Processor
 GLOBAL| CPUID                                                              1002

 MEMORY| system memory details [Kb]
 MEMORY|                        rank 0           min           max       average
 MEMORY| MemTotal            131752136     131752136     131752136     131752136
 MEMORY| MemFree             118567612     118567612     118567612     118567612
 MEMORY| Buffers                259516        259516        259516        259516
 MEMORY| Cached                6960712       6960712       6960712       6960712
 MEMORY| Slab                   697936        697936        697936        697936
 MEMORY| SReclaimable           266048        266048        266048        266048
 MEMORY| MemLikelyFree       126053888     126053888     126053888     126053888


 GENERATE|  Preliminary Number of Bonds generated:                             0
 GENERATE|  Achieved consistency in connectivity generation.

 *******************************************************************************
 *******************************************************************************
 **                                                                           **
 **     #####                         ##              ##                      **
 **    ##   ##            ##          ##              ##                      **
 **   ##     ##                       ##            ######                    **
 **   ##     ##  ##   ##  ##   #####  ##  ##   ####   ##    #####    #####    **
 **   ##     ##  ##   ##  ##  ##      ## ##   ##      ##   ##   ##  ##   ##   **
 **   ##  ## ##  ##   ##  ##  ##      ####     ###    ##   ######   ######    **
 **    ##  ###   ##   ##  ##  ##      ## ##      ##   ##   ##       ##        **
 **     #######   #####   ##   #####  ##  ##  ####    ##    #####   ##        **
 **           ##                                                    ##        **
 **                                                                           **
 **                                                ... make the atoms dance   **
 **                                                                           **
 **            Copyright (C) by CP2K developers group (2000-2024)             **
 **                      J. Chem. Phys. 152, 194103 (2020)                    **
 **                                                                           **
 *******************************************************************************


 TOTAL NUMBERS AND MAXIMUM NUMBERS

  Total number of            - Atomic kinds:                                   2
                             - Atoms:                                        192
                             - Shell sets:                                   192
                             - Shells:                                       704
                             - Primitive Cartesian functions:               1344
                             - Cartesian basis functions:                   1536
                             - Spherical basis functions:                   1472

  Maximum angular momentum of- Orbital basis functions:                        2
                             - Local part of the GTH pseudopotential:          2
                             - Non-local part of the GTH pseudopotential:      0

 ------------------------------ Linear scaling SCF -----------------------------
 eps_scf:                                                              0.100E-07
 eps_filter:                                                           0.100E-11
 mixing_fraction:                                                      0.450E+00
 max_scf:                                                                     25
 fixed chemical potential (mu)                                                 F
 has unit metric:                                                              F
 Computing inv(S):                                                             T
 Computing sqrt(S):                                                            T
 Computing S preconditioner                                                    F
 S sqrt method:                                                     NEWTONSCHULZ
 S sqrt order:                                                                 3
 Extrapolation order:                                                          1
 S preconditioner type                                                      NONE
 Polarized Atomic Orbitals (PAO)                                               F
 Purification method                                   Trace resetting 4th order
 Cluster type                                                             ATOMIC
 Computing Chebyshev                                                       FALSE
 Using PAO                                                                     F
 -------------------------------------------------------------------------------


     Lanczos converged:  F threshold:   0.100E-02
     Est. extremal eigenvalues:    0.850E+01   0.562E-02
     Est. condition number :    0.151E+04

 Order=           3
     NS sqrt iter    1 1.00000000   0.219E+01       0.066     6120.624
     NS sqrt iter    2 1.00000000   0.115E+01       0.099     8040.564
     NS sqrt iter    3 1.00000000   0.574E+00       0.097     8189.445
     NS sqrt iter    4 1.00000000   0.331E+00       0.098     8136.108
     NS sqrt iter    5 1.00000000   0.224E+00       0.097     8202.957
     NS sqrt iter    6 1.00000000   0.104E+00       0.098     8099.763
     NS sqrt iter    7 1.00000000   0.126E-01       0.098     8151.946
     NS sqrt iter    8 1.00000000   0.600E-04       0.097     8202.079
     NS sqrt iter    9 1.00000000   0.336E-10       0.059     5818.384
     Symmetrizing Results
     Final NS sqrt iter    9 1.00000000   0.764E-11



 Guess for atomic kind: O

 Electronic structure
    Total number of core electrons                                          2.00
    Total number of valence electrons                                       6.00
    Total number of electrons                                               8.00
    Multiplicity                                                   not specified
    S   [  2.00] 2.00
    P      4.00


 *******************************************************************************
                  Iteration          Convergence                     Energy [au]
 *******************************************************************************
                          1        0.708315                     -15.576645311500
                          2        0.608879                     -15.587933561584
                          3        0.102828E-01                 -15.656849565404
                          4        0.113889E-02                 -15.656866888140
                          5        0.434197E-03                 -15.656867072159
                          6        0.263771E-03                 -15.656867091904
                          7        0.478536E-06                 -15.656867103452

 Energy components [Hartree]           Total Energy ::          -15.656867103452
                                        Band Energy ::           -3.000198112285
                                     Kinetic Energy ::           11.759971203220
                                   Potential Energy ::          -27.416838306672
                                      Virial (-V/T) ::            2.331369510426
                                        Core Energy ::          -26.140716385623
                                          XC Energy ::           -3.154051012914
                                     Coulomb Energy ::           13.637900295084
                       Total Pseudopotential Energy ::          -37.935781716540
                       Local Pseudopotential Energy ::          -39.218907440693
                    Nonlocal Pseudopotential Energy ::            1.283125724153
                                        Confinement ::            0.350941276976

 Orbital energies  State     L     Occupation   Energy[a.u.]          Energy[eV]

                       1     0          2.000      -0.864471          -23.523463

                       1     1          4.000      -0.317814           -8.648154


 Total Electron Density at R=0:                                         0.000068

 Guess for atomic kind: H

 Electronic structure
    Total number of core electrons                                          0.00
    Total number of valence electrons                                       1.00
    Total number of electrons                                               1.00
    Multiplicity                                                   not specified
    S      1.00


 *******************************************************************************
                  Iteration          Convergence                     Energy [au]
 *******************************************************************************
                          1        0.437545E-02                  -0.424159432110
                          2        0.531356E-03                  -0.424178438213
                          3        0.259176E-06                  -0.424178722480

 Energy components [Hartree]           Total Energy ::           -0.424178722480
                                        Band Energy ::           -0.199015229016
                                     Kinetic Energy ::            0.464007633961
                                   Potential Energy ::           -0.888186356441
                                      Virial (-V/T) ::            1.914163240935
                                        Core Energy ::           -0.479160803564
                                          XC Energy ::           -0.244352904054
                                     Coulomb Energy ::            0.299334985138
                       Total Pseudopotential Energy ::           -0.962295316385
                       Local Pseudopotential Energy ::           -0.962295316385
                    Nonlocal Pseudopotential Energy ::            0.000000000000
                                        Confinement ::            0.191268788606

 Orbital energies  State     L     Occupation   Energy[a.u.]          Energy[eV]

                       1     0          1.000      -0.199015           -5.415480


 Total Electron Density at R=0:                                         0.242907
 Re-scaling the density matrix to get the right number of electrons
                  # Electrons              Trace(P)               Scaling factor
                          512               512.001                        1.000
 Energy with the initial guess:     -1095.592735915

     Est. extremal eigenvalues     -0.94748     5.27631  converged:  F
     TRS4 it   1 1.00000000   0.566E+02       0.018     5477.137   0.100E-11
     TRS4 it   2 1.00000000   0.542E+02       0.019     5401.029   0.100E-11
     TRS4 it   3 1.00000000   0.341E+02       0.036     5585.041   0.100E-11
     TRS4 it   4 1.00000000   0.177E+02       0.036     5521.830   0.100E-11
     TRS4 it   5 1.00000000   0.107E+02       0.036     5516.718   0.100E-11
     TRS4 it   6 1.00000000   0.484E+01       0.037     5490.859   0.100E-11
     TRS4 it   7 1.00000000   0.144E+01       0.036     5561.919   0.100E-11
     TRS4 it   8 1.00000000   0.218E+00       0.036     5569.492   0.100E-11
     TRS4 it   9 1.00000000   0.922E-02       0.036     5545.643   0.100E-11
     TRS4 it  10 1.00000000   0.253E-04       0.036     5619.564   0.100E-11
     TRS4 it  11 1.00000000   0.653E-10       0.036     5640.996   0.100E-11
     Final TRS4 iteration   11 1.00000000   0.653E-10
     Chemical potential (mu):      -0.10771

 SCF     1     -1097.827786715     -1097.827786715    2.065097

*********************************************************
 Using MIXING_FRACTION=0.450 to mix KS matrix:  iscf=  2
 KS_nw=0.450*KS + 0.550*KS_old
*********************************************************
     Est. extremal eigenvalues     -0.83791     5.35420  converged:  T
     TRS4 it   1 1.00000000   0.558E+02       0.018     5506.166   0.100E-11
     TRS4 it   2 1.00000000   0.544E+02       0.019     5381.538   0.100E-11
     TRS4 it   3 1.00000000   0.353E+02       0.037     5491.118   0.100E-11
     TRS4 it   4 1.00000000   0.184E+02       0.036     5505.994   0.100E-11
     TRS4 it   5 1.00000000   0.119E+02       0.036     5574.182   0.100E-11
     TRS4 it   6 1.00000000   0.624E+01       0.036     5496.886   0.100E-11
     TRS4 it   7 1.00000000   0.251E+01       0.036     5511.201   0.100E-11
     TRS4 it   8 1.00000000   0.693E+00       0.036     5589.732   0.100E-11
     TRS4 it   9 1.00000000   0.102E+00       0.036     5647.105   0.100E-11
     TRS4 it  10 1.00000000   0.524E-02       0.036     5517.333   0.100E-11
     TRS4 it  11 1.00000000   0.730E-05       0.036     5536.404   0.100E-11
     TRS4 it  12 1.00000000   0.950E-11       0.036     5580.461   0.100E-11
     Final TRS4 iteration   12 1.00000000   0.950E-11
     Chemical potential (mu):      -0.01928

 SCF     2     -1102.946462894        -5.118676179    2.070060

*********************************************************
 Using MIXING_FRACTION=0.450 to mix KS matrix:  iscf=  3
 KS_nw=0.450*KS + 0.550*KS_old
*********************************************************
     Est. extremal eigenvalues     -0.84355     5.34922  converged:  T
     TRS4 it   1 1.00000000   0.559E+02       0.018     5508.322   0.100E-11
     TRS4 it   2 1.00000000   0.543E+02       0.019     5310.010   0.100E-11
     TRS4 it   3 1.00000000   0.352E+02       0.036     5497.978   0.100E-11
     TRS4 it   4 1.00000000   0.183E+02       0.036     5568.830   0.100E-11
     TRS4 it   5 1.00000000   0.117E+02       0.036     5603.795   0.100E-11
     TRS4 it   6 1.00000000   0.598E+01       0.036     5615.719   0.100E-11
     TRS4 it   7 1.00000000   0.230E+01       0.036     5545.462   0.100E-11
     TRS4 it   8 1.00000000   0.590E+00       0.036     5604.468   0.100E-11
     TRS4 it   9 1.00000000   0.748E-01       0.037     5484.637   0.100E-11
     TRS4 it  10 1.00000000   0.262E-02       0.036     5523.738   0.100E-11
     TRS4 it  11 1.00000000   0.160E-05       0.036     5561.634   0.100E-11
     TRS4 it  12 1.00000000   0.503E-12       0.036     5511.186   0.100E-11
     Final TRS4 iteration   12 1.00000000   0.503E-12
     Chemical potential (mu):      -0.02851

 SCF     3     -1103.110994449        -0.164531556    2.070080

*********************************************************
 Using MIXING_FRACTION=0.450 to mix KS matrix:  iscf=  4
 KS_nw=0.450*KS + 0.550*KS_old
*********************************************************
     Est. extremal eigenvalues     -0.83921     5.35310  converged:  T
     TRS4 it   1 1.00000000   0.559E+02       0.019     5409.817   0.100E-11
     TRS4 it   2 1.00000000   0.543E+02       0.019     5331.761   0.100E-11
     TRS4 it   3 1.00000000   0.352E+02       0.037     5477.199   0.100E-11
     TRS4 it   4 1.00000000   0.184E+02       0.036     5536.129   0.100E-11
     TRS4 it   5 1.00000000   0.118E+02       0.036     5583.641   0.100E-11
     TRS4 it   6 1.00000000   0.607E+01       0.036     5540.314   0.100E-11
     TRS4 it   7 1.00000000   0.237E+01       0.037     5461.826   0.100E-11
     TRS4 it   8 1.00000000   0.626E+00       0.036     5592.682   0.100E-11
     TRS4 it   9 1.00000000   0.845E-01       0.037     5472.939   0.100E-11
     TRS4 it  10 1.00000000   0.348E-02       0.036     5567.070   0.100E-11
     TRS4 it  11 1.00000000   0.334E-05       0.036     5637.887   0.100E-11
     TRS4 it  12 1.00000000   0.263E-11       0.036     5565.379   0.100E-11
     Final TRS4 iteration   12 1.00000000   0.263E-11
     Chemical potential (mu):      -0.02229

 SCF     4     -1103.119531938        -0.008537489    2.072027

*********************************************************
 Using MIXING_FRACTION=0.450 to mix KS matrix:  iscf=  5
 KS_nw=0.450*KS + 0.550*KS_old
*********************************************************
     Est. extremal eigenvalues     -0.83752     5.35420  converged:  T
     TRS4 it   1 1.00000000   0.559E+02       0.019     5395.576   0.100E-11
     TRS4 it   2 1.00000000   0.543E+02       0.019     5370.279   0.100E-11
     TRS4 it   3 1.00000000   0.352E+02       0.037     5458.221   0.100E-11
     TRS4 it   4 1.00000000   0.184E+02       0.036     5521.433   0.100E-11
     TRS4 it   5 1.00000000   0.118E+02       0.035     5652.921   0.100E-11
     TRS4 it   6 1.00000000   0.605E+01       0.036     5513.132   0.100E-11
     TRS4 it   7 1.00000000   0.236E+01       0.035     5697.856   0.100E-11
     TRS4 it   8 1.00000000   0.623E+00       0.037     5461.338   0.100E-11
     TRS4 it   9 1.00000000   0.839E-01       0.036     5545.778   0.100E-11
     TRS4 it  10 1.00000000   0.344E-02       0.036     5581.084   0.100E-11
     TRS4 it  11 1.00000000   0.330E-05       0.036     5568.942   0.100E-11
     TRS4 it  12 1.00000000   0.266E-11       0.036     5546.701   0.100E-11
     Final TRS4 iteration   12 1.00000000   0.266E-11
     Chemical potential (mu):      -0.02151

 SCF     5     -1103.120215377        -0.000683438    2.072173

*********************************************************
 Using MIXING_FRACTION=0.450 to mix KS matrix:  iscf=  6
 KS_nw=0.450*KS + 0.550*KS_old
*********************************************************
     Est. extremal eigenvalues     -0.83673     5.35476  converged:  T
     TRS4 it   1 1.00000000   0.559E+02       0.019     5370.052   0.100E-11
     TRS4 it   2 1.00000000   0.543E+02       0.019     5401.029   0.100E-11
     TRS4 it   3 1.00000000   0.352E+02       0.036     5518.953   0.100E-11
     TRS4 it   4 1.00000000   0.184E+02       0.036     5641.345   0.100E-11
     TRS4 it   5 1.00000000   0.118E+02       0.035     5731.323   0.100E-11
     TRS4 it   6 1.00000000   0.606E+01       0.036     5616.827   0.100E-11
     TRS4 it   7 1.00000000   0.237E+01       0.035     5691.249   0.100E-11
     TRS4 it   8 1.00000000   0.627E+00       0.036     5597.528   0.100E-11
     TRS4 it   9 1.00000000   0.850E-01       0.035     5663.313   0.100E-11
     TRS4 it  10 1.00000000   0.355E-02       0.036     5588.692   0.100E-11
     TRS4 it  11 1.00000000   0.365E-05       0.036     5644.822   0.100E-11
     TRS4 it  12 1.00000000   0.341E-11       0.036     5647.550   0.100E-11
     Final TRS4 iteration   12 1.00000000   0.341E-11
     Chemical potential (mu):      -0.02053

 SCF     6     -1103.120314611        -0.000099235    2.065607

*********************************************************
 Using MIXING_FRACTION=0.450 to mix KS matrix:  iscf=  7
 KS_nw=0.450*KS + 0.550*KS_old
*********************************************************
     Est. extremal eigenvalues     -0.83624     5.35511  converged:  T
     TRS4 it   1 1.00000000   0.559E+02       0.019     5349.032   0.100E-11
     TRS4 it   2 1.00000000   0.543E+02       0.019     5403.476   0.100E-11
     TRS4 it   3 1.00000000   0.352E+02       0.037     5426.670   0.100E-11
     TRS4 it   4 1.00000000   0.184E+02       0.036     5644.036   0.100E-11
     TRS4 it   5 1.00000000   0.118E+02       0.036     5566.779   0.100E-11
     TRS4 it   6 1.00000000   0.606E+01       0.036     5555.495   0.100E-11
     TRS4 it   7 1.00000000   0.237E+01       0.036     5567.216   0.100E-11
     TRS4 it   8 1.00000000   0.627E+00       0.036     5607.596   0.100E-11
     TRS4 it   9 1.00000000   0.852E-01       0.035     5674.651   0.100E-11
     TRS4 it  10 1.00000000   0.357E-02       0.036     5642.181   0.100E-11
     TRS4 it  11 1.00000000   0.372E-05       0.035     5674.452   0.100E-11
     TRS4 it  12 1.00000000   0.357E-11       0.036     5632.675   0.100E-11
     Final TRS4 iteration   12 1.00000000   0.357E-11
     Chemical potential (mu):      -0.02017

 SCF     7     -1103.120335130        -0.000020519    2.068898

*********************************************************
 Using MIXING_FRACTION=0.450 to mix KS matrix:  iscf=  8
 KS_nw=0.450*KS + 0.550*KS_old
*********************************************************
     Est. extremal eigenvalues     -0.83600     5.35525  converged:  T
     TRS4 it   1 1.00000000   0.559E+02       0.018     5431.615   0.100E-11
     TRS4 it   2 1.00000000   0.543E+02       0.019     5375.589   0.100E-11
     TRS4 it   3 1.00000000   0.352E+02       0.036     5535.963   0.100E-11
     TRS4 it   4 1.00000000   0.184E+02       0.036     5632.466   0.100E-11
     TRS4 it   5 1.00000000   0.118E+02       0.036     5634.375   0.100E-11
     TRS4 it   6 1.00000000   0.606E+01       0.035     5696.481   0.100E-11
     TRS4 it   7 1.00000000   0.237E+01       0.036     5604.862   0.100E-11
     TRS4 it   8 1.00000000   0.628E+00       0.036     5531.012   0.100E-11
     TRS4 it   9 1.00000000   0.854E-01       0.036     5606.700   0.100E-11
     TRS4 it  10 1.00000000   0.360E-02       0.036     5532.810   0.100E-11
     TRS4 it  11 1.00000000   0.379E-05       0.036     5563.629   0.100E-11
     TRS4 it  12 1.00000000   0.372E-11       0.036     5642.238   0.100E-11
     Final TRS4 iteration   12 1.00000000   0.372E-11
     Chemical potential (mu):      -0.01993

 SCF     8     -1103.120340027        -0.000004897    2.066531


 SCF run converged in     8 steps.

 Writing restart DM 64H2O_ref_LS_DM_SPIN_1_RESTART.dm with checksum:       0.60834130E+04

 ENERGY| Total FORCE_EVAL ( QS ) energy [a.u.]:            -1103.120340026873237

 -------------------------------------------------------------------------------
 -                                                                             -
 -                                DBCSR STATISTICS                             -
 -                                                                             -
 -------------------------------------------------------------------------------
 COUNTER                                    TOTAL       BLAS       SMM       ACC
 flops     5 x     5 x     5          79279224250       0.0%    100.0%      0.0%     
 flops     5 x    13 x     5         102657308000       0.0%    100.0%      0.0%     
 flops    13 x     5 x     5         102662418950       0.0%    100.0%      0.0%     
 flops     5 x     5 x    13         103170936700       0.0%    100.0%      0.0%     
 flops     5 x    13 x    13         133637353330       0.0%    100.0%      0.0%     
 flops    13 x     5 x    13         133641652690       0.0%    100.0%      0.0%     
 flops    13 x    13 x     5         134788280510       0.0%    100.0%      0.0%     
 flops    13 x    13 x    13         175514867528       0.0%    100.0%      0.0%     
 flops inhomo. stacks                           0       0.0%      0.0%      0.0%
 flops total                       965.352042E+09       0.0%    100.0%      0.0%
 flops max/rank                     30.983690E+09       0.0%    100.0%      0.0%
 matmuls inhomo. stacks                         0       0.0%      0.0%      0.0%
 matmuls total                         1069571767       0.0%    100.0%      0.0%
 number of processed stacks               1514469       0.0%    100.0%      0.0%
 average stack size                                     0.0     706.2       0.0
 marketing flops                     1.569237E+12
 -------------------------------------------------------------------------------
 # multiplications                            246
 max memory usage/rank             620.937216E+06
 # max total images/rank                        2
 # max 3D layers                                1
 # MPI messages exchanged                  102336
 MPI messages size (bytes):
  total size                        42.319462E+09
  min size                           0.000000E+00
  max size                         541.696000E+03
  average size                     413.534469E+03
 MPI breakdown and total messages size (bytes):
             size <=      128                 312                        0
       128 < size <=     8192                  42                   279312
      8192 < size <=    32768                  62                   841968
     32768 < size <=   131072                  30                  3703008
    131072 < size <=  4194304              101890              42314636832
   4194304 < size <= 16777216                   0                        0
  16777216 < size                               0                        0
 -------------------------------------------------------------------------------

 *** WARNING in dbcsr_mm.F:301 :: Using a non-square number of MPI ranks ***
 *** might lead to poor performance. Used ranks: 32 Suggested: 36 64     ***

 -------------------------------------------------------------------------------
 -                                                                             -
 -                      DBCSR MESSAGE PASSING PERFORMANCE                      -
 -                                                                             -
 -------------------------------------------------------------------------------
 ROUTINE             CALLS      AVE VOLUME [Bytes]
 MP_Bcast                9                     12.
 MP_Allreduce         1762                     34.
 MP_Alltoall           546                  34827.
 MP_ISend             8604                 170651.
 MP_IRecv             8238                 178831.
 -------------------------------------------------------------------------------

 -------------------------------------------------------------------------------
 -                                                                             -
 -                                DBM STATISTICS                               -
 -                                                                             -
 -------------------------------------------------------------------------------
    M  x    N  x    K                                          COUNT     PERCENT
 -------------------------------------------------------------------------------

 -------------------------------------------------------------------------------
 -                                                                             -
 -                                GRID STATISTICS                              -
 -                                                                             -
 -------------------------------------------------------------------------------
 LP    KERNEL             BACKEND                              COUNT     PERCENT
 2     collocate ortho    CPU                                7375878      28.83%
 2     integrate ortho    CPU                                7375878      28.83%
 3     collocate ortho    CPU                                4740075      18.53%
 3     integrate ortho    CPU                                4740075      18.53%
 4     collocate ortho    CPU                                 673857       2.63%
 4     integrate ortho    CPU                                 673857       2.63%
 0     collocate general  CPU                                   6144       0.02%
 -------------------------------------------------------------------------------

 MEMORY| Estimated peak process memory [MiB]                                 593

 -------------------------------------------------------------------------------
 -                                                                             -
 -                         MESSAGE PASSING PERFORMANCE                         -
 -                                                                             -
 -------------------------------------------------------------------------------

 ROUTINE             CALLS      AVE VOLUME [Bytes]
 MP_Group                5
 MP_Bcast             1991                 195505.
 MP_Allreduce         5425                    941.
 MP_Sync                 5
 MP_Alltoall           244                3782287.
 MP_SendRecv           837                  18832.
 MP_ISendRecv          837                  18832.
 MP_Wait              2391
 MP_ISend             1406                 108579.
 MP_IRecv             1406                 108603.
 -------------------------------------------------------------------------------


 -------------------------------------------------------------------------------
 -                                                                             -
 -                           R E F E R E N C E S                               -
 -                                                                             -
 -------------------------------------------------------------------------------
 
 CP2K version 2024.3 (Development Version), the CP2K developers group (2024).
 CP2K is freely available from https://www.cp2k.org/ .
 
 T. D. Kuehne, M. Iannuzzi, M. Del Ben, V. V. Rybkin, P. Seewald, F. Stein, T. 
 Laino, R. Z. Khaliullin, O. Schuett, F. Schiffmann, D. Golze, J. Wilhelm, S. 
 Chulkov, M. H. Bani-Hashemian, V. Weber, U. Borstnik, M. Taillefumier, A. S. 
 Jakobovits, A. Lazzaro, H. Pabst, T. Mueller, R. Schade, M. Guidon, S. 
 Andermatt, N. Holmberg, G. K. Schenter, A. Hehn, A. Bussy, F. Belleflamme, G. 
 Tabacchi, A. Gloess, M. Lass, I. Bethune, C. J. Mundy, C. Plessl, M. Watkins, 
 J. VandeVondele, M. Krack, J. Hutter.
 J. Chem. Phys. 152, 194103 (2020).
 CP2K: An electronic structure and molecular dynamics software package - 
 Quickstep: Efficient and accurate electronic structure calculations.
 https://doi.org/10.1063/5.0007045

 O. Schuett, P. Messmer, J. Hutter, J. VandeVondele.
 Electronic Structure Calculations on Graphics Processing Units, 173-190 (2016).
 GPU-Accelerated Sparse Matrix-Matrix Multiplication for Linear Scaling Density 
 Functional Theory.
 https://doi.org/10.1002/9781118670712.ch8

 A. Heinecke, G. Henry, M. Hutchinson, H. Pabst.
 Proceedings of Intl. Supercomputing Conference, 981-991 (2016).
 LIBXSMM: Accelerating Small Matrix Multiplications by Runtime Code Generation.
 https://doi.org/10.1109/SC.2016.83

 J. Hutter, M. Iannuzzi, F. Schiffmann, J. VandeVondele.
 WIREs Comput Mol Sci. 4, 15-25 (2014).
 CP2K: atomistic simulations of condensed matter systems.
 https://doi.org/10.1002/wcms.1159

 U. Borstnik, J. VandeVondele, V. Weber, J. Hutter.
 Parallel Comput. 40, 47-58 (2014).
 Sparse matrix multiplication: The distributed block-compressed sparse row 
 library.
 https://doi.org/10.1016/j.parco.2014.03.012

 A. Marek, V. Blum, R. Johanni, V. Havu, B. Lang, T. Auckenthaler, A. Heinecke, 
 H. Bungartz, H. Lederer.
 J. Phys. Condens. Matter 26, 213201 (2014).
 The ELPA library: scalable parallel eigenvalue solutions for electronic 
 structure theory and computational science.
 https://doi.org/10.1088/0953-8984/26/21/213201

 J. VandeVondele, U. Borstnik, J. Hutter.
 J. Chem. Theory Comput. 8, 3565-3573 (2012).
 Linear Scaling Self-Consistent Field Calculations with Millions of Atoms in the 
 Condensed Phase.
 https://doi.org/10.1021/ct200897x

 J. VandeVondele, J. Hutter.
 J. Chem. Phys. 127, 114105 (2007).
 Gaussian basis sets for accurate calculations on molecular systems in gas and 
 condensed phases.
 https://doi.org/10.1063/1.2770708

 J. VandeVondele, M. Krack, F. Mohamed, M. Parrinello, T. Chassaing, J. Hutter.
 Comput. Phys. Commun. 167, 103-128 (2005).
 QUICKSTEP: Fast and accurate density functional calculations using a mixed 
 Gaussian and plane waves approach.
 https://doi.org/10.1016/j.cpc.2004.12.014

 M. Krack.
 Theor. Chem. Acc. 114, 145-152 (2005).
 Pseudopotentials for H to Kr optimized for gradient-corrected 
 exchange-correlation functionals.
 https://doi.org/10.1007/s00214-005-0655-y

 M. Frigo, S. G. Johnson.
 Proc. IEEE 93, 216-231 (2005).
 The design and implementation of FFTW3.
 https://doi.org/10.1109/JPROC.2004.840301

 A. M. N. Niklasson, C. J. Tymczak, M. Challacombe.
 J. Chem. Phys. 118, 8611-8620 (2003).
 Trace resetting density matrix purification in O(N) self-consistent-field 
 theory.
 https://doi.org/10.1063/1.1559913

 C. Hartwigsen, S. Goedecker, J. Hutter.
 Phys. Rev. B 58, 3641-3662 (1998).
 Relativistic separable dual-space Gaussian pseudopotentials from H to Rn.
 https://doi.org/10.1103/PhysRevB.58.3641

 G. Lippert, J. Hutter, M. Parrinello.
 Mol. Phys. 92, 477-487 (1997).
 A hybrid Gaussian and plane wave density functional scheme.
 https://doi.org/10.1080/002689797170220

 S. Goedecker, M. Teter, J. Hutter.
 Phys. Rev. B 54, 1703-1710 (1996).
 Separable dual-space Gaussian pseudopotentials.
 https://doi.org/10.1103/PhysRevB.54.1703

 J. P. Perdew, K. Burke, M. Ernzerhof.
 Phys. Rev. Lett. 77, 3865-3868 (1996).
 Generalized gradient approximation made simple.
 https://doi.org/10.1103/PhysRevLett.77.3865


 -------------------------------------------------------------------------------
 -                                                                             -
 -                                T I M I N G                                  -
 -                                                                             -
 -------------------------------------------------------------------------------
 SUBROUTINE                       CALLS  ASD         SELF TIME        TOTAL TIME
                                MAXIMUM       AVERAGE  MAXIMUM  AVERAGE  MAXIMUM
 CP2K                                 1  1.0    0.012    0.016   20.268   20.269
 qs_energies                          1  2.0    0.000    0.000   20.116   20.116
 ls_scf                               1  3.0    0.000    0.000   19.082   19.082
 ls_scf_main                          1  4.0    0.000    0.000   16.551   16.551
 ls_scf_dm_to_ks                      8  5.0    0.000    0.000   12.378   12.383
 qs_ks_update_qs_env                  9  6.1    0.000    0.000    7.801    7.803
 rebuild_ks_matrix                    9  7.1    0.000    0.000    7.795    7.796
 qs_ks_build_kohn_sham_matrix         9  8.1    0.002    0.002    7.795    7.796
 qs_rho_update_rho_low                9  6.1    0.000    0.000    6.125    6.130
 calculate_rho_elec                   9  7.1    0.003    0.003    6.125    6.130
 sum_up_and_integrate                 9  9.1    0.000    0.000    5.898    5.900
 integrate_v_rspace                   9 10.1    0.000    0.000    5.889    5.891
 grid_collocate_task_list             9  8.1    5.439    5.524    5.439    5.524
 grid_integrate_task_list             9 11.1    5.194    5.276    5.194    5.276
 dbcsr_multiply_generic             246  6.2    0.012    0.013    4.625    4.631
 density_matrix_trs4                  8  5.0    0.004    0.006    4.168    4.171
 multiply_cannon                    246  7.2    0.018    0.023    3.754    3.835
 multiply_cannon_loop               246  8.2    0.019    0.021    3.679    3.750
 ls_scf_init_scf                      1  4.0    0.000    0.000    2.467    2.468
 multiply_cannon_multrec           1968  9.2    2.093    2.139    2.100    2.146
 mp_waitall_1                     16729 10.5    1.721    1.833    1.721    1.833
 fft_wrap_pw1pw2                    172 11.3    0.003    0.004    1.760    1.785
 fft_wrap_pw1pw2_200                100 12.8    0.102    0.108    1.687    1.725
 qs_vxc_create                        9  9.1    0.000    0.000    1.552    1.582
 xc_vxc_pw_create                     9 10.1    0.013    0.019    1.552    1.582
 ls_scf_initial_guess                 1  5.0    0.000    0.000    1.553    1.555
 ls_scf_qs_atomic_guess               1  6.0    0.000    0.000    1.553    1.555
 multiply_cannon_metrocomm3        1968  9.2    0.005    0.006    1.342    1.432
 fft3d_ps                           172 13.3    0.716    0.795    1.321    1.373
 xc_pw_derive                        54 12.1    0.001    0.001    1.101    1.197
 qs_energies_init_hamiltonians        1  3.0    0.000    0.000    1.034    1.034
 ls_scf_init_matrix_S                 1  5.0    0.000    0.000    0.914    0.915
 matrix_sqrt_Newton_Schulz            1  6.0    0.001    0.001    0.890    0.891
 build_core_hamiltonian_matrix        1  4.0    0.000    0.000    0.703    0.842
 xc_rho_set_and_dset_create           9 11.1    0.019    0.024    0.783    0.798
 xc_pw_divergence                     9 11.1    0.000    0.000    0.736    0.780
 density_rs2pw                        9  8.1    0.000    0.000    0.652    0.761
 make_m2s                           492  7.2    0.005    0.007    0.681    0.692
 make_images                        492  8.2    0.039    0.040    0.670    0.682
 mp_waitany                        1406 12.5    0.496    0.633    0.496    0.633
 mp_alltoall_z22v                   172 15.3    0.430    0.611    0.430    0.611
 potential_pw2rs                      9 11.1    0.001    0.001    0.596    0.598
 build_core_ppl                       1  5.0    0.479    0.585    0.479    0.585
 transfer_rs2pw                      46  9.0    0.001    0.001    0.430    0.567
 transfer_rs2pw_200                  10  9.8    0.032    0.047    0.326    0.463
 -------------------------------------------------------------------------------

 The number of warnings for this run is : 1
 
 -------------------------------------------------------------------------------
  **** **** ******  **  PROGRAM ENDED AT                 2024-09-23 17:34:51.628
 ***** ** ***  *** **   PROGRAM RAN ON                                    moritz
 **    ****   ******    PROGRAM RAN BY                                       ole
 ***** **    ** ** **   PROGRAM PROCESS ID                                156137
  **** **  *******  **  PROGRAM STOPPED IN /home/ole/git/pao_ml_equivar/64H2O_MD
                                           /Frame1500
