 DBCSR| CPU Multiplication driver                                           BLAS
 DBCSR| Multrec recursion limit                                              512
 DBCSR| Multiplication stack size                                           1000
 DBCSR| Maximum elements for images                                    UNLIMITED
 DBCSR| Multiplicative factor virtual images                                   1
 DBCSR| Use multiplication densification                                       T
 DBCSR| Multiplication size stacks                                             3


  **** **** ******  **  PROGRAM STARTED AT               2019-03-28 17:32:22.835
 ***** ** ***  *** **   PROGRAM STARTED ON        oleschuett.zrh.corp.google.com
 **    ****   ******    PROGRAM STARTED BY                            oleschuett
 ***** **    ** ** **   PROGRAM PROCESS ID                                 31031
  **** **  *******  **  PROGRAM STARTED IN /usr/local/google/home/oleschuett/git
                                           /pao_ml_equivar/2H2O_rotations/phi_19

 CP2K| version string:                    CP2K version 7.0 (Development Version)
 CP2K| source code revision number:                                git:d9814d431
 CP2K| cp2kflags: libint fftw3 libxc libderiv_max_am1=5 libint_max_am=6         
 CP2K| is freely available from                            https://www.cp2k.org/
 CP2K| Program compiled at                          Mon Mar 25 16:50:07 CET 2019
 CP2K| Program compiled on                        oleschuett.zrh.corp.google.com
 CP2K| Program compiled for                                                local
 CP2K| Data directory path       /usr/local/google/home/oleschuett/git/cp2k/data
 CP2K| Input file name                                            2H2O_pao44.inp

 GLOBAL| Force Environment number                                              1
 GLOBAL| Basis set file name                                        BASIS_MOLOPT
 GLOBAL| Potential file name                                      GTH_POTENTIALS
 GLOBAL| MM Potential file name                                     MM_POTENTIAL
 GLOBAL| Coordinate file name                                         coords.xyz
 GLOBAL| Method name                                                        CP2K
 GLOBAL| Project name                                                 2H2O_pao44
 GLOBAL| Preferred FFT library                                             FFTW3
 GLOBAL| Preferred diagonalization lib.                                       SL
 GLOBAL| Run type                                                         ENERGY
 GLOBAL| All-to-all communication in single precision                          F
 GLOBAL| FFTs using library dependent lengths                                  F
 GLOBAL| Global print level                                                  LOW
 GLOBAL| MPI I/O enabled                                                       T
 GLOBAL| Total number of message passing processes                             1
 GLOBAL| Number of threads for this process                                    1
 GLOBAL| This output is from process                                           0
 GLOBAL| CPU model name :  Intel(R) Xeon(R) CPU E5-1650 v4 @ 3.60GHz

 MEMORY| system memory details [Kb]
 MEMORY|                        rank 0           min           max       average
 MEMORY| MemTotal             65953612      65953612      65953612      65953612
 MEMORY| MemFree               4556804       4556804       4556804       4556804
 MEMORY| Buffers               2548000       2548000       2548000       2548000
 MEMORY| Cached               25385564      25385564      25385564      25385564
 MEMORY| Slab                  3623808       3623808       3623808       3623808
 MEMORY| SReclaimable          2422904       2422904       2422904       2422904
 MEMORY| MemLikelyFree        34913272      34913272      34913272      34913272


 GENERATE|  Preliminary Number of Bonds generated:                             0
 GENERATE|  Achieved consistency in connectivity generation.

 *******************************************************************************
 *******************************************************************************
 **                                                                           **
 **     #####                         ##              ##                      **
 **    ##   ##            ##          ##              ##                      **
 **   ##     ##                       ##            ######                    **
 **   ##     ##  ##   ##  ##   #####  ##  ##   ####   ##    #####    #####    **
 **   ##     ##  ##   ##  ##  ##      ## ##   ##      ##   ##   ##  ##   ##   **
 **   ##  ## ##  ##   ##  ##  ##      ####     ###    ##   ######   ######    **
 **    ##  ###   ##   ##  ##  ##      ## ##      ##   ##   ##       ##        **
 **     #######   #####   ##   #####  ##  ##  ####    ##    #####   ##        **
 **           ##                                                    ##        **
 **                                                                           **
 **                                                ... make the atoms dance   **
 **                                                                           **
 **            Copyright (C) by CP2K developers group (2000 - 2018)           **
 **                                                                           **
 *******************************************************************************


 TOTAL NUMBERS AND MAXIMUM NUMBERS

  Total number of            - Atomic kinds:                                   2
                             - Atoms:                                          6
                             - Shell sets:                                     6
                             - Shells:                                        22
                             - Primitive Cartesian functions:                 42
                             - Cartesian basis functions:                     48
                             - Spherical basis functions:                     46

  Maximum angular momentum of- Orbital basis functions:                        2
                             - Local part of the GTH pseudopotential:          2
                             - Non-local part of the GTH pseudopotential:      0

 ------------------------------ Linear scaling SCF -----------------------------
 eps_scf:                                                              0.100E-07
 eps_filter:                                                           0.100E-07
 mixing_fraction:                                                      0.450E+00
 max_scf:                                                                     25
 fixed chemical potential (mu)                                                 F
 has unit metric:                                                              F
 Computing inv(S):                                                             T
 Computing sqrt(S):                                                            T
 Computing s preconditioner                                                    F
 sign sqrt order:                                                              3
 Extrapolation order:                                                          1
 Use single precision matrices                                                 F
 S preconditioner type                                                      NONE
 Polarized Atomic Orbitals (PAO)                                               T
 Purification method                                   Trace resetting 4th order
 Cluster type                                                             ATOMIC
 Computing Chebyshev                                                       FALSE
 Using PAO                                                                     T
 -------------------------------------------------------------------------------

 
 PAO|                                  EPS_PAO                           0.1E-04
 PAO|                                  MIXING                            0.5E+00
 PAO|                                  MAX_PAO                              1000
 PAO|                                  MAX_CYCLES                           1000
 PAO|                                  PARAMETERIZATION                   DIRECT
 PAO|                                  PRECONDITION                            F
 PAO|                                  REGULARIZATION                    0.0E+00
 PAO|                                  EPS_PGF                           0.1E-09
 PAO|                                  PENALTY_DISTANCE                  0.1E+00
 PAO|                                  PENALTY_STRENGTH                  0.5E-02
 PAO|                                  LINPOT_PRECONDITION_DELTA         0.0E+00
 PAO|                                  LINPOT_INITGUESS_DELT             0.0E+00
 PAO|                                  LINPOT_REGULARIZATION_DELTA       0.0E+00
 PAO|                                  LINPOT_REGULARIZATION_STRENGTH    0.0E+00
 PAO|                                  OPTIMIZER                              CG
 PAO|                                  CG_INIT_STEPS                           2
 PAO|                                  CG_RESET_LIMIT                    0.1E+00
 PAO|                                  CHECK_UNITARY_TOL                -0.1E+01
 PAO|                                  CHECK_GRADIENT_TOL               -0.1E+01
 PAO|                                  NUM_GRADIENT_ORDER                      2
 PAO|                                  NUM_GRADIENT_EPS                  0.1E-07
 PAO|                                  PRINT%RESTART%WRITE_CYCLES            100
 PAO|                                  RESTART_FILE 
 PAO|                                  PREOPT_DM_FILE 2H2O_ref_LS_DM_SPIN_1_RESTART.dm
 PAO|                                  MACHINE_LEARNING%METHOD        GAUSSIAN_P
 PAO|                                  MACHINE_LEARNING%PRIOR               ZERO
 PAO|                                  MACHINE_LEARNING%DESCRIPTOR     POTENTIAL
 PAO|                                  MACHINE_LEARNING%TOLERANCE        0.1E-01
 PAO|                                  MACHINE_LEARNING%GP_NOISE_VAR     0.1E+00
 PAO|                                  MACHINE_LEARNING%GP_SCALE         0.5E-01
 

 Calculating atomic Fock matrix for atomic kind: O

 Electronic structure
    Total number of core electrons                                          2.00
    Total number of valence electrons                                       6.00
    Total number of electrons                                               8.00
    Multiplicity                                                   not specified
    S   [  2.00] 2.00
    P      4.00


 *******************************************************************************
                  Iteration          Convergence                     Energy [au]
 *******************************************************************************
                          1        0.708315                     -15.576645311500
                          2        0.608879                     -15.587933561584
                          3        0.102828E-01                 -15.656849565404
                          4        0.113889E-02                 -15.656866888140
                          5        0.434197E-03                 -15.656867072159
                          6        0.263771E-03                 -15.656867091904
                          7        0.478536E-06                 -15.656867103452

 Energy components [Hartree]           Total Energy ::          -15.656867103452
                                        Band Energy ::           -3.000198112285
                                     Kinetic Energy ::           11.759971203220
                                   Potential Energy ::          -27.416838306672
                                      Virial (-V/T) ::            2.331369510426
                                        Core Energy ::          -26.140716385623
                                          XC Energy ::           -3.154051012914
                                     Coulomb Energy ::           13.637900295084
                       Total Pseudopotential Energy ::          -37.935781716540
                       Local Pseudopotential Energy ::          -39.218907440693
                    Nonlocal Pseudopotential Energy ::            1.283125724153
                                        Confinement ::            0.350941276976

 Orbital energies  State     L     Occupation   Energy[a.u.]          Energy[eV]

                       1     0          2.000      -0.864471          -23.523463

                       1     1          4.000      -0.317814           -8.648154


 Total Electron Density at R=0:                                         0.000068

 Calculating atomic Fock matrix for atomic kind: H

 Electronic structure
    Total number of core electrons                                          0.00
    Total number of valence electrons                                       1.00
    Total number of electrons                                               1.00
    Multiplicity                                                   not specified
    S      1.00


 *******************************************************************************
                  Iteration          Convergence                     Energy [au]
 *******************************************************************************
                          1        0.437545E-02                  -0.424159432110
                          2        0.531356E-03                  -0.424178438213
                          3        0.259176E-06                  -0.424178722480

 Energy components [Hartree]           Total Energy ::           -0.424178722480
                                        Band Energy ::           -0.199015229016
                                     Kinetic Energy ::            0.464007633961
                                   Potential Energy ::           -0.888186356441
                                      Virial (-V/T) ::            1.914163240935
                                        Core Energy ::           -0.479160803564
                                          XC Energy ::           -0.244352904054
                                     Coulomb Energy ::            0.299334985138
                       Total Pseudopotential Energy ::           -0.962295316385
                       Local Pseudopotential Energy ::           -0.962295316385
                    Nonlocal Pseudopotential Energy ::            0.000000000000
                                        Confinement ::            0.191268788606

 Orbital energies  State     L     Occupation   Energy[a.u.]          Energy[eV]

                       1     0          1.000      -0.199015           -5.415480


 Total Electron Density at R=0:                                         0.242907
 PAO| Made initial guess for matrix_X with norm:   4.8989794855663558     

     Lanczos converged:  T threshold:   0.100E-02
     Est. extremal eigenvalues:    0.335E+01   0.113E+00
     Est. condition number :    0.297E+02
     NS sqrt iter    1 1.00000000   0.819E+00       0.002       41.525
     NS sqrt iter    2 1.00000000   0.440E+00       0.002       69.668
     NS sqrt iter    3 1.00000000   0.171E+00       0.002       70.806
     NS sqrt iter    4 1.00000000   0.208E-01       0.002       59.753
     NS sqrt iter    5 1.00000000   0.560E-04       0.002       61.086
     Final NS sqrt iter    5 1.00000000   0.365E-08

 PAO| Read restart DM 2H2O_ref_LS_DM_SPIN_1_RESTART.dm with checksum:    74.372759052134256     
 PAO| Quickstep energy from restart density:  -34.450324168898732     
 PAO| ======================= Iteration:         1 =============================

     Lanczos converged:  T threshold:   0.100E-02
     Est. extremal eigenvalues:    0.335E+01   0.113E+00
     Est. condition number :    0.297E+02
     NS sqrt iter    1 1.00000000   0.819E+00       0.002       39.251
     NS sqrt iter    2 1.00000000   0.440E+00       0.002       62.139
     NS sqrt iter    3 1.00000000   0.171E+00       0.002       64.218
     NS sqrt iter    4 1.00000000   0.208E-01       0.002       63.795
     NS sqrt iter    5 1.00000000   0.560E-04       0.002       54.834
     Final NS sqrt iter    5 1.00000000   0.365E-08

     Est. extremal eigenvalues     -0.92086     1.91399  converged:  T
     TRS4 it   1 1.00000000   0.888E+00       0.001       16.128   0.100E-07
     TRS4 it   2 1.00000000   0.699E+00       0.001       32.256   0.100E-07
     TRS4 it   3 1.00000000   0.503E+00       0.001       30.910   0.100E-07
     TRS4 it   4 1.00000000   0.316E+00       0.001       32.256   0.100E-07
     TRS4 it   5 1.00000000   0.157E+00       0.001       32.256   0.100E-07
     TRS4 it   6 1.00000000   0.500E-01       0.001       31.215   0.100E-07
     TRS4 it   7 1.00000000   0.714E-02       0.001       32.256   0.100E-07
     TRS4 it   8 1.00000000   0.204E-03       0.001       27.287   0.100E-07
     TRS4 it   9 1.00000000   0.185E-06       0.001       32.256   0.100E-07
     TRS4 it  10 1.00000000   0.153E-12       0.001       28.711   0.100E-07
     Final TRS4 iteration   10 1.00000000   0.153E-12
     Chemical potential (mu):      -0.06686
 
 PAO| energy:  -7.6351902179704734      penalty:   3.6361557350031018E-033
 PAO|CG| warming up with steepest descent
 PAO|CG| beta:    0.0000000000000000     
 PAO| norm of gradient:  0.78332059842375401     
 PAO|LS| adapt:  T F F
 PAO|LS| adapt: scan_steps:    0.0000000000000000        0.0000000000000000        0.0000000000000000     
 PAO|LS| adapt: energies:   -7.6351902179704734        0.0000000000000000        0.0000000000000000     
 PAO| ======================= Iteration:         2 =============================

     Lanczos converged:  T threshold:   0.100E-02
     Est. extremal eigenvalues:    0.327E+01   0.126E+00
     Est. condition number :    0.260E+02
     NS sqrt iter    1 1.00000000   0.803E+00       0.002       38.620
     NS sqrt iter    2 1.00000000   0.425E+00       0.002       53.375
     NS sqrt iter    3 1.00000000   0.153E+00       0.002       54.759
     NS sqrt iter    4 1.00000000   0.144E-01       0.002       65.204
     NS sqrt iter    5 1.00000000   0.181E-04       0.002       46.172
     Final NS sqrt iter    5 1.00000000   0.505E-09

     Est. extremal eigenvalues     -0.92453     1.85777  converged:  T
     TRS4 it   1 1.00000000   0.884E+00       0.001       16.128   0.100E-07
     TRS4 it   2 1.00000000   0.680E+00       0.001       32.256   0.100E-07
     TRS4 it   3 1.00000000   0.487E+00       0.001       32.256   0.100E-07
     TRS4 it   4 1.00000000   0.296E+00       0.001       32.256   0.100E-07
     TRS4 it   5 1.00000000   0.138E+00       0.001       32.256   0.100E-07
     TRS4 it   6 1.00000000   0.387E-01       0.001       32.256   0.100E-07
     TRS4 it   7 1.00000000   0.434E-02       0.001       32.256   0.100E-07
     TRS4 it   8 1.00000000   0.759E-04       0.001       32.256   0.100E-07
     TRS4 it   9 1.00000000   0.256E-07       0.001       32.256   0.100E-07
     Final TRS4 iteration    9 1.00000000   0.256E-07
     Chemical potential (mu):      -0.05484
 
 PAO| energy:  -7.6906693900418226      penalty:   2.2472175400269354E-008
 PAO|LS| adapt:  T T F
 PAO|LS| adapt: scan_steps:    0.0000000000000000       0.10000000000000001        0.0000000000000000     
 PAO|LS| adapt: energies:   -7.6351902179704734       -7.6906693900418226        0.0000000000000000     
 PAO| ======================= Iteration:         3 =============================

     Lanczos converged:  T threshold:   0.100E-02
     Est. extremal eigenvalues:    0.317E+01   0.137E+00
     Est. condition number :    0.232E+02
     NS sqrt iter    1 1.00000000   0.786E+00       0.002       40.714
     NS sqrt iter    2 1.00000000   0.408E+00       0.002       63.457
     NS sqrt iter    3 1.00000000   0.136E+00       0.002       63.312
     NS sqrt iter    4 1.00000000   0.997E-02       0.002       64.641
     NS sqrt iter    5 1.00000000   0.613E-05       0.002       51.434
     Final NS sqrt iter    5 1.00000000   0.581E-10

     Est. extremal eigenvalues     -0.92796     1.81146  converged:  T
     TRS4 it   1 1.00000000   0.881E+00       0.001       16.128   0.100E-07
     TRS4 it   2 1.00000000   0.663E+00       0.001       32.256   0.100E-07
     TRS4 it   3 1.00000000   0.472E+00       0.001       32.256   0.100E-07
     TRS4 it   4 1.00000000   0.277E+00       0.001       32.256   0.100E-07
     TRS4 it   5 1.00000000   0.120E+00       0.001       32.256   0.100E-07
     TRS4 it   6 1.00000000   0.291E-01       0.001       32.256   0.100E-07
     TRS4 it   7 1.00000000   0.244E-02       0.001       32.256   0.100E-07
     TRS4 it   8 1.00000000   0.240E-04       0.001       32.256   0.100E-07
     TRS4 it   9 1.00000000   0.257E-08       0.001       32.256   0.100E-07
     Final TRS4 iteration    9 1.00000000   0.257E-08
     Chemical potential (mu):      -0.04184
 
 PAO| energy:  -7.7337307147238601      penalty:   3.5955504505554058E-007
 PAO|LS| adapt:  T T F
 PAO|LS| adapt: scan_steps:    0.0000000000000000       0.20000000000000001        0.0000000000000000     
 PAO|LS| adapt: energies:   -7.6351902179704734       -7.7337307147238601        0.0000000000000000     
 PAO| ======================= Iteration:         4 =============================

     Lanczos converged:  T threshold:   0.100E-02
     Est. extremal eigenvalues:    0.298E+01   0.155E+00
     Est. condition number :    0.192E+02
     NS sqrt iter    1 1.00000000   0.749E+00       0.002       39.999
     NS sqrt iter    2 1.00000000   0.374E+00       0.002       62.971
     NS sqrt iter    3 1.00000000   0.107E+00       0.002       63.577
     NS sqrt iter    4 1.00000000   0.489E-02       0.002       62.510
     NS sqrt iter    5 1.00000000   0.870E-06       0.002       49.665
     Final NS sqrt iter    5 1.00000000   0.126E-11

     Est. extremal eigenvalues     -0.93330     1.74199  converged:  T
     TRS4 it   1 1.00000000   0.876E+00       0.001       16.128   0.100E-07
     TRS4 it   2 1.00000000   0.635E+00       0.001       32.256   0.100E-07
     TRS4 it   3 1.00000000   0.442E+00       0.001       32.256   0.100E-07
     TRS4 it   4 1.00000000   0.240E+00       0.001       32.256   0.100E-07
     TRS4 it   5 1.00000000   0.879E-01       0.001       32.102   0.100E-07
     TRS4 it   6 1.00000000   0.151E-01       0.001       32.256   0.100E-07
     TRS4 it   7 1.00000000   0.626E-03       0.001       32.256   0.100E-07
     TRS4 it   8 1.00000000   0.154E-05       0.001       32.256   0.100E-07
     TRS4 it   9 1.00000000   0.106E-10       0.001       32.256   0.100E-07
     Final TRS4 iteration    9 1.00000000   0.106E-10
     Chemical potential (mu):      -0.01308
 
 PAO| energy:  -7.7809755461500822      penalty:   5.7528826301087881E-006
 PAO|LS| Need extra step
 PAO|LS| adapt:  T T F
 PAO|LS| adapt: scan_steps:    0.0000000000000000       0.40000000000000002        0.0000000000000000     
 PAO|LS| adapt: energies:   -7.6351902179704734       -7.7809755461500822        0.0000000000000000     
 PAO| ======================= Iteration:         5 =============================

     Lanczos converged:  T threshold:   0.100E-02
     Est. extremal eigenvalues:    0.263E+01   0.183E+00
     Est. condition number :    0.143E+02
     NS sqrt iter    1 1.00000000   0.687E+00       0.002       40.379
     NS sqrt iter    2 1.00000000   0.313E+00       0.002       63.258
     NS sqrt iter    3 1.00000000   0.661E-01       0.002       64.182
     NS sqrt iter    4 1.00000000   0.135E-02       0.002       63.424
     NS sqrt iter    5 1.00000000   0.233E-07       0.002       29.388
     Final NS sqrt iter    5 1.00000000   0.236E-08

     Est. extremal eigenvalues     -0.93456     1.66030  converged:  T
     TRS4 it   1 1.00000000   0.868E+00       0.001       16.128   0.100E-07
     TRS4 it   2 1.00000000   0.595E+00       0.001       32.256   0.100E-07
     TRS4 it   3 1.00000000   0.393E+00       0.001       32.256   0.100E-07
     TRS4 it   4 1.00000000   0.182E+00       0.001       32.256   0.100E-07
     TRS4 it   5 1.00000000   0.470E-01       0.001       32.256   0.100E-07
     TRS4 it   6 1.00000000   0.387E-02       0.001       32.256   0.100E-07
     TRS4 it   7 1.00000000   0.340E-04       0.001       32.256   0.100E-07
     TRS4 it   8 1.00000000   0.332E-08       0.001       32.256   0.100E-07
     Final TRS4 iteration    8 1.00000000   0.332E-08
     Chemical potential (mu):       0.03735
 
 PAO| energy:  -7.7261507935024305      penalty:   9.2046137355542921E-005
 PAO|LS| Need extra step
 PAO|LS| adapt:  T T T
 PAO|LS| adapt: scan_steps:    0.0000000000000000       0.40000000000000002       0.80000000000000004     
 PAO|LS| adapt: energies:   -7.6351902179704734       -7.7809755461500822       -7.7261507935024305     
 PAO|LS| adapt: suggested step_size:   0.49068395282715693     
 PAO|LS| adapt: predicted energy  -7.7861309614880021     
 PAO| ======================= Iteration:         6 =============================

     Lanczos converged:  T threshold:   0.100E-02
     Est. extremal eigenvalues:    0.290E+01   0.162E+00
     Est. condition number :    0.178E+02
     NS sqrt iter    1 1.00000000   0.733E+00       0.002       40.317
     NS sqrt iter    2 1.00000000   0.359E+00       0.002       63.702
     NS sqrt iter    3 1.00000000   0.953E-01       0.002       63.499
     NS sqrt iter    4 1.00000000   0.359E-02       0.002       62.152
     NS sqrt iter    5 1.00000000   0.378E-06       0.002       51.519
     Final NS sqrt iter    5 1.00000000   0.141E-09

     Est. extremal eigenvalues     -0.93479     1.71814  converged:  T
     TRS4 it   1 1.00000000   0.874E+00       0.001       16.128   0.100E-07
     TRS4 it   2 1.00000000   0.624E+00       0.001       32.256   0.100E-07
     TRS4 it   3 1.00000000   0.430E+00       0.001       23.267   0.100E-07
     TRS4 it   4 1.00000000   0.225E+00       0.001       32.256   0.100E-07
     TRS4 it   5 1.00000000   0.760E-01       0.001       32.256   0.100E-07
     TRS4 it   6 1.00000000   0.110E-01       0.001       32.256   0.100E-07
     TRS4 it   7 1.00000000   0.316E-03       0.001       30.794   0.100E-07
     TRS4 it   8 1.00000000   0.374E-06       0.001       32.256   0.100E-07
     TRS4 it   9 1.00000000   0.620E-12       0.001       32.256   0.100E-07
     Final TRS4 iteration    9 1.00000000   0.620E-12
     Chemical potential (mu):       0.00091
 
 PAO| energy:  -7.7854172806888275      penalty:   1.3027257443889295E-005
 PAO|CG| warming up with steepest descent
 PAO|CG| beta:    0.0000000000000000     
 PAO| norm of gradient:  0.41720028200642489     
 PAO| energy improvement: -0.15022706271835418     
 PAO| step      6                   -7.785417281  0.261E-01  0.491E+00     0.133
 PAO|LS| adapt:  T F F
 PAO|LS| adapt: scan_steps:    0.0000000000000000        0.0000000000000000        0.0000000000000000     
 PAO|LS| adapt: energies:   -7.7854172806888275        0.0000000000000000        0.0000000000000000     
 PAO| ======================= Iteration:         7 =============================

     Lanczos converged:  T threshold:   0.100E-02
     Est. extremal eigenvalues:    0.281E+01   0.176E+00
     Est. condition number :    0.160E+02
     NS sqrt iter    1 1.00000000   0.716E+00       0.002       37.751
     NS sqrt iter    2 1.00000000   0.339E+00       0.002       62.417
     NS sqrt iter    3 1.00000000   0.798E-01       0.002       55.139
     NS sqrt iter    4 1.00000000   0.220E-02       0.002       64.632
     NS sqrt iter    5 1.00000000   0.974E-07       0.002       48.418
     Final NS sqrt iter    5 1.00000000   0.105E-08

     Est. extremal eigenvalues     -0.93653     1.70479  converged:  T
     TRS4 it   1 1.00000000   0.873E+00       0.001       16.128   0.100E-07
     TRS4 it   2 1.00000000   0.622E+00       0.001       32.256   0.100E-07
     TRS4 it   3 1.00000000   0.430E+00       0.001       32.256   0.100E-07
     TRS4 it   4 1.00000000   0.225E+00       0.001       32.256   0.100E-07
     TRS4 it   5 1.00000000   0.766E-01       0.001       32.256   0.100E-07
     TRS4 it   6 1.00000000   0.109E-01       0.001       32.256   0.100E-07
     TRS4 it   7 1.00000000   0.294E-03       0.001       32.256   0.100E-07
     TRS4 it   8 1.00000000   0.308E-06       0.001       32.256   0.100E-07
     TRS4 it   9 1.00000000   0.414E-12       0.001       32.256   0.100E-07
     Final TRS4 iteration    9 1.00000000   0.414E-12
     Chemical potential (mu):       0.00296
 
 PAO| energy:  -7.7796600010050696      penalty:   1.9742242969532143E-005
 PAO|LS| adapt:  T F T
 PAO|LS| adapt: scan_steps:    0.0000000000000000        0.0000000000000000       0.49068395282715693     
 PAO|LS| adapt: energies:   -7.7854172806888275        0.0000000000000000       -7.7796600010050696     
 PAO| ======================= Iteration:         8 =============================

     Lanczos converged:  T threshold:   0.100E-02
     Est. extremal eigenvalues:    0.285E+01   0.169E+00
     Est. condition number :    0.169E+02
     NS sqrt iter    1 1.00000000   0.725E+00       0.002       39.707
     NS sqrt iter    2 1.00000000   0.349E+00       0.002       64.529
     NS sqrt iter    3 1.00000000   0.874E-01       0.002       63.895
     NS sqrt iter    4 1.00000000   0.283E-02       0.002       61.769
     NS sqrt iter    5 1.00000000   0.195E-06       0.002       50.530
     Final NS sqrt iter    5 1.00000000   0.856E-09

     Est. extremal eigenvalues     -0.93660     1.71082  converged:  T
     TRS4 it   1 1.00000000   0.873E+00       0.001       16.128   0.100E-07
     TRS4 it   2 1.00000000   0.623E+00       0.001       32.256   0.100E-07
     TRS4 it   3 1.00000000   0.429E+00       0.001       30.719   0.100E-07
     TRS4 it   4 1.00000000   0.224E+00       0.001       32.256   0.100E-07
     TRS4 it   5 1.00000000   0.760E-01       0.001       32.256   0.100E-07
     TRS4 it   6 1.00000000   0.110E-01       0.001       32.256   0.100E-07
     TRS4 it   7 1.00000000   0.313E-03       0.001       32.256   0.100E-07
     TRS4 it   8 1.00000000   0.361E-06       0.001       32.256   0.100E-07
     TRS4 it   9 1.00000000   0.575E-12       0.001       32.256   0.100E-07
     Final TRS4 iteration    9 1.00000000   0.575E-12
     Chemical potential (mu):       0.00143
 
 PAO| energy:  -7.8050906453271045      penalty:   1.4131104178228572E-005
 PAO|LS| adapt:  T T T
 PAO|LS| adapt: scan_steps:    0.0000000000000000       0.24534197641357847       0.49068395282715693     
 PAO|LS| adapt: energies:   -7.7854172806888275       -7.8050906453271045       -7.7796600010050696     
 PAO|LS| adapt: suggested step_size:   0.22968369670698066     
 PAO|LS| adapt: predicted energy  -7.8051825059790758     
 PAO| ======================= Iteration:         9 =============================

     Lanczos converged:  T threshold:   0.100E-02
     Est. extremal eigenvalues:    0.286E+01   0.169E+00
     Est. condition number :    0.169E+02
     NS sqrt iter    1 1.00000000   0.725E+00       0.002       39.231
     NS sqrt iter    2 1.00000000   0.350E+00       0.002       63.657
     NS sqrt iter    3 1.00000000   0.879E-01       0.002       64.513
     NS sqrt iter    4 1.00000000   0.287E-02       0.002       62.662
     NS sqrt iter    5 1.00000000   0.204E-06       0.002       51.183
     Final NS sqrt iter    5 1.00000000   0.832E-09

     Est. extremal eigenvalues     -0.93654     1.71125  converged:  T
     TRS4 it   1 1.00000000   0.873E+00       0.001       16.128   0.100E-07
     TRS4 it   2 1.00000000   0.623E+00       0.001       32.094   0.100E-07
     TRS4 it   3 1.00000000   0.429E+00       0.001       30.012   0.100E-07
     TRS4 it   4 1.00000000   0.224E+00       0.001       32.256   0.100E-07
     TRS4 it   5 1.00000000   0.760E-01       0.001       32.256   0.100E-07
     TRS4 it   6 1.00000000   0.110E-01       0.001       32.256   0.100E-07
     TRS4 it   7 1.00000000   0.313E-03       0.001       32.256   0.100E-07
     TRS4 it   8 1.00000000   0.364E-06       0.001       32.256   0.100E-07
     TRS4 it   9 1.00000000   0.582E-12       0.001       32.256   0.100E-07
     Final TRS4 iteration    9 1.00000000   0.582E-12
     Chemical potential (mu):       0.00137
 
 PAO| energy:  -7.8052058630962051      penalty:   1.3963308297002200E-005
 PAO|CG| trace_G_new    3.6933472532555238E-002
 PAO|CG| trace_G_prev   0.17405607530624048     
 PAO|CG| trace_G_mix   -1.4456340793337265E-003
 PAO|CG| trace_D   0.17405607530624048     
 PAO|CG| trace_D_Gnew   1.4456340793337265E-003
 PAO|CG| beta:   0.22049851775850624     
 PAO| norm of gradient:  0.19218083289588284     
 PAO| energy improvement:  -1.9788582407377575E-002
 PAO| step      9                   -7.805205863  0.120E-01  0.230E+00     0.083
 PAO|LS| adapt:  T F F
 PAO|LS| adapt: scan_steps:    0.0000000000000000        0.0000000000000000        0.0000000000000000     
 PAO|LS| adapt: energies:   -7.8052058630962051        0.0000000000000000        0.0000000000000000     
 PAO| ======================= Iteration:        10 =============================

     Lanczos converged:  T threshold:   0.100E-02
     Est. extremal eigenvalues:    0.282E+01   0.175E+00
     Est. condition number :    0.161E+02
     NS sqrt iter    1 1.00000000   0.718E+00       0.002       40.846
     NS sqrt iter    2 1.00000000   0.341E+00       0.002       63.937
     NS sqrt iter    3 1.00000000   0.823E-01       0.002       62.837
     NS sqrt iter    4 1.00000000   0.236E-02       0.002       63.345
     NS sqrt iter    5 1.00000000   0.113E-06       0.002       48.068
     Final NS sqrt iter    5 1.00000000   0.118E-08

     Est. extremal eigenvalues     -0.93743     1.70466  converged:  T
     TRS4 it   1 1.00000000   0.870E+00       0.001       16.128   0.100E-07
     TRS4 it   2 1.00000000   0.621E+00       0.001       31.918   0.100E-07
     TRS4 it   3 1.00000000   0.427E+00       0.001       32.256   0.100E-07
     TRS4 it   4 1.00000000   0.221E+00       0.001       32.256   0.100E-07
     TRS4 it   5 1.00000000   0.737E-01       0.001       32.256   0.100E-07
     TRS4 it   6 1.00000000   0.103E-01       0.001       32.256   0.100E-07
     TRS4 it   7 1.00000000   0.269E-03       0.001       32.256   0.100E-07
     TRS4 it   8 1.00000000   0.262E-06       0.001       29.780   0.100E-07
     TRS4 it   9 1.00000000   0.299E-12       0.001       32.256   0.100E-07
     Final TRS4 iteration    9 1.00000000   0.299E-12
     Chemical potential (mu):       0.00462
 
 PAO| energy:  -7.8102496885041681      penalty:   1.4507830588575213E-005
 PAO|LS| adapt:  T T F
 PAO|LS| adapt: scan_steps:    0.0000000000000000       0.22968369670698066        0.0000000000000000     
 PAO|LS| adapt: energies:   -7.8052058630962051       -7.8102496885041681        0.0000000000000000     
 PAO| ======================= Iteration:        11 =============================

     Lanczos converged:  T threshold:   0.100E-02
     Est. extremal eigenvalues:    0.278E+01   0.180E+00
     Est. condition number :    0.154E+02
     NS sqrt iter    1 1.00000000   0.710E+00       0.002       40.919
     NS sqrt iter    2 1.00000000   0.333E+00       0.002       64.166
     NS sqrt iter    3 1.00000000   0.769E-01       0.002       64.078
     NS sqrt iter    4 1.00000000   0.193E-02       0.002       64.044
     NS sqrt iter    5 1.00000000   0.618E-07       0.002       45.148
     Final NS sqrt iter    5 1.00000000   0.720E-09

     Est. extremal eigenvalues     -0.93734     1.69945  converged:  T
     TRS4 it   1 1.00000000   0.868E+00       0.001       16.128   0.100E-07
     TRS4 it   2 1.00000000   0.619E+00       0.001       32.256   0.100E-07
     TRS4 it   3 1.00000000   0.424E+00       0.001       32.256   0.100E-07
     TRS4 it   4 1.00000000   0.218E+00       0.001       32.256   0.100E-07
     TRS4 it   5 1.00000000   0.715E-01       0.001       32.256   0.100E-07
     TRS4 it   6 1.00000000   0.962E-02       0.001       32.256   0.100E-07
     TRS4 it   7 1.00000000   0.231E-03       0.001       32.256   0.100E-07
     TRS4 it   8 1.00000000   0.187E-06       0.001       32.256   0.100E-07
     TRS4 it   9 1.00000000   0.150E-12       0.001       32.256   0.100E-07
     Final TRS4 iteration    9 1.00000000   0.150E-12
     Chemical potential (mu):       0.00801
 
 PAO| energy:  -7.8088064204688319      penalty:   1.5726021364427505E-005
 PAO|LS| adapt:  T T T
 PAO|LS| adapt: scan_steps:    0.0000000000000000       0.22968369670698066       0.45936739341396132     
 PAO|LS| adapt: energies:   -7.8052058630962051       -7.8102496885041681       -7.8088064204688319     
 PAO|LS| adapt: suggested step_size:   0.29342482628826633     
 PAO|LS| adapt: predicted energy  -7.8104994924708233     
 PAO| ======================= Iteration:        12 =============================

     Lanczos converged:  T threshold:   0.100E-02
     Est. extremal eigenvalues:    0.281E+01   0.176E+00
     Est. condition number :    0.159E+02
     NS sqrt iter    1 1.00000000   0.716E+00       0.002       40.653
     NS sqrt iter    2 1.00000000   0.339E+00       0.002       62.968
     NS sqrt iter    3 1.00000000   0.807E-01       0.002       63.597
     NS sqrt iter    4 1.00000000   0.223E-02       0.002       65.754
     NS sqrt iter    5 1.00000000   0.958E-07       0.002       48.569
     Final NS sqrt iter    5 1.00000000   0.101E-08

     Est. extremal eigenvalues     -0.93750     1.70307  converged:  T
     TRS4 it   1 1.00000000   0.870E+00       0.001       16.128   0.100E-07
     TRS4 it   2 1.00000000   0.620E+00       0.001       32.256   0.100E-07
     TRS4 it   3 1.00000000   0.426E+00       0.001       32.256   0.100E-07
     TRS4 it   4 1.00000000   0.220E+00       0.001       32.256   0.100E-07
     TRS4 it   5 1.00000000   0.731E-01       0.001       32.256   0.100E-07
     TRS4 it   6 1.00000000   0.101E-01       0.001       32.256   0.100E-07
     TRS4 it   7 1.00000000   0.258E-03       0.001       32.256   0.100E-07
     TRS4 it   8 1.00000000   0.239E-06       0.001       32.256   0.100E-07
     TRS4 it   9 1.00000000   0.248E-12       0.001       32.256   0.100E-07
     Final TRS4 iteration    9 1.00000000   0.248E-12
     Chemical potential (mu):       0.00555
 
 PAO| energy:  -7.8104833957933106      penalty:   1.4770723908261297E-005
 PAO|CG| trace_G_new    1.1837090786810882E-002
 PAO|CG| trace_G_prev    3.6933472532555238E-002
 PAO|CG| trace_G_mix   -4.6033427767198823E-004
 PAO|CG| trace_D    4.4758488309943896E-002
 PAO|CG| trace_D_Gnew   2.1158812369115841E-004
 PAO|CG| beta:   0.33296151759473003     
 PAO| norm of gradient:  0.10879839514814031     
 PAO| energy improvement:  -5.2775326971055136E-003
 PAO| step     12                   -7.810483396  0.680E-02  0.293E+00     0.082
 PAO|LS| adapt:  T F F
 PAO|LS| adapt: scan_steps:    0.0000000000000000        0.0000000000000000        0.0000000000000000     
 PAO|LS| adapt: energies:   -7.8104833957933106        0.0000000000000000        0.0000000000000000     
 PAO| ======================= Iteration:        13 =============================

     Lanczos converged:  T threshold:   0.100E-02
     Est. extremal eigenvalues:    0.277E+01   0.180E+00
     Est. condition number :    0.154E+02
     NS sqrt iter    1 1.00000000   0.709E+00       0.002       40.490
     NS sqrt iter    2 1.00000000   0.332E+00       0.002       62.586
     NS sqrt iter    3 1.00000000   0.764E-01       0.002       64.445
     NS sqrt iter    4 1.00000000   0.191E-02       0.002       64.070
     NS sqrt iter    5 1.00000000   0.603E-07       0.002       46.181
     Final NS sqrt iter    5 1.00000000   0.727E-09

     Est. extremal eigenvalues     -0.93799     1.69600  converged:  T
     TRS4 it   1 1.00000000   0.869E+00       0.001       16.128   0.100E-07
     TRS4 it   2 1.00000000   0.617E+00       0.001       32.256   0.100E-07
     TRS4 it   3 1.00000000   0.422E+00       0.001       31.647   0.100E-07
     TRS4 it   4 1.00000000   0.215E+00       0.001       32.256   0.100E-07
     TRS4 it   5 1.00000000   0.695E-01       0.001       32.256   0.100E-07
     TRS4 it   6 1.00000000   0.906E-02       0.001       32.256   0.100E-07
     TRS4 it   7 1.00000000   0.205E-03       0.001       32.256   0.100E-07
     TRS4 it   8 1.00000000   0.146E-06       0.001       32.256   0.100E-07
     TRS4 it   9 1.00000000   0.920E-13       0.001       32.256   0.100E-07
     Final TRS4 iteration    9 1.00000000   0.920E-13
     Chemical potential (mu):       0.01020
 
 PAO| energy:  -7.8125508153942036      penalty:   1.5080168848661111E-005
 PAO|LS| adapt:  T T F
 PAO|LS| adapt: scan_steps:    0.0000000000000000       0.29342482628826633        0.0000000000000000     
 PAO|LS| adapt: energies:   -7.8104833957933106       -7.8125508153942036        0.0000000000000000     
 PAO| ======================= Iteration:        14 =============================

     Lanczos converged:  T threshold:   0.100E-02
     Est. extremal eigenvalues:    0.274E+01   0.184E+00
     Est. condition number :    0.149E+02
     NS sqrt iter    1 1.00000000   0.702E+00       0.002       40.104
     NS sqrt iter    2 1.00000000   0.325E+00       0.002       63.209
     NS sqrt iter    3 1.00000000   0.723E-01       0.002       62.822
     NS sqrt iter    4 1.00000000   0.163E-02       0.002       61.631
     NS sqrt iter    5 1.00000000   0.379E-07       0.002       44.284
     Final NS sqrt iter    5 1.00000000   0.424E-09

     Est. extremal eigenvalues     -0.93796     1.68930  converged:  T
     TRS4 it   1 1.00000000   0.868E+00       0.001       16.128   0.100E-07
     TRS4 it   2 1.00000000   0.614E+00       0.001       32.256   0.100E-07
     TRS4 it   3 1.00000000   0.418E+00       0.001       31.124   0.100E-07
     TRS4 it   4 1.00000000   0.211E+00       0.001       32.256   0.100E-07
     TRS4 it   5 1.00000000   0.661E-01       0.001       32.256   0.100E-07
     TRS4 it   6 1.00000000   0.813E-02       0.001       30.975   0.100E-07
     TRS4 it   7 1.00000000   0.163E-03       0.001       32.256   0.100E-07
     TRS4 it   8 1.00000000   0.893E-07       0.001       32.256   0.100E-07
     TRS4 it   9 1.00000000   0.335E-13       0.001       32.256   0.100E-07
     Final TRS4 iteration    9 1.00000000   0.335E-13
     Chemical potential (mu):       0.01476
 
 PAO| energy:  -7.8118974413848710      penalty:   1.5869609228833058E-005
 PAO|LS| adapt:  T T T
 PAO|LS| adapt: scan_steps:    0.0000000000000000       0.29342482628826633       0.58684965257653265     
 PAO|LS| adapt: energies:   -7.8104833957933106       -7.8125508153942036       -7.8118974413848710     
 PAO|LS| adapt: suggested step_size:   0.36967391782315795     
 PAO|LS| adapt: predicted energy  -7.8126426785241145     
 PAO| ======================= Iteration:        15 =============================

     Lanczos converged:  T threshold:   0.100E-02
     Est. extremal eigenvalues:    0.277E+01   0.181E+00
     Est. condition number :    0.152E+02
     NS sqrt iter    1 1.00000000   0.707E+00       0.002       39.635
     NS sqrt iter    2 1.00000000   0.330E+00       0.002       63.390
     NS sqrt iter    3 1.00000000   0.753E-01       0.013        8.382
     NS sqrt iter    4 1.00000000   0.183E-02       0.003       37.950
     NS sqrt iter    5 1.00000000   0.535E-07       0.002       42.262
     Final NS sqrt iter    5 1.00000000   0.461E-09

     Est. extremal eigenvalues     -0.93803     1.69422  converged:  T
     TRS4 it   1 1.00000000   0.869E+00       0.001       16.128   0.100E-07
     TRS4 it   2 1.00000000   0.616E+00       0.001       32.256   0.100E-07
     TRS4 it   3 1.00000000   0.421E+00       0.001       32.256   0.100E-07
     TRS4 it   4 1.00000000   0.214E+00       0.001       31.788   0.100E-07
     TRS4 it   5 1.00000000   0.686E-01       0.001       32.256   0.100E-07
     TRS4 it   6 1.00000000   0.881E-02       0.001       32.215   0.100E-07
     TRS4 it   7 1.00000000   0.193E-03       0.001       32.256   0.100E-07
     TRS4 it   8 1.00000000   0.129E-06       0.002       17.781   0.100E-07
     TRS4 it   9 1.00000000   0.708E-13       0.001       30.413   0.100E-07
     Final TRS4 iteration    9 1.00000000   0.708E-13
     Chemical potential (mu):       0.01139
 
 PAO| energy:  -7.8126396403787890      penalty:   1.5236120914308765E-005
 PAO|CG| trace_G_new    2.6126050443112539E-003
 PAO|CG| trace_G_prev    1.1837090786810882E-002
 PAO|CG| trace_G_mix    6.6157601369093910E-005
 PAO|CG| trace_D    1.6658266329841683E-002
 PAO|CG| trace_D_Gnew   3.4095158490118414E-005
 PAO|CG| beta:   0.21512443292058395     
 PAO| norm of gradient:   5.1113648317364847E-002
 PAO| energy improvement:  -2.1562445854783618E-003
 PAO| step     15                   -7.812639640  0.319E-02  0.370E+00     0.097
 PAO|LS| adapt:  T F F
 PAO|LS| adapt: scan_steps:    0.0000000000000000        0.0000000000000000        0.0000000000000000     
 PAO|LS| adapt: energies:   -7.8126396403787890        0.0000000000000000        0.0000000000000000     
 PAO| ======================= Iteration:        16 =============================

     Lanczos converged:  T threshold:   0.100E-02
     Est. extremal eigenvalues:    0.276E+01   0.182E+00
     Est. condition number :    0.151E+02
     NS sqrt iter    1 1.00000000   0.705E+00       0.003       21.259
     NS sqrt iter    2 1.00000000   0.329E+00       0.002       61.108
     NS sqrt iter    3 1.00000000   0.747E-01       0.002       62.700
     NS sqrt iter    4 1.00000000   0.178E-02       0.002       64.196
     NS sqrt iter    5 1.00000000   0.491E-07       0.002       44.608
     Final NS sqrt iter    5 1.00000000   0.423E-09

     Est. extremal eigenvalues     -0.93806     1.69377  converged:  T
     TRS4 it   1 1.00000000   0.869E+00       0.001       16.128   0.100E-07
     TRS4 it   2 1.00000000   0.615E+00       0.001       31.857   0.100E-07
     TRS4 it   3 1.00000000   0.420E+00       0.001       32.256   0.100E-07
     TRS4 it   4 1.00000000   0.213E+00       0.001       32.065   0.100E-07
     TRS4 it   5 1.00000000   0.675E-01       0.001       32.256   0.100E-07
     TRS4 it   6 1.00000000   0.853E-02       0.001       32.256   0.100E-07
     TRS4 it   7 1.00000000   0.182E-03       0.001       32.256   0.100E-07
     TRS4 it   8 1.00000000   0.115E-06       0.001       32.256   0.100E-07
     TRS4 it   9 1.00000000   0.572E-13       0.001       32.256   0.100E-07
     Final TRS4 iteration    9 1.00000000   0.572E-13
     Chemical potential (mu):       0.01223
 
 PAO| energy:  -7.8127673040045087      penalty:   1.5017208481453825E-005
 PAO|LS| adapt:  T T F
 PAO|LS| adapt: scan_steps:    0.0000000000000000       0.36967391782315795        0.0000000000000000     
 PAO|LS| adapt: energies:   -7.8126396403787890       -7.8127673040045087        0.0000000000000000     
 PAO| ======================= Iteration:        17 =============================

     Lanczos converged:  T threshold:   0.100E-02
     Est. extremal eigenvalues:    0.275E+01   0.183E+00
     Est. condition number :    0.151E+02
     NS sqrt iter    1 1.00000000   0.703E+00       0.002       39.881
     NS sqrt iter    2 1.00000000   0.328E+00       0.002       61.212
     NS sqrt iter    3 1.00000000   0.741E-01       0.002       63.791
     NS sqrt iter    4 1.00000000   0.173E-02       0.002       62.175
     NS sqrt iter    5 1.00000000   0.451E-07       0.002       39.053
     Final NS sqrt iter    5 1.00000000   0.420E-09

     Est. extremal eigenvalues     -0.93796     1.69339  converged:  T
     TRS4 it   1 1.00000000   0.869E+00       0.001       16.128   0.100E-07
     TRS4 it   2 1.00000000   0.614E+00       0.001       32.256   0.100E-07
     TRS4 it   3 1.00000000   0.418E+00       0.001       29.278   0.100E-07
     TRS4 it   4 1.00000000   0.211E+00       0.001       32.256   0.100E-07
     TRS4 it   5 1.00000000   0.664E-01       0.001       28.016   0.100E-07
     TRS4 it   6 1.00000000   0.826E-02       0.001       32.256   0.100E-07
     TRS4 it   7 1.00000000   0.172E-03       0.001       32.256   0.100E-07
     TRS4 it   8 1.00000000   0.104E-06       0.001       25.801   0.100E-07
     TRS4 it   9 1.00000000   0.464E-13       0.001       32.256   0.100E-07
     Final TRS4 iteration    9 1.00000000   0.464E-13
     Chemical potential (mu):       0.01304
 
 PAO| energy:  -7.8112184653391985      penalty:   1.4922953565209582E-005
 PAO|LS| adapt:  T T T
 PAO|LS| adapt: scan_steps:    0.0000000000000000       0.36967391782315795       0.73934783564631590     
 PAO|LS| adapt: energies:   -7.8126396403787890       -7.8127673040045087       -7.8112184653391985     
 PAO|LS| adapt: suggested step_size:   0.21298718151241927     
 PAO|LS| adapt: predicted energy  -7.8129178956935244     
 PAO| ======================= Iteration:        18 =============================

     Lanczos converged:  T threshold:   0.100E-02
     Est. extremal eigenvalues:    0.276E+01   0.182E+00
     Est. condition number :    0.152E+02
     NS sqrt iter    1 1.00000000   0.706E+00       0.002       32.795
     NS sqrt iter    2 1.00000000   0.330E+00       0.002       63.620
     NS sqrt iter    3 1.00000000   0.750E-01       0.002       61.518
     NS sqrt iter    4 1.00000000   0.180E-02       0.002       58.100
     NS sqrt iter    5 1.00000000   0.509E-07       0.002       40.134
     Final NS sqrt iter    5 1.00000000   0.444E-09

     Est. extremal eigenvalues     -0.93806     1.69395  converged:  T
     TRS4 it   1 1.00000000   0.869E+00       0.001       16.128   0.100E-07
     TRS4 it   2 1.00000000   0.616E+00       0.001       32.256   0.100E-07
     TRS4 it   3 1.00000000   0.420E+00       0.001       32.256   0.100E-07
     TRS4 it   4 1.00000000   0.213E+00       0.001       32.256   0.100E-07
     TRS4 it   5 1.00000000   0.679E-01       0.001       26.766   0.100E-07
     TRS4 it   6 1.00000000   0.865E-02       0.001       28.623   0.100E-07
     TRS4 it   7 1.00000000   0.186E-03       0.001       32.256   0.100E-07
     TRS4 it   8 1.00000000   0.121E-06       0.001       32.256   0.100E-07
     TRS4 it   9 1.00000000   0.622E-13       0.001       32.256   0.100E-07
     Final TRS4 iteration    9 1.00000000   0.622E-13
     Chemical potential (mu):       0.01188
 
 PAO| energy:  -7.8129174330047082      penalty:   1.5095042590179610E-005
 PAO|CG| trace_G_new    7.2703138006819398E-004
 PAO|CG| trace_G_prev    2.6126050443112539E-003
 PAO|CG| trace_G_mix    1.6160663410352318E-006
 PAO|CG| trace_D    3.3688555798607189E-003
 PAO|CG| trace_D_Gnew  -1.7836081684760894E-006
 PAO|CG| beta:   0.27765976924322894     
 PAO| norm of gradient:   2.6963519430300526E-002
 PAO| energy improvement:  -2.7779262591920428E-004
 PAO| step     18                   -7.812917433  0.169E-02  0.213E+00     0.091
 PAO|LS| adapt:  T F F
 PAO|LS| adapt: scan_steps:    0.0000000000000000        0.0000000000000000        0.0000000000000000     
 PAO|LS| adapt: energies:   -7.8129174330047082        0.0000000000000000        0.0000000000000000     
 PAO| ======================= Iteration:        19 =============================

     Lanczos converged:  T threshold:   0.100E-02
     Est. extremal eigenvalues:    0.276E+01   0.182E+00
     Est. condition number :    0.152E+02
     NS sqrt iter    1 1.00000000   0.706E+00       0.002       41.475
     NS sqrt iter    2 1.00000000   0.330E+00       0.002       63.816
     NS sqrt iter    3 1.00000000   0.752E-01       0.002       62.425
     NS sqrt iter    4 1.00000000   0.181E-02       0.003       38.774
     NS sqrt iter    5 1.00000000   0.515E-07       0.002       45.749
     Final NS sqrt iter    5 1.00000000   0.452E-09

     Est. extremal eigenvalues     -0.93806     1.69418  converged:  T
     TRS4 it   1 1.00000000   0.869E+00       0.001       16.128   0.100E-07
     TRS4 it   2 1.00000000   0.615E+00       0.001       32.256   0.100E-07
     TRS4 it   3 1.00000000   0.420E+00       0.001       32.256   0.100E-07
     TRS4 it   4 1.00000000   0.213E+00       0.001       32.256   0.100E-07
     TRS4 it   5 1.00000000   0.678E-01       0.001       32.256   0.100E-07
     TRS4 it   6 1.00000000   0.864E-02       0.001       32.256   0.100E-07
     TRS4 it   7 1.00000000   0.187E-03       0.001       32.256   0.100E-07
     TRS4 it   8 1.00000000   0.123E-06       0.001       32.256   0.100E-07
     TRS4 it   9 1.00000000   0.644E-13       0.001       32.256   0.100E-07
     Final TRS4 iteration    9 1.00000000   0.644E-13
     Chemical potential (mu):       0.01159
 
 PAO| energy:  -7.8130355740096586      penalty:   1.4805395207282647E-005
 PAO|LS| adapt:  T T F
 PAO|LS| adapt: scan_steps:    0.0000000000000000       0.21298718151241927        0.0000000000000000     
 PAO|LS| adapt: energies:   -7.8129174330047082       -7.8130355740096586        0.0000000000000000     
 PAO| ======================= Iteration:        20 =============================

     Lanczos converged:  T threshold:   0.100E-02
     Est. extremal eigenvalues:    0.276E+01   0.181E+00
     Est. condition number :    0.152E+02
     NS sqrt iter    1 1.00000000   0.706E+00       0.002       37.902
     NS sqrt iter    2 1.00000000   0.330E+00       0.002       64.106
     NS sqrt iter    3 1.00000000   0.754E-01       0.002       64.335
     NS sqrt iter    4 1.00000000   0.182E-02       0.002       64.734
     NS sqrt iter    5 1.00000000   0.521E-07       0.002       45.656
     Final NS sqrt iter    5 1.00000000   0.461E-09

     Est. extremal eigenvalues     -0.93806     1.69441  converged:  T
     TRS4 it   1 1.00000000   0.869E+00       0.001       16.128   0.100E-07
     TRS4 it   2 1.00000000   0.615E+00       0.001       32.256   0.100E-07
     TRS4 it   3 1.00000000   0.420E+00       0.001       32.129   0.100E-07
     TRS4 it   4 1.00000000   0.213E+00       0.001       31.583   0.100E-07
     TRS4 it   5 1.00000000   0.677E-01       0.001       32.256   0.100E-07
     TRS4 it   6 1.00000000   0.863E-02       0.001       32.256   0.100E-07
     TRS4 it   7 1.00000000   0.188E-03       0.001       32.256   0.100E-07
     TRS4 it   8 1.00000000   0.125E-06       0.001       32.256   0.100E-07
     TRS4 it   9 1.00000000   0.677E-13       0.001       32.256   0.100E-07
     Final TRS4 iteration    9 1.00000000   0.677E-13
     Chemical potential (mu):       0.01130
 
 PAO| energy:  -7.8130796908243108      penalty:   1.4528224546256116E-005
 PAO|LS| adapt:  T T F
 PAO|LS| adapt: scan_steps:    0.0000000000000000       0.42597436302483854        0.0000000000000000     
 PAO|LS| adapt: energies:   -7.8129174330047082       -7.8130796908243108        0.0000000000000000     
 PAO| ======================= Iteration:        21 =============================

     Lanczos converged:  T threshold:   0.100E-02
     Est. extremal eigenvalues:    0.276E+01   0.181E+00
     Est. condition number :    0.152E+02
     NS sqrt iter    1 1.00000000   0.706E+00       0.002       41.118
     NS sqrt iter    2 1.00000000   0.331E+00       0.002       64.297
     NS sqrt iter    3 1.00000000   0.758E-01       0.002       59.534
     NS sqrt iter    4 1.00000000   0.184E-02       0.002       64.466
     NS sqrt iter    5 1.00000000   0.535E-07       0.002       46.254
     Final NS sqrt iter    5 1.00000000   0.605E-09

     Est. extremal eigenvalues     -0.93805     1.69488  converged:  T
     TRS4 it   1 1.00000000   0.869E+00       0.001       16.128   0.100E-07
     TRS4 it   2 1.00000000   0.615E+00       0.001       32.256   0.100E-07
     TRS4 it   3 1.00000000   0.420E+00       0.001       32.256   0.100E-07
     TRS4 it   4 1.00000000   0.213E+00       0.001       32.256   0.100E-07
     TRS4 it   5 1.00000000   0.675E-01       0.001       32.256   0.100E-07
     TRS4 it   6 1.00000000   0.862E-02       0.001       32.256   0.100E-07
     TRS4 it   7 1.00000000   0.189E-03       0.001       31.916   0.100E-07
     TRS4 it   8 1.00000000   0.129E-06       0.001       32.256   0.100E-07
     TRS4 it   9 1.00000000   0.724E-13       0.001       23.123   0.100E-07
     Final TRS4 iteration    9 1.00000000   0.724E-13
     Chemical potential (mu):       0.01072
 
 PAO| energy:  -7.8129434572495766      penalty:   1.4010733327980286E-005
 PAO|LS| Need extra step
 PAO|LS| adapt:  T T T
 PAO|LS| adapt: scan_steps:    0.0000000000000000       0.42597436302483854       0.85194872604967709     
 PAO|LS| adapt: energies:   -7.8129174330047082       -7.8130796908243108       -7.8129434572495766     
 PAO|LS| adapt: suggested step_size:   0.44454384499543437     
 PAO|LS| adapt: predicted energy  -7.8130799744427559     
 PAO| ======================= Iteration:        22 =============================

     Lanczos converged:  T threshold:   0.100E-02
     Est. extremal eigenvalues:    0.276E+01   0.181E+00
     Est. condition number :    0.152E+02
     NS sqrt iter    1 1.00000000   0.706E+00       0.002       39.714
     NS sqrt iter    2 1.00000000   0.330E+00       0.002       62.744
     NS sqrt iter    3 1.00000000   0.754E-01       0.002       64.441
     NS sqrt iter    4 1.00000000   0.182E-02       0.002       61.336
     NS sqrt iter    5 1.00000000   0.522E-07       0.002       46.566
     Final NS sqrt iter    5 1.00000000   0.461E-09

     Est. extremal eigenvalues     -0.93806     1.69443  converged:  T
     TRS4 it   1 1.00000000   0.869E+00       0.001       16.128   0.100E-07
     TRS4 it   2 1.00000000   0.615E+00       0.001       32.256   0.100E-07
     TRS4 it   3 1.00000000   0.420E+00       0.001       32.256   0.100E-07
     TRS4 it   4 1.00000000   0.213E+00       0.001       32.256   0.100E-07
     TRS4 it   5 1.00000000   0.677E-01       0.001       32.256   0.100E-07
     TRS4 it   6 1.00000000   0.863E-02       0.001       32.256   0.100E-07
     TRS4 it   7 1.00000000   0.188E-03       0.001       32.256   0.100E-07
     TRS4 it   8 1.00000000   0.125E-06       0.001       32.068   0.100E-07
     TRS4 it   9 1.00000000   0.667E-13       0.001       32.256   0.100E-07
     Final TRS4 iteration    9 1.00000000   0.667E-13
     Chemical potential (mu):       0.01127
 
 PAO| energy:  -7.8130800091631958      penalty:   1.4504644628844960E-005
 PAO|CG| trace_G_new    2.2374582921486482E-004
 PAO|CG| trace_G_prev    7.2703138006819398E-004
 PAO|CG| trace_G_mix    2.9970555461692786E-006
 PAO|CG| trace_D    9.8774359645005159E-004
 PAO|CG| trace_D_Gnew  -1.8632529340665939E-006
 PAO|CG| beta:   0.30363032424816350     
 PAO| norm of gradient:   1.4958135887030335E-002
 PAO| energy improvement:  -1.6257615848758178E-004
 PAO| step     22                   -7.813080009  0.935E-03  0.445E+00     0.110
 PAO|LS| adapt:  T F F
 PAO|LS| adapt: scan_steps:    0.0000000000000000        0.0000000000000000        0.0000000000000000     
 PAO|LS| adapt: energies:   -7.8130800091631958        0.0000000000000000        0.0000000000000000     
 PAO| ======================= Iteration:        23 =============================

     Lanczos converged:  T threshold:   0.100E-02
     Est. extremal eigenvalues:    0.276E+01   0.181E+00
     Est. condition number :    0.152E+02
     NS sqrt iter    1 1.00000000   0.706E+00       0.002       33.803
     NS sqrt iter    2 1.00000000   0.330E+00       0.002       62.428
     NS sqrt iter    3 1.00000000   0.755E-01       0.002       58.317
     NS sqrt iter    4 1.00000000   0.182E-02       0.002       63.735
     NS sqrt iter    5 1.00000000   0.521E-07       0.002       46.187
     Final NS sqrt iter    5 1.00000000   0.462E-09

     Est. extremal eigenvalues     -0.93806     1.69399  converged:  T
     TRS4 it   1 1.00000000   0.869E+00       0.001       16.128   0.100E-07
     TRS4 it   2 1.00000000   0.615E+00       0.001       24.906   0.100E-07
     TRS4 it   3 1.00000000   0.420E+00       0.001       30.497   0.100E-07
     TRS4 it   4 1.00000000   0.213E+00       0.001       32.256   0.100E-07
     TRS4 it   5 1.00000000   0.678E-01       0.001       32.256   0.100E-07
     TRS4 it   6 1.00000000   0.866E-02       0.001       29.502   0.100E-07
     TRS4 it   7 1.00000000   0.190E-03       0.001       27.510   0.100E-07
     TRS4 it   8 1.00000000   0.128E-06       0.001       32.256   0.100E-07
     TRS4 it   9 1.00000000   0.713E-13       0.001       32.256   0.100E-07
     Final TRS4 iteration    9 1.00000000   0.713E-13
     Chemical potential (mu):       0.01095
 
 PAO| energy:  -7.8131298952200217      penalty:   1.3822024313559081E-005
 PAO|LS| adapt:  T T F
 PAO|LS| adapt: scan_steps:    0.0000000000000000       0.44454384499543437        0.0000000000000000     
 PAO|LS| adapt: energies:   -7.8130800091631958       -7.8131298952200217        0.0000000000000000     
 PAO| ======================= Iteration:        24 =============================

     Lanczos converged:  T threshold:   0.100E-02
     Est. extremal eigenvalues:    0.276E+01   0.181E+00
     Est. condition number :    0.152E+02
     NS sqrt iter    1 1.00000000   0.706E+00       0.002       39.998
     NS sqrt iter    2 1.00000000   0.330E+00       0.002       62.662
     NS sqrt iter    3 1.00000000   0.755E-01       0.002       53.119
     NS sqrt iter    4 1.00000000   0.182E-02       0.002       63.642
     NS sqrt iter    5 1.00000000   0.521E-07       0.002       45.577
     Final NS sqrt iter    5 1.00000000   0.463E-09

     Est. extremal eigenvalues     -0.93806     1.69355  converged:  T
     TRS4 it   1 1.00000000   0.868E+00       0.001       16.128   0.100E-07
     TRS4 it   2 1.00000000   0.615E+00       0.001       32.256   0.100E-07
     TRS4 it   3 1.00000000   0.420E+00       0.001       32.256   0.100E-07
     TRS4 it   4 1.00000000   0.213E+00       0.001       32.256   0.100E-07
     TRS4 it   5 1.00000000   0.679E-01       0.001       32.256   0.100E-07
     TRS4 it   6 1.00000000   0.869E-02       0.001       32.256   0.100E-07
     TRS4 it   7 1.00000000   0.191E-03       0.001       32.256   0.100E-07
     TRS4 it   8 1.00000000   0.131E-06       0.001       32.256   0.100E-07
     TRS4 it   9 1.00000000   0.738E-13       0.001       32.256   0.100E-07
     Final TRS4 iteration    9 1.00000000   0.738E-13
     Chemical potential (mu):       0.01064
 
 PAO| energy:  -7.8130794814460574      penalty:   1.3167910368893606E-005
 PAO|LS| adapt:  T T T
 PAO|LS| adapt: scan_steps:    0.0000000000000000       0.44454384499543437       0.88908768999086873     
 PAO|LS| adapt: energies:   -7.8130800091631958       -7.8131298952200217       -7.8130794814460574     
 PAO|LS| adapt: suggested step_size:   0.44337438436952692     
 PAO|LS| adapt: predicted energy  -7.8131298955670889     
 PAO| ======================= Iteration:        25 =============================

     Lanczos converged:  T threshold:   0.100E-02
     Est. extremal eigenvalues:    0.276E+01   0.181E+00
     Est. condition number :    0.152E+02
     NS sqrt iter    1 1.00000000   0.706E+00       0.002       40.036
     NS sqrt iter    2 1.00000000   0.330E+00       0.002       62.897
     NS sqrt iter    3 1.00000000   0.755E-01       0.002       64.959
     NS sqrt iter    4 1.00000000   0.182E-02       0.002       65.048
     NS sqrt iter    5 1.00000000   0.521E-07       0.002       44.891
     Final NS sqrt iter    5 1.00000000   0.462E-09

     Est. extremal eigenvalues     -0.93806     1.69400  converged:  T
     TRS4 it   1 1.00000000   0.869E+00       0.001       16.128   0.100E-07
     TRS4 it   2 1.00000000   0.615E+00       0.001       32.256   0.100E-07
     TRS4 it   3 1.00000000   0.420E+00       0.001       32.256   0.100E-07
     TRS4 it   4 1.00000000   0.213E+00       0.001       32.256   0.100E-07
     TRS4 it   5 1.00000000   0.678E-01       0.001       32.256   0.100E-07
     TRS4 it   6 1.00000000   0.866E-02       0.001       31.309   0.100E-07
     TRS4 it   7 1.00000000   0.190E-03       0.001       32.256   0.100E-07
     TRS4 it   8 1.00000000   0.128E-06       0.001       32.256   0.100E-07
     TRS4 it   9 1.00000000   0.705E-13       0.001       32.256   0.100E-07
     Final TRS4 iteration    9 1.00000000   0.705E-13
     Chemical potential (mu):       0.01096
 
 PAO| energy:  -7.8131298951465400      penalty:   1.3823782413602985E-005
 PAO|CG| trace_G_new    8.0587557512845398E-005
 PAO|CG| trace_G_prev    2.2374582921486482E-004
 PAO|CG| trace_G_mix    7.1987739984267449E-007
 PAO|CG| trace_D    3.1593874852180930E-004
 PAO|CG| trace_D_Gnew  -3.5967474628187457E-007
 PAO|CG| beta:   0.35695717946234962     
 PAO| norm of gradient:   8.9770572858172953E-003
 PAO| energy improvement:  -4.9885983344211127E-005
 PAO| step     25                   -7.813129895  0.561E-03  0.443E+00     0.085
 PAO|LS| adapt:  T F F
 PAO|LS| adapt: scan_steps:    0.0000000000000000        0.0000000000000000        0.0000000000000000     
 PAO|LS| adapt: energies:   -7.8131298951465400        0.0000000000000000        0.0000000000000000     
 PAO| ======================= Iteration:        26 =============================

     Lanczos converged:  T threshold:   0.100E-02
     Est. extremal eigenvalues:    0.276E+01   0.182E+00
     Est. condition number :    0.152E+02
     NS sqrt iter    1 1.00000000   0.705E+00       0.002       41.679
     NS sqrt iter    2 1.00000000   0.330E+00       0.002       64.234
     NS sqrt iter    3 1.00000000   0.753E-01       0.002       62.238
     NS sqrt iter    4 1.00000000   0.182E-02       0.002       63.627
     NS sqrt iter    5 1.00000000   0.516E-07       0.002       45.025
     Final NS sqrt iter    5 1.00000000   0.454E-09

     Est. extremal eigenvalues     -0.93806     1.69340  converged:  T
     TRS4 it   1 1.00000000   0.869E+00       0.001       16.128   0.100E-07
     TRS4 it   2 1.00000000   0.615E+00       0.001       32.256   0.100E-07
     TRS4 it   3 1.00000000   0.420E+00       0.001       32.256   0.100E-07
     TRS4 it   4 1.00000000   0.213E+00       0.001       32.256   0.100E-07
     TRS4 it   5 1.00000000   0.677E-01       0.001       32.256   0.100E-07
     TRS4 it   6 1.00000000   0.863E-02       0.001       32.256   0.100E-07
     TRS4 it   7 1.00000000   0.188E-03       0.001       32.256   0.100E-07
     TRS4 it   8 1.00000000   0.126E-06       0.001       31.183   0.100E-07
     TRS4 it   9 1.00000000   0.683E-13       0.001       27.991   0.100E-07
     Final TRS4 iteration    9 1.00000000   0.683E-13
     Chemical potential (mu):       0.01108
 
 PAO| energy:  -7.8131340656815365      penalty:   1.3098164027834185E-005
 PAO|LS| adapt:  T T F
 PAO|LS| adapt: scan_steps:    0.0000000000000000       0.44337438436952692        0.0000000000000000     
 PAO|LS| adapt: energies:   -7.8131298951465400       -7.8131340656815365        0.0000000000000000     
 PAO| ======================= Iteration:        27 =============================

     Lanczos converged:  T threshold:   0.100E-02
     Est. extremal eigenvalues:    0.276E+01   0.182E+00
     Est. condition number :    0.152E+02
     NS sqrt iter    1 1.00000000   0.705E+00       0.002       34.058
     NS sqrt iter    2 1.00000000   0.330E+00       0.002       56.624
     NS sqrt iter    3 1.00000000   0.752E-01       0.002       63.782
     NS sqrt iter    4 1.00000000   0.181E-02       0.002       64.190
     NS sqrt iter    5 1.00000000   0.511E-07       0.002       46.001
     Final NS sqrt iter    5 1.00000000   0.447E-09

     Est. extremal eigenvalues     -0.93806     1.69280  converged:  T
     TRS4 it   1 1.00000000   0.868E+00       0.001       16.128   0.100E-07
     TRS4 it   2 1.00000000   0.615E+00       0.001       32.256   0.100E-07
     TRS4 it   3 1.00000000   0.419E+00       0.001       32.256   0.100E-07
     TRS4 it   4 1.00000000   0.213E+00       0.001       24.501   0.100E-07
     TRS4 it   5 1.00000000   0.676E-01       0.001       32.256   0.100E-07
     TRS4 it   6 1.00000000   0.861E-02       0.001       32.256   0.100E-07
     TRS4 it   7 1.00000000   0.187E-03       0.001       32.256   0.100E-07
     TRS4 it   8 1.00000000   0.124E-06       0.001       32.256   0.100E-07
     TRS4 it   9 1.00000000   0.661E-13       0.001       32.256   0.100E-07
     Final TRS4 iteration    9 1.00000000   0.661E-13
     Chemical potential (mu):       0.01121
 
 PAO| energy:  -7.8130748953099065      penalty:   1.2396524031047245E-005
 PAO|LS| adapt:  T T T
 PAO|LS| adapt: scan_steps:    0.0000000000000000       0.44337438436952692       0.88674876873905384     
 PAO|LS| adapt: energies:   -7.8131298951465400       -7.8131340656815365       -7.8130748953099065     
 PAO|LS| adapt: suggested step_size:   0.25088014954885646     
 PAO|LS| adapt: predicted energy  -7.8131400353269651     
 PAO| ======================= Iteration:        28 =============================

     Lanczos converged:  T threshold:   0.100E-02
     Est. extremal eigenvalues:    0.276E+01   0.181E+00
     Est. condition number :    0.152E+02
     NS sqrt iter    1 1.00000000   0.705E+00       0.002       39.448
     NS sqrt iter    2 1.00000000   0.330E+00       0.002       64.313
     NS sqrt iter    3 1.00000000   0.754E-01       0.002       62.417
     NS sqrt iter    4 1.00000000   0.182E-02       0.002       55.558
     NS sqrt iter    5 1.00000000   0.518E-07       0.002       46.425
     Final NS sqrt iter    5 1.00000000   0.458E-09

     Est. extremal eigenvalues     -0.93806     1.69366  converged:  T
     TRS4 it   1 1.00000000   0.869E+00       0.001       16.128   0.100E-07
     TRS4 it   2 1.00000000   0.615E+00       0.001       32.256   0.100E-07
     TRS4 it   3 1.00000000   0.420E+00       0.001       32.256   0.100E-07
     TRS4 it   4 1.00000000   0.213E+00       0.001       32.256   0.100E-07
     TRS4 it   5 1.00000000   0.677E-01       0.001       32.256   0.100E-07
     TRS4 it   6 1.00000000   0.865E-02       0.001       32.256   0.100E-07
     TRS4 it   7 1.00000000   0.189E-03       0.001       31.738   0.100E-07
     TRS4 it   8 1.00000000   0.126E-06       0.001       32.256   0.100E-07
     TRS4 it   9 1.00000000   0.679E-13       0.001       32.126   0.100E-07
     Final TRS4 iteration    9 1.00000000   0.679E-13
     Chemical potential (mu):       0.01103
 
 PAO| energy:  -7.8131400259178836      penalty:   1.3410231574272879E-005
 PAO|CG| trace_G_new    3.2546511458121552E-005
 PAO|CG| trace_G_prev    8.0587557512845398E-005
 PAO|CG| trace_G_mix    5.2920741217976850E-008
 PAO|CG| trace_D    1.2110075315012705E-004
 PAO|CG| trace_D_Gnew  -2.6078359323403541E-008
 PAO|CG| beta:   0.40320853143767516     
 PAO| norm of gradient:   5.7049549917700098E-003
 PAO| energy improvement:  -1.0130771343597189E-005
 PAO| step     28                   -7.813140026  0.357E-03  0.251E+00     0.084
 PAO|LS| adapt:  T F F
 PAO|LS| adapt: scan_steps:    0.0000000000000000        0.0000000000000000        0.0000000000000000     
 PAO|LS| adapt: energies:   -7.8131400259178836        0.0000000000000000        0.0000000000000000     
 PAO| ======================= Iteration:        29 =============================

     Lanczos converged:  T threshold:   0.100E-02
     Est. extremal eigenvalues:    0.276E+01   0.182E+00
     Est. condition number :    0.152E+02
     NS sqrt iter    1 1.00000000   0.705E+00       0.002       41.161
     NS sqrt iter    2 1.00000000   0.330E+00       0.002       61.679
     NS sqrt iter    3 1.00000000   0.753E-01       0.002       64.291
     NS sqrt iter    4 1.00000000   0.182E-02       0.002       65.407
     NS sqrt iter    5 1.00000000   0.516E-07       0.002       45.817
     Final NS sqrt iter    5 1.00000000   0.454E-09

     Est. extremal eigenvalues     -0.93806     1.69346  converged:  T
     TRS4 it   1 1.00000000   0.869E+00       0.001       16.128   0.100E-07
     TRS4 it   2 1.00000000   0.615E+00       0.001       32.256   0.100E-07
     TRS4 it   3 1.00000000   0.420E+00       0.001       32.256   0.100E-07
     TRS4 it   4 1.00000000   0.213E+00       0.001       32.256   0.100E-07
     TRS4 it   5 1.00000000   0.676E-01       0.001       32.256   0.100E-07
     TRS4 it   6 1.00000000   0.862E-02       0.001       32.204   0.100E-07
     TRS4 it   7 1.00000000   0.188E-03       0.001       32.256   0.100E-07
     TRS4 it   8 1.00000000   0.125E-06       0.001       32.256   0.100E-07
     TRS4 it   9 1.00000000   0.662E-13       0.001       32.256   0.100E-07
     Final TRS4 iteration    9 1.00000000   0.662E-13
     Chemical potential (mu):       0.01116
 
 PAO| energy:  -7.8131472044803347      penalty:   1.2974820259271254E-005
 PAO|LS| adapt:  T T F
 PAO|LS| adapt: scan_steps:    0.0000000000000000       0.25088014954885646        0.0000000000000000     
 PAO|LS| adapt: energies:   -7.8131400259178836       -7.8131472044803347        0.0000000000000000     
 PAO| ======================= Iteration:        30 =============================

     Lanczos converged:  T threshold:   0.100E-02
     Est. extremal eigenvalues:    0.276E+01   0.182E+00
     Est. condition number :    0.152E+02
     NS sqrt iter    1 1.00000000   0.705E+00       0.002       40.398
     NS sqrt iter    2 1.00000000   0.330E+00       0.002       63.841
     NS sqrt iter    3 1.00000000   0.752E-01       0.002       64.903
     NS sqrt iter    4 1.00000000   0.181E-02       0.002       63.899
     NS sqrt iter    5 1.00000000   0.514E-07       0.002       44.637
     Final NS sqrt iter    5 1.00000000   0.450E-09

     Est. extremal eigenvalues     -0.93807     1.69325  converged:  T
     TRS4 it   1 1.00000000   0.869E+00       0.001       16.128   0.100E-07
     TRS4 it   2 1.00000000   0.615E+00       0.001       32.256   0.100E-07
     TRS4 it   3 1.00000000   0.419E+00       0.001       32.256   0.100E-07
     TRS4 it   4 1.00000000   0.213E+00       0.001       32.256   0.100E-07
     TRS4 it   5 1.00000000   0.675E-01       0.001       32.256   0.100E-07
     TRS4 it   6 1.00000000   0.860E-02       0.001       32.256   0.100E-07
     TRS4 it   7 1.00000000   0.186E-03       0.001       32.256   0.100E-07
     TRS4 it   8 1.00000000   0.123E-06       0.001       27.874   0.100E-07
     TRS4 it   9 1.00000000   0.651E-13       0.001       28.610   0.100E-07
     Final TRS4 iteration    9 1.00000000   0.651E-13
     Chemical potential (mu):       0.01131
 
 PAO| energy:  -7.8131524047276724      penalty:   1.2547441672702947E-005
 PAO|LS| adapt:  T T F
 PAO|LS| adapt: scan_steps:    0.0000000000000000       0.50176029909771291        0.0000000000000000     
 PAO|LS| adapt: energies:   -7.8131400259178836       -7.8131524047276724        0.0000000000000000     
 PAO| ======================= Iteration:        31 =============================

     Lanczos converged:  T threshold:   0.100E-02
     Est. extremal eigenvalues:    0.276E+01   0.182E+00
     Est. condition number :    0.152E+02
     NS sqrt iter    1 1.00000000   0.705E+00       0.002       35.794
     NS sqrt iter    2 1.00000000   0.330E+00       0.002       64.330
     NS sqrt iter    3 1.00000000   0.751E-01       0.002       64.258
     NS sqrt iter    4 1.00000000   0.181E-02       0.002       64.587
     NS sqrt iter    5 1.00000000   0.510E-07       0.002       34.875
     Final NS sqrt iter    5 1.00000000   0.436E-09

     Est. extremal eigenvalues     -0.93807     1.69284  converged:  T
     TRS4 it   1 1.00000000   0.869E+00       0.001       16.128   0.100E-07
     TRS4 it   2 1.00000000   0.615E+00       0.001       28.603   0.100E-07
     TRS4 it   3 1.00000000   0.419E+00       0.001       32.256   0.100E-07
     TRS4 it   4 1.00000000   0.212E+00       0.001       32.256   0.100E-07
     TRS4 it   5 1.00000000   0.673E-01       0.001       32.256   0.100E-07
     TRS4 it   6 1.00000000   0.855E-02       0.001       32.256   0.100E-07
     TRS4 it   7 1.00000000   0.184E-03       0.001       32.256   0.100E-07
     TRS4 it   8 1.00000000   0.119E-06       0.001       32.256   0.100E-07
     TRS4 it   9 1.00000000   0.610E-13       0.001       30.891   0.100E-07
     Final TRS4 iteration    9 1.00000000   0.610E-13
     Chemical potential (mu):       0.01158
 
 PAO| energy:  -7.8131568716742335      penalty:   1.1716614421135229E-005
 PAO|LS| Need extra step
 PAO|LS| adapt:  T T F
 PAO|LS| adapt: scan_steps:    0.0000000000000000        1.0035205981954258        0.0000000000000000     
 PAO|LS| adapt: energies:   -7.8131400259178836       -7.8131568716742335        0.0000000000000000     
 PAO| ======================= Iteration:        32 =============================

     Lanczos converged:  T threshold:   0.100E-02
     Est. extremal eigenvalues:    0.276E+01   0.182E+00
     Est. condition number :    0.152E+02
     NS sqrt iter    1 1.00000000   0.704E+00       0.002       41.373
     NS sqrt iter    2 1.00000000   0.329E+00       0.002       64.212
     NS sqrt iter    3 1.00000000   0.748E-01       0.002       62.309
     NS sqrt iter    4 1.00000000   0.179E-02       0.002       63.985
     NS sqrt iter    5 1.00000000   0.503E-07       0.002       44.315
     Final NS sqrt iter    5 1.00000000   0.442E-09

     Est. extremal eigenvalues     -0.93808     1.69200  converged:  T
     TRS4 it   1 1.00000000   0.869E+00       0.001       16.128   0.100E-07
     TRS4 it   2 1.00000000   0.615E+00       0.001       32.256   0.100E-07
     TRS4 it   3 1.00000000   0.419E+00       0.001       32.256   0.100E-07
     TRS4 it   4 1.00000000   0.212E+00       0.001       32.256   0.100E-07
     TRS4 it   5 1.00000000   0.669E-01       0.001       32.256   0.100E-07
     TRS4 it   6 1.00000000   0.845E-02       0.001       32.256   0.100E-07
     TRS4 it   7 1.00000000   0.179E-03       0.001       32.256   0.100E-07
     TRS4 it   8 1.00000000   0.113E-06       0.001       32.256   0.100E-07
     TRS4 it   9 1.00000000   0.550E-13       0.001       32.256   0.100E-07
     Final TRS4 iteration    9 1.00000000   0.550E-13
     Chemical potential (mu):       0.01214
 
 PAO| energy:  -7.8131420826141609      penalty:   1.0149513485627977E-005
 PAO|LS| Need extra step
 PAO|LS| adapt:  T T T
 PAO|LS| adapt: scan_steps:    0.0000000000000000        1.0035205981954258        2.0070411963908517     
 PAO|LS| adapt: energies:   -7.8131400259178836       -7.8131568716742335       -7.8131420826141609     
 PAO|LS| adapt: suggested step_size:    1.0361418887843754     
 PAO|LS| adapt: predicted energy  -7.8131568883884110     
 PAO| ======================= Iteration:        33 =============================

     Lanczos converged:  T threshold:   0.100E-02
     Est. extremal eigenvalues:    0.276E+01   0.182E+00
     Est. condition number :    0.152E+02
     NS sqrt iter    1 1.00000000   0.705E+00       0.002       40.075
     NS sqrt iter    2 1.00000000   0.330E+00       0.002       63.287
     NS sqrt iter    3 1.00000000   0.751E-01       0.002       64.585
     NS sqrt iter    4 1.00000000   0.181E-02       0.002       64.279
     NS sqrt iter    5 1.00000000   0.510E-07       0.002       46.092
     Final NS sqrt iter    5 1.00000000   0.436E-09

     Est. extremal eigenvalues     -0.93807     1.69281  converged:  T
     TRS4 it   1 1.00000000   0.869E+00       0.001       16.128   0.100E-07
     TRS4 it   2 1.00000000   0.615E+00       0.001       32.256   0.100E-07
     TRS4 it   3 1.00000000   0.419E+00       0.001       32.256   0.100E-07
     TRS4 it   4 1.00000000   0.212E+00       0.001       32.256   0.100E-07
     TRS4 it   5 1.00000000   0.673E-01       0.001       32.256   0.100E-07
     TRS4 it   6 1.00000000   0.854E-02       0.001       32.256   0.100E-07
[...]
     NS sqrt iter    2 1.00000000   0.277E+00       0.002       66.051
     NS sqrt iter    3 1.00000000   0.489E-01       0.002       66.491
     NS sqrt iter    4 1.00000000   0.792E-03       0.002       56.984
     NS sqrt iter    5 1.00000000   0.657E-08       0.001       27.990
     Final NS sqrt iter    5 1.00000000   0.381E-09

     Est. extremal eigenvalues     -0.93775     1.62840  converged:  T
     TRS4 it   1 1.00000000   0.877E+00       0.001       16.128   0.100E-07
     TRS4 it   2 1.00000000   0.632E+00       0.001       32.256   0.100E-07
     TRS4 it   3 1.00000000   0.455E+00       0.001       32.256   0.100E-07
     TRS4 it   4 1.00000000   0.279E+00       0.001       32.256   0.100E-07
     TRS4 it   5 1.00000000   0.138E+00       0.001       32.256   0.100E-07
     TRS4 it   6 1.00000000   0.441E-01       0.001       32.256   0.100E-07
     TRS4 it   7 1.00000000   0.629E-02       0.001       32.256   0.100E-07
     TRS4 it   8 1.00000000   0.169E-03       0.001       32.256   0.100E-07
     TRS4 it   9 1.00000000   0.129E-06       0.001       32.256   0.100E-07
     TRS4 it  10 1.00000000   0.751E-13       0.001       32.256   0.100E-07
     Final TRS4 iteration   10 1.00000000   0.751E-13
     Chemical potential (mu):      -0.07795
 
 PAO| energy:  -7.8124049243560236      penalty:   2.5964538186407986E-008
 PAO|LS| Need extra step
 PAO|LS| adapt:  T T T
 PAO|LS| adapt: scan_steps:    0.0000000000000000       0.20000000000000001       0.40000000000000002     
 PAO|LS| adapt: energies:   -7.8124049203161530       -7.8124049256018777       -7.8124049243560236     
 PAO|LS| adapt: suggested step_size:   0.26185136493486999     
 PAO|LS| adapt: predicted energy  -7.8124049259142172     
 PAO| ======================= Iteration:       430 =============================

     Lanczos converged:  T threshold:   0.100E-02
     Est. extremal eigenvalues:    0.251E+01   0.190E+00
     Est. condition number :    0.132E+02
     NS sqrt iter    1 1.00000000   0.637E+00       0.002       42.553
     NS sqrt iter    2 1.00000000   0.277E+00       0.002       66.324
     NS sqrt iter    3 1.00000000   0.489E-01       0.002       64.703
     NS sqrt iter    4 1.00000000   0.792E-03       0.002       66.469
     NS sqrt iter    5 1.00000000   0.657E-08       0.001       28.757
     Final NS sqrt iter    5 1.00000000   0.381E-09

     Est. extremal eigenvalues     -0.93775     1.62840  converged:  T
     TRS4 it   1 1.00000000   0.877E+00       0.001       16.128   0.100E-07
     TRS4 it   2 1.00000000   0.632E+00       0.001       32.256   0.100E-07
     TRS4 it   3 1.00000000   0.455E+00       0.001       32.256   0.100E-07
     TRS4 it   4 1.00000000   0.279E+00       0.001       32.256   0.100E-07
     TRS4 it   5 1.00000000   0.138E+00       0.001       32.256   0.100E-07
     TRS4 it   6 1.00000000   0.441E-01       0.001       32.256   0.100E-07
     TRS4 it   7 1.00000000   0.629E-02       0.001       32.256   0.100E-07
     TRS4 it   8 1.00000000   0.169E-03       0.001       32.256   0.100E-07
     TRS4 it   9 1.00000000   0.129E-06       0.001       32.256   0.100E-07
     TRS4 it  10 1.00000000   0.748E-13       0.001       32.256   0.100E-07
     Final TRS4 iteration   10 1.00000000   0.748E-13
     Chemical potential (mu):      -0.07796
 
 PAO| energy:  -7.8124049259142252      penalty:   2.6256789671289837E-008
 PAO|CG| warming up with steepest descent
 PAO|CG| beta:    0.0000000000000000     
 PAO| norm of gradient:   1.2564085948367723E-004
 PAO| energy improvement:  -5.5980722279969086E-009
 PAO| step    430                   -7.812404926  0.785E-05  0.262E+00     0.116
 PAO| converged after          430  steps :-)
 PAO| Recalculating energy after mixing.

     Lanczos converged:  T threshold:   0.100E-02
     Est. extremal eigenvalues:    0.251E+01   0.190E+00
     Est. condition number :    0.132E+02
     NS sqrt iter    1 1.00000000   0.637E+00       0.002       41.587
     NS sqrt iter    2 1.00000000   0.277E+00       0.002       66.461
     NS sqrt iter    3 1.00000000   0.489E-01       0.002       67.605
     NS sqrt iter    4 1.00000000   0.792E-03       0.002       66.946
     NS sqrt iter    5 1.00000000   0.657E-08       0.001       28.515
     Final NS sqrt iter    5 1.00000000   0.381E-09

     Est. extremal eigenvalues     -0.93775     1.62840  converged:  T
     TRS4 it   1 1.00000000   0.877E+00       0.001       16.128   0.100E-07
     TRS4 it   2 1.00000000   0.632E+00       0.001       32.256   0.100E-07
     TRS4 it   3 1.00000000   0.455E+00       0.001       32.256   0.100E-07
     TRS4 it   4 1.00000000   0.279E+00       0.001       32.256   0.100E-07
     TRS4 it   5 1.00000000   0.138E+00       0.001       32.256   0.100E-07
     TRS4 it   6 1.00000000   0.441E-01       0.001       32.256   0.100E-07
     TRS4 it   7 1.00000000   0.629E-02       0.001       32.256   0.100E-07
     TRS4 it   8 1.00000000   0.169E-03       0.001       32.256   0.100E-07
     TRS4 it   9 1.00000000   0.129E-06       0.001       32.256   0.100E-07
     TRS4 it  10 1.00000000   0.748E-13       0.001       32.256   0.100E-07
     Final TRS4 iteration   10 1.00000000   0.748E-13
     Chemical potential (mu):      -0.07796
 
 PAO| energy:  -7.8124049245146860      penalty:   2.6535265439924197E-008
 PAO| Writing restart file.
     Est. extremal eigenvalues     -0.93775     1.62840  converged:  T
     TRS4 it   1 1.00000000   0.877E+00       0.001       16.128   0.100E-07
     TRS4 it   2 1.00000000   0.632E+00       0.001       32.256   0.100E-07
     TRS4 it   3 1.00000000   0.455E+00       0.001       32.256   0.100E-07
     TRS4 it   4 1.00000000   0.279E+00       0.001       32.256   0.100E-07
     TRS4 it   5 1.00000000   0.138E+00       0.001       32.256   0.100E-07
     TRS4 it   6 1.00000000   0.441E-01       0.001       32.256   0.100E-07
     TRS4 it   7 1.00000000   0.629E-02       0.001       32.256   0.100E-07
     TRS4 it   8 1.00000000   0.169E-03       0.001       32.256   0.100E-07
     TRS4 it   9 1.00000000   0.129E-06       0.001       32.256   0.100E-07
     TRS4 it  10 1.00000000   0.748E-13       0.001       32.256   0.100E-07
     Final TRS4 iteration   10 1.00000000   0.748E-13
     Chemical potential (mu):      -0.07796

 SCF     1       -34.449773820       -34.449773820    2.298567

*********************************************************
 Using MIXING_FRACTION=0.450 to mix KS matrix:  iscf=  2
 KS_nw=0.450*KS + 0.550*KS_old
*********************************************************
     Est. extremal eigenvalues     -0.93776     1.62840  converged:  T
     TRS4 it   1 1.00000000   0.877E+00       0.001       16.128   0.100E-07
     TRS4 it   2 1.00000000   0.632E+00       0.001       32.256   0.100E-07
     TRS4 it   3 1.00000000   0.455E+00       0.001       32.256   0.100E-07
     TRS4 it   4 1.00000000   0.279E+00       0.001       32.256   0.100E-07
     TRS4 it   5 1.00000000   0.138E+00       0.001       32.256   0.100E-07
     TRS4 it   6 1.00000000   0.441E-01       0.001       32.256   0.100E-07
     TRS4 it   7 1.00000000   0.629E-02       0.001       32.256   0.100E-07
     TRS4 it   8 1.00000000   0.169E-03       0.001       32.256   0.100E-07
     TRS4 it   9 1.00000000   0.129E-06       0.001       32.256   0.100E-07
     TRS4 it  10 1.00000000   0.747E-13       0.001       32.256   0.100E-07
     Final TRS4 iteration   10 1.00000000   0.747E-13
     Chemical potential (mu):      -0.07795

 SCF     2       -34.449773820        -0.000000000    1.625080

 PAO| Storing density matrix for ASPC guess in slot:           1

 ENERGY| Total FORCE_EVAL ( QS ) energy (a.u.):              -34.449773819766840


 -------------------------------------------------------------------------------
 -                                                                             -
 -                                DBCSR STATISTICS                             -
 -                                                                             -
 -------------------------------------------------------------------------------
 COUNTER                                    TOTAL       BLAS       SMM       ACC
 flops     5 x     5 x     4                20000     100.0%      0.0%      0.0%
 flops    13 x     5 x     4                20800     100.0%      0.0%      0.0%
 flops     5 x    13 x     4                20800     100.0%      0.0%      0.0%
 flops    13 x    13 x     4                40560     100.0%      0.0%      0.0%
 flops     4 x     4 x     5              3375360     100.0%      0.0%      0.0%
 flops     5 x     4 x     5              4118400     100.0%      0.0%      0.0%
 flops     4 x     4 x    13              4387968     100.0%      0.0%      0.0%
 flops    13 x     4 x     5              5353920     100.0%      0.0%      0.0%
 flops     5 x     4 x    13              5353920     100.0%      0.0%      0.0%
 flops     5 x     4 x     4              6496960     100.0%      0.0%      0.0%
 flops    13 x     4 x    13              6960096     100.0%      0.0%      0.0%
 flops    13 x     4 x     4              8616192     100.0%      0.0%      0.0%
 flops     4 x     4 x     4            437170432     100.0%      0.0%      0.0%
 flops inhomo. stacks                           0       0.0%      0.0%      0.0%
 flops total                       481.935408E+06     100.0%      0.0%      0.0%
 flops max/rank                    481.935408E+06     100.0%      0.0%      0.0%
 matmuls inhomo. stacks                         0       0.0%      0.0%      0.0%
 matmuls total                            3554898     100.0%      0.0%      0.0%
 number of processed stacks                 28331     100.0%      0.0%      0.0%
 average stack size                                   125.5       0.0       0.0
 marketing flops                   784.168896E+06
 -------------------------------------------------------------------------------
 # multiplications                          23706
 max memory usage/rank             328.151040E+06
 # max total images/rank                        1
 # max 3D layers                                1
 # MPI messages exchanged                       0
 MPI messages size (bytes):
  total size                         0.000000E+00
  min size                           0.000000E+00
  max size                           0.000000E+00
  average size                       0.000000E+00
 MPI breakdown and total messages size (bytes):
             size <=      128                   0                        0
       128 < size <=     8192                   0                        0
      8192 < size <=    32768                   0                        0
     32768 < size <=   131072                   0                        0
    131072 < size <=  4194304                   0                        0
   4194304 < size <= 16777216                   0                        0
  16777216 < size                               0                        0
 -------------------------------------------------------------------------------

 MEMORY| Estimated peak process memory [MiB]                                 313

 -------------------------------------------------------------------------------
 -                                                                             -
 -                           R E F E R E N C E S                               -
 -                                                                             -
 -------------------------------------------------------------------------------
 
 CP2K version 7.0 (Development Version), the CP2K developers group (2018).
 CP2K is freely available from https://www.cp2k.org/ .

 Schuett, O; VandeVondele, J. 
 Journal of Chemical Theory and Computation, 14, (2018). 
 Machine Learning Adaptive Basis Sets for Efficient Large Scale Density Functional Theory Simulation.
 https://dx.doi.org/10.1021/acs.jctc.8b00378


 Schuett, Ole; Messmer, Peter; Hutter, Juerg; VandeVondele, Joost. 
 Electronic Structure Calculations on Graphics Processing Units, John Wiley & Sons, Ltd, 173-190 (2016). 
 GPU-Accelerated Sparse Matrix-Matrix Multiplication for Linear Scaling Density Functional Theory.
 https://dx.doi.org/10.1002/9781118670712.ch8


 Borstnik, U; VandeVondele, J; Weber, V; Hutter, J. 
 PARALLEL COMPUTING, 40 (5-6), 47-58 (2014). 
 Sparse matrix multiplication: The distributed block-compressed sparse
 row library.
 https://dx.doi.org/10.1016/j.parco.2014.03.012


 Hutter, J; Iannuzzi, M; Schiffmann, F; VandeVondele, J. 
 WILEY INTERDISCIPLINARY REVIEWS-COMPUTATIONAL MOLECULAR SCIENCE, 4 (1), 15-25 (2014). 
 CP2K: atomistic simulations of condensed matter systems.
 https://dx.doi.org/10.1002/wcms.1159


 VandeVondele, J; Borstnik, U; Hutter, J. 
 JOURNAL OF CHEMICAL THEORY AND COMPUTATION, 8 (10), 3565-3573 (2012). 
 Linear Scaling Self-Consistent Field Calculations with Millions of Atoms
 in the Condensed Phase.
 https://dx.doi.org/10.1021/ct200897x


 VandeVondele, J; Hutter, J. 
 JOURNAL OF CHEMICAL PHYSICS, 127 (11), 114105 (2007). 
 Gaussian basis sets for accurate calculations on molecular systems in
 gas and condensed phases.
 https://dx.doi.org/10.1063/1.2770708


 Krack, M. 
 THEORETICAL CHEMISTRY ACCOUNTS, 114 (1-3), 145-152 (2005). 
 Pseudopotentials for H to Kr optimized for gradient-corrected
 exchange-correlation functionals.
 https://dx.doi.org/10.1007/s00214-005-0655-y


 VandeVondele, J; Krack, M; Mohamed, F; Parrinello, M; Chassaing, T;
 Hutter, J. COMPUTER PHYSICS COMMUNICATIONS, 167 (2), 103-128 (2005). 
 QUICKSTEP: Fast and accurate density functional calculations using a
 mixed Gaussian and plane waves approach.
 https://dx.doi.org/10.1016/j.cpc.2004.12.014


 Frigo, M; Johnson, SG. 
 PROCEEDINGS OF THE IEEE, 93 (2), 216-231 (2005). 
 The design and implementation of FFTW3.
 https://dx.doi.org/10.1109/JPROC.2004.840301


 Niklasson, AMN; Tymczak, CJ; Challacombe, M. 
 JOURNAL OF CHEMICAL PHYSICS, 118 (19), 8611-8620 (2003). 
 Trace resetting density matrix purification in O(N)
 self-consistent-field theory.
 https://dx.doi.org/10.1063/1.1559913


 Hartwigsen, C; Goedecker, S; Hutter, J. 
 PHYSICAL REVIEW B, 58 (7), 3641-3662 (1998). 
 Relativistic separable dual-space Gaussian pseudopotentials from H to Rn.
 https://dx.doi.org/10.1103/PhysRevB.58.3641


 Lippert, G; Hutter, J; Parrinello, M. 
 MOLECULAR PHYSICS, 92 (3), 477-487 (1997). 
 A hybrid Gaussian and plane wave density functional scheme.
 https://dx.doi.org/10.1080/002689797170220


 Perdew, JP; Burke, K; Ernzerhof, M. 
 PHYSICAL REVIEW LETTERS, 77 (18), 3865-3868 (1996). 
 Generalized gradient approximation made simple.
 https://dx.doi.org/10.1103/PhysRevLett.77.3865


 Goedecker, S; Teter, M; Hutter, J. 
 PHYSICAL REVIEW B, 54 (3), 1703-1710 (1996). 
 Separable dual-space Gaussian pseudopotentials.
 https://dx.doi.org/10.1103/PhysRevB.54.1703


 -------------------------------------------------------------------------------
 -                                                                             -
 -                                T I M I N G                                  -
 -                                                                             -
 -------------------------------------------------------------------------------
 SUBROUTINE                       CALLS  ASD         SELF TIME        TOTAL TIME
                                MAXIMUM       AVERAGE  MAXIMUM  AVERAGE  MAXIMUM
 CP2K                                 1  1.0    0.011    0.011   35.481   35.481
 qs_energies                          1  2.0    0.000    0.000   34.984   34.984
 ls_scf                               1  3.0    0.000    0.000   34.830   34.830
 ls_scf_main                          4  4.0    0.001    0.001   20.158   20.158
 ls_scf_dm_to_ks                      9  5.0    0.000    0.000   20.036   20.036
 qs_ks_update_qs_env                 10  6.0    0.000    0.000   15.731   15.731
 rebuild_ks_matrix                   10  7.0    0.000    0.000   15.730   15.730
 qs_ks_build_kohn_sham_matrix        10  8.0    0.001    0.001   15.730   15.730
 pao_update                           4  4.0    0.012    0.012   12.262   12.262
 pao_calc_energy                    433  5.0    0.005    0.005   11.066   11.066
 qs_vxc_create                       10  9.0    0.000    0.000    9.471    9.471
 xc_vxc_pw_create                    10 10.0    0.132    0.132    9.471    9.471
 dbcsr_multiply_generic           23706  8.4    0.576    0.576    9.430    9.430
 xc_rho_set_and_dset_create          10 11.0    0.033    0.033    7.005    7.005
 qs_rho_update_rho                   10  6.0    0.000    0.000    6.618    6.618
 calculate_rho_elec                  10  7.0    5.226    5.226    6.618    6.618
 pw_transfer                        191 10.6    0.014    0.014    6.246    6.246
 fft_wrap_pw1pw2                    171 11.7    0.002    0.002    6.152    6.152
 fft_wrap_pw1pw2_200                111 12.8    0.318    0.318    5.877    5.877
 pao_dm_trs4                        433  6.0    0.004    0.004    5.753    5.753
 density_matrix_trs4                442  7.0    0.220    0.220    5.552    5.552
 sum_up_and_integrate                10  9.0    0.017    0.017    5.345    5.345
 integrate_v_rspace                  10 10.0    4.644    4.644    5.328    5.328
 ls_scf_init_matrix_S               437  7.0    0.005    0.005    5.303    5.303
 pao_rebuild_S                      433  6.0    0.004    0.004    5.260    5.260
 xc_functional_eval                  10 12.0    0.000    0.000    5.057    5.057
 pbe_lda_eval                        10 13.0    5.057    5.057    5.057    5.057
 matrix_sqrt_Newton_Schulz          437  8.0    0.138    0.138    4.794    4.794
 multiply_cannon                  23706  9.4    1.518    1.518    4.470    4.470
 fft3d_s                            172 13.6    3.411    3.411    3.428    3.428
 make_m2s                         47412  9.4    0.213    0.213    2.981    2.981
 make_images                      47412 10.4    0.719    0.719    2.630    2.630
 pao_guess_initial_P                  1  4.0    0.000    0.000    2.320    2.320
 pao_read_preopt_dm                   1  5.0    0.000    0.000    2.320    2.320
 multiply_cannon_multrec          23706 10.4    1.574    1.574    1.718    1.718
 density_rs2pw                       10  8.0    0.001    0.001    1.378    1.378
 pw_gather_s                         81 13.1    1.373    1.373    1.373    1.373
 arnoldi_extremal                   879  8.5    0.005    0.005    1.341    1.341
 arnoldi_normal_ev                  879  9.5    0.016    0.016    1.336    1.336
 pao_calc_AB                        570  5.8    0.001    0.001    1.174    1.174
 pao_calc_AB_direct                 570  6.8    0.034    0.034    1.173    1.173
 pao_calc_grad_lnv_wrt_AB           136  7.0    0.009    0.009    1.103    1.103
 pw_scatter_s                        90 14.2    1.020    1.020    1.020    1.020
 build_subspace                     879 10.5    0.068    0.068    0.982    0.982
 dbcsr_matrix_vector_mult         21088 11.5    0.133    0.133    0.883    0.883
 dbcsr_finalize                   56560  9.6    0.137    0.137    0.868    0.868
 dbcsr_create_new                181285 10.7    0.412    0.412    0.799    0.799
 -------------------------------------------------------------------------------

 The number of warnings for this run is : 0
 
 -------------------------------------------------------------------------------
  **** **** ******  **  PROGRAM ENDED AT                 2019-03-28 17:32:58.381
 ***** ** ***  *** **   PROGRAM RAN ON            oleschuett.zrh.corp.google.com
 **    ****   ******    PROGRAM RAN BY                                oleschuett
 ***** **    ** ** **   PROGRAM PROCESS ID                                 31031
  **** **  *******  **  PROGRAM STOPPED IN /usr/local/google/home/oleschuett/git
                                           /pao_ml_equivar/2H2O_rotations/phi_19
