 DBCSR| CPU Multiplication driver                                           XSMM (U)
 DBCSR| Multrec recursion limit                                              512 (U)
 DBCSR| Multiplication stack size                                           1000 (D)
 DBCSR| Maximum elements for images                                    UNLIMITED (U)
 DBCSR| Multiplicative factor virtual images                                   1 (U)
 DBCSR| Use multiplication densification                                       T (D)
 DBCSR| Multiplication size stacks                                             3 (U)
 DBCSR| Use memory pool for CPU allocation                                     F (U)
 DBCSR| OMP: Current number of threads                                         1
 DBCSR| OMP: Max number of threads                                             1
 DBCSR| Split modifier for TAS multiplication algorithm                  1.0E+00 (U)


  **** **** ******  **  PROGRAM STARTED AT               2023-02-01 10:45:19.662
 ***** ** ***  *** **   PROGRAM STARTED ON                                moritz
 **    ****   ******    PROGRAM STARTED BY                                   ole
 ***** **    ** ** **   PROGRAM PROCESS ID                                148588
  **** **  *******  **  PROGRAM STARTED IN /home/ole/git/pao_ml_equivar/2H2O_rot
                                           ations/phi_19

 CP2K| version string:                 CP2K version 2023.1 (Development Version)
 CP2K| source code revision number:                                  git:03b4147
 CP2K| cp2kflags: omp libint fftw3 libxc quip xsmm spglib libvori libbqb libtorc
 CP2K|            h
 CP2K| is freely available from                            https://www.cp2k.org/
 CP2K| Program compiled at                           Mi 01 Feb 2023 10:36:52 CET
 CP2K| Program compiled on                                                moritz
 CP2K| Program compiled for                                                local
 CP2K| Data directory path                               /home/ole/git/cp2k/data
 CP2K| Input file name                                            2H2O_pao44.inp

 GLOBAL| Force Environment number                                              1
 GLOBAL| Basis set file name                                        BASIS_MOLOPT
 GLOBAL| Potential file name                                      GTH_POTENTIALS
 GLOBAL| MM Potential file name                                     MM_POTENTIAL
 GLOBAL| Coordinate file name                                         coords.xyz
 GLOBAL| Method name                                                        CP2K
 GLOBAL| Project name                                                 2H2O_pao44
 GLOBAL| Run type                                                         ENERGY
 GLOBAL| FFT library                                                       FFTW3
 GLOBAL| Diagonalization library                                       ScaLAPACK
 GLOBAL| DGEMM library                                                      BLAS
 GLOBAL| Orthonormality check for eigenvectors                          DISABLED
 GLOBAL| Matrix multiplication library                                 ScaLAPACK
 GLOBAL| All-to-all communication in single precision                          F
 GLOBAL| FFTs using library dependent lengths                                  F
 GLOBAL| Grid backend                                                       AUTO
 GLOBAL| Global print level                                                  LOW
 GLOBAL| MPI I/O enabled                                                       T
 GLOBAL| Total number of message passing processes                             1
 GLOBAL| Number of threads for this process                                    1
 GLOBAL| This output is from process                                           0
 GLOBAL| Stack size for threads created by OpenMP (OMP_STACKSIZE)        default
 GLOBAL| CPU model name           AMD Ryzen Threadripper 3970X 32-Core Processor
 GLOBAL| CPUID                                                              1002
 GLOBAL| Compiled for CPUID                                                    0

 *** HINT in environment.F:884 :: The compiler target flags (generic) used ***
 *** to build this binary cannot exploit all extensions of this CPU model  ***
 *** (x86_avx2). Consider compiler target flags as part of FCFLAGS and     ***
 *** CFLAGS (ARCH file).                                                   ***


 MEMORY| system memory details [Kb]
 MEMORY|                        rank 0           min           max       average
 MEMORY| MemTotal            131773860     131773860     131773860     131773860
 MEMORY| MemFree             118856088     118856088     118856088     118856088
 MEMORY| Buffers                301580        301580        301580        301580
 MEMORY| Cached                7018548       7018548       7018548       7018548
 MEMORY| Slab                   776140        776140        776140        776140
 MEMORY| SReclaimable           331304        331304        331304        331304
 MEMORY| MemLikelyFree       126507520     126507520     126507520     126507520


 GENERATE|  Preliminary Number of Bonds generated:                             0
 GENERATE|  Achieved consistency in connectivity generation.

 *******************************************************************************
 *******************************************************************************
 **                                                                           **
 **     #####                         ##              ##                      **
 **    ##   ##            ##          ##              ##                      **
 **   ##     ##                       ##            ######                    **
 **   ##     ##  ##   ##  ##   #####  ##  ##   ####   ##    #####    #####    **
 **   ##     ##  ##   ##  ##  ##      ## ##   ##      ##   ##   ##  ##   ##   **
 **   ##  ## ##  ##   ##  ##  ##      ####     ###    ##   ######   ######    **
 **    ##  ###   ##   ##  ##  ##      ## ##      ##   ##   ##       ##        **
 **     #######   #####   ##   #####  ##  ##  ####    ##    #####   ##        **
 **           ##                                                    ##        **
 **                                                                           **
 **                                                ... make the atoms dance   **
 **                                                                           **
 **            Copyright (C) by CP2K developers group (2000-2023)             **
 **                      J. Chem. Phys. 152, 194103 (2020)                    **
 **                                                                           **
 *******************************************************************************


 TOTAL NUMBERS AND MAXIMUM NUMBERS

  Total number of            - Atomic kinds:                                   2
                             - Atoms:                                          6
                             - Shell sets:                                     6
                             - Shells:                                        22
                             - Primitive Cartesian functions:                 42
                             - Cartesian basis functions:                     48
                             - Spherical basis functions:                     46

  Maximum angular momentum of- Orbital basis functions:                        2
                             - Local part of the GTH pseudopotential:          2
                             - Non-local part of the GTH pseudopotential:      0

 ------------------------------ Linear scaling SCF -----------------------------
 eps_scf:                                                              0.100E-07
 eps_filter:                                                           0.100E-07
 mixing_fraction:                                                      0.450E+00
 max_scf:                                                                     25
 fixed chemical potential (mu)                                                 F
 has unit metric:                                                              F
 Computing inv(S):                                                             T
 Computing sqrt(S):                                                            T
 Computing S preconditioner                                                    F
 S sqrt method:                                                     NEWTONSCHULZ
 S sqrt order:                                                                 3
 Extrapolation order:                                                          1
 Use single precision matrices                                                 F
 S preconditioner type                                                      NONE
 Polarized Atomic Orbitals (PAO)                                               T
 Purification method                                   Trace resetting 4th order
 Cluster type                                                             ATOMIC
 Computing Chebyshev                                                       FALSE
 Using PAO                                                                     T
 -------------------------------------------------------------------------------

 
 PAO|                                  EPS_PAO                           0.1E-04
 PAO|                                  MIXING                            0.5E+00
 PAO|                                  MAX_PAO                              1000
 PAO|                                  MAX_CYCLES                           1000
 PAO|                                  PARAMETERIZATION              EQUIVARIANT
 PAO|                                  PRECONDITION                            F
 PAO|                                  REGULARIZATION                    0.0E+00
 PAO|                                  EPS_PGF                           0.1E-09
 PAO|                                  PENALTY_DISTANCE                  0.1E+00
 PAO|                                  PENALTY_STRENGTH                  0.5E-02
 PAO|                                  LINPOT_PRECONDITION_DELTA         0.0E+00
 PAO|                                  LINPOT_INITGUESS_DELT             0.0E+00
 PAO|                                  LINPOT_REGULARIZATION_DELTA       0.0E+00
 PAO|                                  LINPOT_REGULARIZATION_STRENGTH    0.0E+00
 PAO|                                  OPTIMIZER                              CG
 PAO|                                  CG_INIT_STEPS                           2
 PAO|                                  CG_RESET_LIMIT                    0.1E+00
 PAO|                                  CHECK_UNITARY_TOL                -0.1E+01
 PAO|                                  CHECK_GRADIENT_TOL               -0.1E+01
 PAO|                                  NUM_GRADIENT_ORDER                      2
 PAO|                                  NUM_GRADIENT_EPS                  0.1E-07
 PAO|                                  PRINT%RESTART%WRITE_CYCLES            100
 PAO|                                  RESTART_FILE 
 PAO|                                  PREOPT_DM_FILE 2H2O_ref_LS_DM_SPIN_1_RESTART.dm
 PAO|                                  MACHINE_LEARNING%METHOD       GAUSSIAN_PR
 PAO|                                  MACHINE_LEARNING%PRIOR               ZERO
 PAO|                                  MACHINE_LEARNING%DESCRIPTOR     POTENTIAL
 PAO|                                  MACHINE_LEARNING%TOLERANCE        0.1E-01
 PAO|                                  MACHINE_LEARNING%GP_NOISE_VAR     0.1E+00
 PAO|                                  MACHINE_LEARNING%GP_SCALE         0.5E-01
 

 Calculating atomic Fock matrix for atomic kind: O

 Electronic structure
    Total number of core electrons                                          2.00
    Total number of valence electrons                                       6.00
    Total number of electrons                                               8.00
    Multiplicity                                                   not specified
    S   [  2.00] 2.00
    P      4.00


 *******************************************************************************
                  Iteration          Convergence                     Energy [au]
 *******************************************************************************
                          1        0.708315                     -15.576645311500
                          2        0.608879                     -15.587933561584
                          3        0.102828E-01                 -15.656849565404
                          4        0.113889E-02                 -15.656866888140
                          5        0.434197E-03                 -15.656867072159
                          6        0.263771E-03                 -15.656867091904
                          7        0.478536E-06                 -15.656867103452

 Energy components [Hartree]           Total Energy ::          -15.656867103452
                                        Band Energy ::           -3.000198112285
                                     Kinetic Energy ::           11.759971203220
                                   Potential Energy ::          -27.416838306672
                                      Virial (-V/T) ::            2.331369510426
                                        Core Energy ::          -26.140716385623
                                          XC Energy ::           -3.154051012914
                                     Coulomb Energy ::           13.637900295084
                       Total Pseudopotential Energy ::          -37.935781716540
                       Local Pseudopotential Energy ::          -39.218907440693
                    Nonlocal Pseudopotential Energy ::            1.283125724153
                                        Confinement ::            0.350941276976

 Orbital energies  State     L     Occupation   Energy[a.u.]          Energy[eV]

                       1     0          2.000      -0.864471          -23.523463

                       1     1          4.000      -0.317814           -8.648154


 Total Electron Density at R=0:                                         0.000068

 Calculating atomic Fock matrix for atomic kind: H

 Electronic structure
    Total number of core electrons                                          0.00
    Total number of valence electrons                                       1.00
    Total number of electrons                                               1.00
    Multiplicity                                                   not specified
    S      1.00


 *******************************************************************************
                  Iteration          Convergence                     Energy [au]
 *******************************************************************************
                          1        0.437545E-02                  -0.424159432110
                          2        0.531356E-03                  -0.424178438213
                          3        0.259176E-06                  -0.424178722480

 Energy components [Hartree]           Total Energy ::           -0.424178722480
                                        Band Energy ::           -0.199015229016
                                     Kinetic Energy ::            0.464007633961
                                   Potential Energy ::           -0.888186356441
                                      Virial (-V/T) ::            1.914163240935
                                        Core Energy ::           -0.479160803564
                                          XC Energy ::           -0.244352904054
                                     Coulomb Energy ::            0.299334985138
                       Total Pseudopotential Energy ::           -0.962295316385
                       Local Pseudopotential Energy ::           -0.962295316385
                    Nonlocal Pseudopotential Energy ::            0.000000000000
                                        Confinement ::            0.191268788606

 Orbital energies  State     L     Occupation   Energy[a.u.]          Energy[eV]

                       1     0          1.000      -0.199015           -5.415480


 Total Electron Density at R=0:                                         0.242907
 PAO| Made initial guess for matrix_X with norm:   4.8989794855663558     

     Lanczos converged:  T threshold:   0.100E-02
     Est. extremal eigenvalues:    0.335E+01   0.113E+00
     Est. condition number :    0.297E+02

 Order=           3
     NS sqrt iter    1 1.00000000   0.819E+00       0.001       64.512
     NS sqrt iter    2 1.00000000   0.440E+00       0.001      110.592
     NS sqrt iter    3 1.00000000   0.171E+00       0.001      110.592
     NS sqrt iter    4 1.00000000   0.208E-01       0.001      110.592
     NS sqrt iter    5 1.00000000   0.560E-04       0.001       92.928
     Symmetrizing Results
     Final NS sqrt iter    5 1.00000000   0.365E-08

 PAO| Read restart DM 2H2O_ref_LS_DM_SPIN_1_RESTART.dm with checksum:    74.372759052094551     
 PAO| Quickstep energy from restart density:  -34.450324168904032     
 PAO| ======================= Iteration:         1 =============================

     Lanczos converged:  T threshold:   0.100E-02
     Est. extremal eigenvalues:    0.335E+01   0.113E+00
     Est. condition number :    0.297E+02

 Order=           3
     NS sqrt iter    1 1.00000000   0.819E+00       0.001       64.512
     NS sqrt iter    2 1.00000000   0.440E+00       0.001      110.592
     NS sqrt iter    3 1.00000000   0.171E+00       0.001      110.592
     NS sqrt iter    4 1.00000000   0.208E-01       0.001      110.592
     NS sqrt iter    5 1.00000000   0.560E-04       0.001       92.928
     Symmetrizing Results
     Final NS sqrt iter    5 1.00000000   0.365E-08

     Est. extremal eigenvalues     -0.92086     1.91399  converged:  T
     TRS4 it   1 1.00000000   0.888E+00       0.000       16.128   0.100E-07
     TRS4 it   2 1.00000000   0.699E+00       0.000       32.256   0.100E-07
     TRS4 it   3 1.00000000   0.503E+00       0.000       32.256   0.100E-07
     TRS4 it   4 1.00000000   0.316E+00       0.000       32.256   0.100E-07
     TRS4 it   5 1.00000000   0.157E+00       0.000       32.256   0.100E-07
     TRS4 it   6 1.00000000   0.500E-01       0.000       32.256   0.100E-07
     TRS4 it   7 1.00000000   0.714E-02       0.000       32.256   0.100E-07
     TRS4 it   8 1.00000000   0.204E-03       0.000       32.256   0.100E-07
     TRS4 it   9 1.00000000   0.185E-06       0.000       32.256   0.100E-07
     TRS4 it  10 1.00000000   0.153E-12       0.000       32.256   0.100E-07
     Final TRS4 iteration   10 1.00000000   0.153E-12
     Chemical potential (mu):      -0.06686
 
 PAO| energy:  -7.6351902179546389      penalty:   4.2524533172070178E-033
 PAO|CG| warming up with steepest descent
 PAO|CG| beta:    0.0000000000000000     
 PAO| norm of gradient:  0.78332059842381474     
 PAO|LS| adapt:  T F F
 PAO|LS| adapt: scan_steps:    0.0000000000000000        0.0000000000000000        0.0000000000000000     
 PAO|LS| adapt: energies:   -7.6351902179546389        0.0000000000000000        0.0000000000000000     
 PAO| ======================= Iteration:         2 =============================

     Lanczos converged:  T threshold:   0.100E-02
     Est. extremal eigenvalues:    0.327E+01   0.126E+00
     Est. condition number :    0.260E+02

 Order=           3
     NS sqrt iter    1 1.00000000   0.803E+00       0.001       64.512
     NS sqrt iter    2 1.00000000   0.425E+00       0.001      110.592
     NS sqrt iter    3 1.00000000   0.153E+00       0.001      110.592
     NS sqrt iter    4 1.00000000   0.144E-01       0.001      110.592
     NS sqrt iter    5 1.00000000   0.181E-04       0.001       82.944
     Symmetrizing Results
     Final NS sqrt iter    5 1.00000000   0.505E-09

     Est. extremal eigenvalues     -0.92453     1.85777  converged:  T
     TRS4 it   1 1.00000000   0.884E+00       0.000       16.128   0.100E-07
     TRS4 it   2 1.00000000   0.680E+00       0.000       32.256   0.100E-07
     TRS4 it   3 1.00000000   0.487E+00       0.000       32.256   0.100E-07
     TRS4 it   4 1.00000000   0.296E+00       0.000       32.256   0.100E-07
     TRS4 it   5 1.00000000   0.138E+00       0.000       32.256   0.100E-07
     TRS4 it   6 1.00000000   0.387E-01       0.000       32.256   0.100E-07
     TRS4 it   7 1.00000000   0.434E-02       0.000       32.256   0.100E-07
     TRS4 it   8 1.00000000   0.759E-04       0.000       32.256   0.100E-07
     TRS4 it   9 1.00000000   0.256E-07       0.000       32.256   0.100E-07
     Final TRS4 iteration    9 1.00000000   0.256E-07
     Chemical potential (mu):      -0.05484
 
 PAO| energy:  -7.6906693900260077      penalty:   2.2472175400197912E-008
 PAO|LS| adapt:  T T F
 PAO|LS| adapt: scan_steps:    0.0000000000000000       0.10000000000000001        0.0000000000000000     
 PAO|LS| adapt: energies:   -7.6351902179546389       -7.6906693900260077        0.0000000000000000     
 PAO| ======================= Iteration:         3 =============================

     Lanczos converged:  T threshold:   0.100E-02
     Est. extremal eigenvalues:    0.317E+01   0.137E+00
     Est. condition number :    0.232E+02

 Order=           3
     NS sqrt iter    1 1.00000000   0.786E+00       0.001       64.512
     NS sqrt iter    2 1.00000000   0.408E+00       0.001      110.592
     NS sqrt iter    3 1.00000000   0.136E+00       0.001      110.592
     NS sqrt iter    4 1.00000000   0.997E-02       0.001      110.592
     NS sqrt iter    5 1.00000000   0.613E-05       0.001       82.944
     Symmetrizing Results
     Final NS sqrt iter    5 1.00000000   0.581E-10

     Est. extremal eigenvalues     -0.92796     1.81146  converged:  T
     TRS4 it   1 1.00000000   0.881E+00       0.000       16.128   0.100E-07
     TRS4 it   2 1.00000000   0.663E+00       0.000       32.256   0.100E-07
     TRS4 it   3 1.00000000   0.472E+00       0.000       32.256   0.100E-07
     TRS4 it   4 1.00000000   0.277E+00       0.000       32.256   0.100E-07
     TRS4 it   5 1.00000000   0.120E+00       0.000       32.256   0.100E-07
     TRS4 it   6 1.00000000   0.291E-01       0.000       32.256   0.100E-07
     TRS4 it   7 1.00000000   0.244E-02       0.000       32.256   0.100E-07
     TRS4 it   8 1.00000000   0.240E-04       0.000       32.256   0.100E-07
     TRS4 it   9 1.00000000   0.257E-08       0.000       32.256   0.100E-07
     Final TRS4 iteration    9 1.00000000   0.257E-08
     Chemical potential (mu):      -0.04184
 
 PAO| energy:  -7.7337307147080647      penalty:   3.5955504505476317E-007
 PAO|LS| adapt:  T T F
 PAO|LS| adapt: scan_steps:    0.0000000000000000       0.20000000000000001        0.0000000000000000     
 PAO|LS| adapt: energies:   -7.6351902179546389       -7.7337307147080647        0.0000000000000000     
 PAO| ======================= Iteration:         4 =============================

     Lanczos converged:  T threshold:   0.100E-02
     Est. extremal eigenvalues:    0.298E+01   0.155E+00
     Est. condition number :    0.192E+02

 Order=           3
     NS sqrt iter    1 1.00000000   0.749E+00       0.001       64.512
     NS sqrt iter    2 1.00000000   0.374E+00       0.001      110.592
     NS sqrt iter    3 1.00000000   0.107E+00       0.001      110.592
     NS sqrt iter    4 1.00000000   0.489E-02       0.001      110.592
     NS sqrt iter    5 1.00000000   0.870E-06       0.001       82.944
     Symmetrizing Results
     Final NS sqrt iter    5 1.00000000   0.126E-11

     Est. extremal eigenvalues     -0.93330     1.74199  converged:  T
     TRS4 it   1 1.00000000   0.876E+00       0.000       16.128   0.100E-07
     TRS4 it   2 1.00000000   0.635E+00       0.000       32.256   0.100E-07
     TRS4 it   3 1.00000000   0.442E+00       0.000       32.256   0.100E-07
     TRS4 it   4 1.00000000   0.240E+00       0.000       32.256   0.100E-07
     TRS4 it   5 1.00000000   0.879E-01       0.000       32.256   0.100E-07
     TRS4 it   6 1.00000000   0.151E-01       0.000       32.256   0.100E-07
     TRS4 it   7 1.00000000   0.626E-03       0.000       32.256   0.100E-07
     TRS4 it   8 1.00000000   0.154E-05       0.000       32.256   0.100E-07
     TRS4 it   9 1.00000000   0.106E-10       0.000       32.256   0.100E-07
     Final TRS4 iteration    9 1.00000000   0.106E-10
     Chemical potential (mu):      -0.01308
 
 PAO| energy:  -7.7809755461342966      penalty:   5.7528826300991701E-006
 PAO|LS| Need extra step
 PAO|LS| adapt:  T T F
 PAO|LS| adapt: scan_steps:    0.0000000000000000       0.40000000000000002        0.0000000000000000     
 PAO|LS| adapt: energies:   -7.6351902179546389       -7.7809755461342966        0.0000000000000000     
 PAO| ======================= Iteration:         5 =============================

     Lanczos converged:  T threshold:   0.100E-02
     Est. extremal eigenvalues:    0.263E+01   0.183E+00
     Est. condition number :    0.143E+02

 Order=           3
     NS sqrt iter    1 1.00000000   0.687E+00       0.001       64.512
     NS sqrt iter    2 1.00000000   0.313E+00       0.001      110.592
     NS sqrt iter    3 1.00000000   0.661E-01       0.001      110.592
     NS sqrt iter    4 1.00000000   0.135E-02       0.001      110.592
     NS sqrt iter    5 1.00000000   0.233E-07       0.001       57.856
     Symmetrizing Results
     Final NS sqrt iter    5 1.00000000   0.236E-08

     Est. extremal eigenvalues     -0.93456     1.66030  converged:  T
     TRS4 it   1 1.00000000   0.868E+00       0.000       16.128   0.100E-07
     TRS4 it   2 1.00000000   0.595E+00       0.000       32.256   0.100E-07
     TRS4 it   3 1.00000000   0.393E+00       0.000       32.256   0.100E-07
     TRS4 it   4 1.00000000   0.182E+00       0.000       32.256   0.100E-07
     TRS4 it   5 1.00000000   0.470E-01       0.000       32.256   0.100E-07
     TRS4 it   6 1.00000000   0.387E-02       0.000       32.256   0.100E-07
     TRS4 it   7 1.00000000   0.340E-04       0.000       32.256   0.100E-07
     TRS4 it   8 1.00000000   0.332E-08       0.000       32.256   0.100E-07
     Final TRS4 iteration    8 1.00000000   0.332E-08
     Chemical potential (mu):       0.03735
 
 PAO| energy:  -7.7261507934864762      penalty:   9.2046137355410228E-005
 PAO|LS| Need extra step
 PAO|LS| adapt:  T T T
 PAO|LS| adapt: scan_steps:    0.0000000000000000       0.40000000000000002       0.80000000000000004     
 PAO|LS| adapt: energies:   -7.6351902179546389       -7.7809755461342966       -7.7261507934864762     
 PAO|LS| adapt: suggested step_size:   0.49068395282693911     
 PAO|LS| adapt: predicted energy  -7.7861309614721970     
 PAO| ======================= Iteration:         6 =============================

     Lanczos converged:  T threshold:   0.100E-02
     Est. extremal eigenvalues:    0.290E+01   0.162E+00
     Est. condition number :    0.178E+02

 Order=           3
     NS sqrt iter    1 1.00000000   0.733E+00       0.001       64.512
     NS sqrt iter    2 1.00000000   0.359E+00       0.001      110.592
     NS sqrt iter    3 1.00000000   0.953E-01       0.001      110.592
     NS sqrt iter    4 1.00000000   0.359E-02       0.001      110.592
     NS sqrt iter    5 1.00000000   0.378E-06       0.001       82.688
     Symmetrizing Results
     Final NS sqrt iter    5 1.00000000   0.141E-09

     Est. extremal eigenvalues     -0.93479     1.71814  converged:  T
     TRS4 it   1 1.00000000   0.874E+00       0.000       16.128   0.100E-07
     TRS4 it   2 1.00000000   0.624E+00       0.000       32.256   0.100E-07
     TRS4 it   3 1.00000000   0.430E+00       0.000       32.256   0.100E-07
     TRS4 it   4 1.00000000   0.225E+00       0.000       32.256   0.100E-07
     TRS4 it   5 1.00000000   0.760E-01       0.000       32.256   0.100E-07
     TRS4 it   6 1.00000000   0.110E-01       0.000       32.256   0.100E-07
     TRS4 it   7 1.00000000   0.316E-03       0.000       32.256   0.100E-07
     TRS4 it   8 1.00000000   0.374E-06       0.000       32.256   0.100E-07
     TRS4 it   9 1.00000000   0.619E-12       0.000       32.256   0.100E-07
     Final TRS4 iteration    9 1.00000000   0.619E-12
     Chemical potential (mu):       0.00091
 
 PAO| energy:  -7.7854172806730384      penalty:   1.3027257443845431E-005
 PAO|CG| warming up with steepest descent
 PAO|CG| beta:    0.0000000000000000     
 PAO| norm of gradient:  0.41720028200791442     
 PAO| energy improvement: -0.15022706271839947     
 PAO| step      6                   -7.785417281  0.261E-01  0.491E+00     0.060
 PAO|LS| adapt:  T F F
 PAO|LS| adapt: scan_steps:    0.0000000000000000        0.0000000000000000        0.0000000000000000     
 PAO|LS| adapt: energies:   -7.7854172806730384        0.0000000000000000        0.0000000000000000     
 PAO| ======================= Iteration:         7 =============================

     Lanczos converged:  T threshold:   0.100E-02
     Est. extremal eigenvalues:    0.281E+01   0.176E+00
     Est. condition number :    0.160E+02

 Order=           3
     NS sqrt iter    1 1.00000000   0.716E+00       0.001       64.512
     NS sqrt iter    2 1.00000000   0.339E+00       0.001      110.592
     NS sqrt iter    3 1.00000000   0.798E-01       0.001      110.592
     NS sqrt iter    4 1.00000000   0.220E-02       0.001      110.592
     NS sqrt iter    5 1.00000000   0.974E-07       0.001       77.312
     Symmetrizing Results
     Final NS sqrt iter    5 1.00000000   0.105E-08

     Est. extremal eigenvalues     -0.93653     1.70479  converged:  T
     TRS4 it   1 1.00000000   0.873E+00       0.000       16.128   0.100E-07
     TRS4 it   2 1.00000000   0.622E+00       0.000       32.256   0.100E-07
     TRS4 it   3 1.00000000   0.430E+00       0.000       32.256   0.100E-07
     TRS4 it   4 1.00000000   0.225E+00       0.000       32.256   0.100E-07
     TRS4 it   5 1.00000000   0.766E-01       0.000       32.256   0.100E-07
     TRS4 it   6 1.00000000   0.109E-01       0.000       32.256   0.100E-07
     TRS4 it   7 1.00000000   0.294E-03       0.000       32.256   0.100E-07
     TRS4 it   8 1.00000000   0.308E-06       0.000       32.256   0.100E-07
     TRS4 it   9 1.00000000   0.414E-12       0.000       32.256   0.100E-07
     Final TRS4 iteration    9 1.00000000   0.414E-12
     Chemical potential (mu):       0.00296
 
 PAO| energy:  -7.7796600009887076      penalty:   1.9742242969532753E-005
 PAO|LS| adapt:  T F T
 PAO|LS| adapt: scan_steps:    0.0000000000000000        0.0000000000000000       0.49068395282693911     
 PAO|LS| adapt: energies:   -7.7854172806730384        0.0000000000000000       -7.7796600009887076     
 PAO| ======================= Iteration:         8 =============================

     Lanczos converged:  T threshold:   0.100E-02
     Est. extremal eigenvalues:    0.285E+01   0.169E+00
     Est. condition number :    0.169E+02

 Order=           3
     NS sqrt iter    1 1.00000000   0.725E+00       0.001       64.512
     NS sqrt iter    2 1.00000000   0.349E+00       0.001      110.592
     NS sqrt iter    3 1.00000000   0.874E-01       0.001      110.592
     NS sqrt iter    4 1.00000000   0.283E-02       0.001      110.592
     NS sqrt iter    5 1.00000000   0.195E-06       0.001       80.256
     Symmetrizing Results
     Final NS sqrt iter    5 1.00000000   0.856E-09

     Est. extremal eigenvalues     -0.93660     1.71082  converged:  T
     TRS4 it   1 1.00000000   0.873E+00       0.000       16.128   0.100E-07
     TRS4 it   2 1.00000000   0.623E+00       0.000       32.256   0.100E-07
     TRS4 it   3 1.00000000   0.429E+00       0.000       32.256   0.100E-07
     TRS4 it   4 1.00000000   0.224E+00       0.000       32.256   0.100E-07
     TRS4 it   5 1.00000000   0.760E-01       0.000       32.256   0.100E-07
     TRS4 it   6 1.00000000   0.110E-01       0.000       32.256   0.100E-07
     TRS4 it   7 1.00000000   0.313E-03       0.000       32.256   0.100E-07
     TRS4 it   8 1.00000000   0.361E-06       0.000       32.256   0.100E-07
     TRS4 it   9 1.00000000   0.575E-12       0.000       32.256   0.100E-07
     Final TRS4 iteration    9 1.00000000   0.575E-12
     Chemical potential (mu):       0.00143
 
 PAO| energy:  -7.8050906453113003      penalty:   1.4131104178194494E-005
 PAO|LS| adapt:  T T T
 PAO|LS| adapt: scan_steps:    0.0000000000000000       0.24534197641346955       0.49068395282693911     
 PAO|LS| adapt: energies:   -7.7854172806730384       -7.8050906453113003       -7.7796600009887076     
 PAO|LS| adapt: suggested step_size:   0.22968369670550901     
 PAO|LS| adapt: predicted energy  -7.8051825059632893     
 PAO| ======================= Iteration:         9 =============================

     Lanczos converged:  T threshold:   0.100E-02
     Est. extremal eigenvalues:    0.286E+01   0.169E+00
     Est. condition number :    0.169E+02

 Order=           3
     NS sqrt iter    1 1.00000000   0.725E+00       0.001       64.512
     NS sqrt iter    2 1.00000000   0.350E+00       0.001      110.592
     NS sqrt iter    3 1.00000000   0.879E-01       0.001      110.592
     NS sqrt iter    4 1.00000000   0.287E-02       0.001      110.592
     NS sqrt iter    5 1.00000000   0.204E-06       0.001       80.512
     Symmetrizing Results
     Final NS sqrt iter    5 1.00000000   0.832E-09

     Est. extremal eigenvalues     -0.93654     1.71125  converged:  T
     TRS4 it   1 1.00000000   0.873E+00       0.000       16.128   0.100E-07
     TRS4 it   2 1.00000000   0.623E+00       0.000       32.256   0.100E-07
     TRS4 it   3 1.00000000   0.429E+00       0.000       32.256   0.100E-07
     TRS4 it   4 1.00000000   0.224E+00       0.000       32.256   0.100E-07
     TRS4 it   5 1.00000000   0.760E-01       0.000       32.256   0.100E-07
     TRS4 it   6 1.00000000   0.110E-01       0.000       32.256   0.100E-07
     TRS4 it   7 1.00000000   0.313E-03       0.000       32.256   0.100E-07
     TRS4 it   8 1.00000000   0.364E-06       0.000       32.256   0.100E-07
     TRS4 it   9 1.00000000   0.582E-12       0.000       32.256   0.100E-07
     Final TRS4 iteration    9 1.00000000   0.582E-12
     Chemical potential (mu):       0.00137
 
 PAO| energy:  -7.8052058630804337      penalty:   1.3963308296952788E-005
 PAO|CG| trace_G_new    3.6933472532724929E-002
 PAO|CG| trace_G_prev   0.17405607530748332     
 PAO|CG| trace_G_mix   -1.4456340793191484E-003
 PAO|CG| trace_D   0.17405607530748332     
 PAO|CG| trace_D_Gnew   1.4456340793191484E-003
 PAO|CG| beta:   0.22049851775782295     
 PAO| norm of gradient:  0.19218083289632432     
 PAO| energy improvement:  -1.9788582407395339E-002
 PAO| step      9                   -7.805205863  0.120E-01  0.230E+00     0.037
 PAO|LS| adapt:  T F F
 PAO|LS| adapt: scan_steps:    0.0000000000000000        0.0000000000000000        0.0000000000000000     
 PAO|LS| adapt: energies:   -7.8052058630804337        0.0000000000000000        0.0000000000000000     
 PAO| ======================= Iteration:        10 =============================

     Lanczos converged:  T threshold:   0.100E-02
     Est. extremal eigenvalues:    0.282E+01   0.175E+00
     Est. condition number :    0.161E+02

 Order=           3
     NS sqrt iter    1 1.00000000   0.718E+00       0.001       64.512
     NS sqrt iter    2 1.00000000   0.341E+00       0.001      110.592
     NS sqrt iter    3 1.00000000   0.823E-01       0.001      110.592
     NS sqrt iter    4 1.00000000   0.236E-02       0.001      110.592
     NS sqrt iter    5 1.00000000   0.113E-06       0.001       77.952
     Symmetrizing Results
     Final NS sqrt iter    5 1.00000000   0.118E-08

     Est. extremal eigenvalues     -0.93743     1.70466  converged:  T
     TRS4 it   1 1.00000000   0.870E+00       0.000       16.128   0.100E-07
     TRS4 it   2 1.00000000   0.621E+00       0.000       32.256   0.100E-07
     TRS4 it   3 1.00000000   0.427E+00       0.000       32.256   0.100E-07
     TRS4 it   4 1.00000000   0.221E+00       0.000       32.256   0.100E-07
     TRS4 it   5 1.00000000   0.737E-01       0.000       32.256   0.100E-07
     TRS4 it   6 1.00000000   0.103E-01       0.000       32.256   0.100E-07
     TRS4 it   7 1.00000000   0.269E-03       0.000       32.256   0.100E-07
     TRS4 it   8 1.00000000   0.262E-06       0.000       32.256   0.100E-07
     TRS4 it   9 1.00000000   0.299E-12       0.000       32.256   0.100E-07
     Final TRS4 iteration    9 1.00000000   0.299E-12
     Chemical potential (mu):       0.00462
 
 PAO| energy:  -7.8102496884884376      penalty:   1.4507830588519112E-005
 PAO|LS| adapt:  T T F
 PAO|LS| adapt: scan_steps:    0.0000000000000000       0.22968369670550901        0.0000000000000000     
 PAO|LS| adapt: energies:   -7.8052058630804337       -7.8102496884884376        0.0000000000000000     
 PAO| ======================= Iteration:        11 =============================

     Lanczos converged:  T threshold:   0.100E-02
     Est. extremal eigenvalues:    0.278E+01   0.180E+00
     Est. condition number :    0.154E+02

 Order=           3
     NS sqrt iter    1 1.00000000   0.710E+00       0.001       64.512
     NS sqrt iter    2 1.00000000   0.333E+00       0.001      110.592
     NS sqrt iter    3 1.00000000   0.769E-01       0.001      110.592
     NS sqrt iter    4 1.00000000   0.193E-02       0.001      110.592
     NS sqrt iter    5 1.00000000   0.618E-07       0.001       73.600
     Symmetrizing Results
     Final NS sqrt iter    5 1.00000000   0.720E-09

     Est. extremal eigenvalues     -0.93734     1.69945  converged:  T
     TRS4 it   1 1.00000000   0.868E+00       0.000       16.128   0.100E-07
     TRS4 it   2 1.00000000   0.619E+00       0.000       32.256   0.100E-07
     TRS4 it   3 1.00000000   0.424E+00       0.000       32.256   0.100E-07
     TRS4 it   4 1.00000000   0.218E+00       0.000       32.256   0.100E-07
     TRS4 it   5 1.00000000   0.715E-01       0.000       32.256   0.100E-07
     TRS4 it   6 1.00000000   0.962E-02       0.000       32.256   0.100E-07
     TRS4 it   7 1.00000000   0.231E-03       0.000       32.256   0.100E-07
     TRS4 it   8 1.00000000   0.187E-06       0.000       32.256   0.100E-07
     TRS4 it   9 1.00000000   0.150E-12       0.000       32.256   0.100E-07
     Final TRS4 iteration    9 1.00000000   0.150E-12
     Chemical potential (mu):       0.00801
 
 PAO| energy:  -7.8088064204532559      penalty:   1.5726021364357554E-005
 PAO|LS| adapt:  T T T
 PAO|LS| adapt: scan_steps:    0.0000000000000000       0.22968369670550901       0.45936739341101801     
 PAO|LS| adapt: energies:   -7.8052058630804337       -7.8102496884884376       -7.8088064204532559     
 PAO|LS| adapt: suggested step_size:   0.29342482629096250     
 PAO|LS| adapt: predicted energy  -7.8104994924551239     
 PAO| ======================= Iteration:        12 =============================

     Lanczos converged:  T threshold:   0.100E-02
     Est. extremal eigenvalues:    0.281E+01   0.176E+00
     Est. condition number :    0.159E+02

 Order=           3
     NS sqrt iter    1 1.00000000   0.716E+00       0.001       64.512
     NS sqrt iter    2 1.00000000   0.339E+00       0.001      110.592
     NS sqrt iter    3 1.00000000   0.807E-01       0.001      110.592
     NS sqrt iter    4 1.00000000   0.223E-02       0.001      110.592
     NS sqrt iter    5 1.00000000   0.958E-07       0.001       77.056
     Symmetrizing Results
     Final NS sqrt iter    5 1.00000000   0.101E-08

     Est. extremal eigenvalues     -0.93750     1.70307  converged:  T
     TRS4 it   1 1.00000000   0.870E+00       0.000       16.128   0.100E-07
     TRS4 it   2 1.00000000   0.620E+00       0.000       32.256   0.100E-07
     TRS4 it   3 1.00000000   0.426E+00       0.000       32.256   0.100E-07
     TRS4 it   4 1.00000000   0.220E+00       0.000       32.256   0.100E-07
     TRS4 it   5 1.00000000   0.731E-01       0.000       32.256   0.100E-07
     TRS4 it   6 1.00000000   0.101E-01       0.000       32.256   0.100E-07
     TRS4 it   7 1.00000000   0.258E-03       0.000       32.256   0.100E-07
     TRS4 it   8 1.00000000   0.239E-06       0.000       32.256   0.100E-07
     TRS4 it   9 1.00000000   0.247E-12       0.000       32.256   0.100E-07
     Final TRS4 iteration    9 1.00000000   0.247E-12
     Chemical potential (mu):       0.00555
 
 PAO| energy:  -7.8104833957776156      penalty:   1.4770723908223290E-005
 PAO|CG| trace_G_new    1.1837090786794777E-002
 PAO|CG| trace_G_prev    3.6933472532724929E-002
 PAO|CG| trace_G_mix   -4.6033427768060829E-004
 PAO|CG| trace_D    4.4758488310129976E-002
 PAO|CG| trace_D_Gnew   2.1158812369498630E-004
 PAO|CG| beta:   0.33296151759299758     
 PAO| norm of gradient:  0.10879839514806630     
 PAO| energy improvement:  -5.2775326971818970E-003
 PAO| step     12                   -7.810483396  0.680E-02  0.293E+00     0.037
 PAO|LS| adapt:  T F F
 PAO|LS| adapt: scan_steps:    0.0000000000000000        0.0000000000000000        0.0000000000000000     
 PAO|LS| adapt: energies:   -7.8104833957776156        0.0000000000000000        0.0000000000000000     
 PAO| ======================= Iteration:        13 =============================

     Lanczos converged:  T threshold:   0.100E-02
     Est. extremal eigenvalues:    0.277E+01   0.180E+00
     Est. condition number :    0.154E+02

 Order=           3
     NS sqrt iter    1 1.00000000   0.709E+00       0.001       64.512
     NS sqrt iter    2 1.00000000   0.332E+00       0.001      110.592
     NS sqrt iter    3 1.00000000   0.764E-01       0.001      110.592
     NS sqrt iter    4 1.00000000   0.191E-02       0.001      110.592
     NS sqrt iter    5 1.00000000   0.603E-07       0.001       73.472
     Symmetrizing Results
     Final NS sqrt iter    5 1.00000000   0.727E-09

     Est. extremal eigenvalues     -0.93799     1.69600  converged:  T
     TRS4 it   1 1.00000000   0.869E+00       0.000       16.128   0.100E-07
     TRS4 it   2 1.00000000   0.617E+00       0.000       32.256   0.100E-07
     TRS4 it   3 1.00000000   0.422E+00       0.000       32.256   0.100E-07
     TRS4 it   4 1.00000000   0.215E+00       0.000       32.256   0.100E-07
     TRS4 it   5 1.00000000   0.695E-01       0.000       32.256   0.100E-07
     TRS4 it   6 1.00000000   0.906E-02       0.000       32.256   0.100E-07
     TRS4 it   7 1.00000000   0.205E-03       0.000       32.256   0.100E-07
     TRS4 it   8 1.00000000   0.146E-06       0.000       32.256   0.100E-07
     TRS4 it   9 1.00000000   0.914E-13       0.000       32.256   0.100E-07
     Final TRS4 iteration    9 1.00000000   0.914E-13
     Chemical potential (mu):       0.01020
 
 PAO| energy:  -7.8125508153785059      penalty:   1.5080168848632038E-005
 PAO|LS| adapt:  T T F
 PAO|LS| adapt: scan_steps:    0.0000000000000000       0.29342482629096250        0.0000000000000000     
 PAO|LS| adapt: energies:   -7.8104833957776156       -7.8125508153785059        0.0000000000000000     
 PAO| ======================= Iteration:        14 =============================

     Lanczos converged:  T threshold:   0.100E-02
     Est. extremal eigenvalues:    0.274E+01   0.184E+00
     Est. condition number :    0.149E+02

 Order=           3
     NS sqrt iter    1 1.00000000   0.702E+00       0.001       64.512
     NS sqrt iter    2 1.00000000   0.325E+00       0.001      110.592
     NS sqrt iter    3 1.00000000   0.723E-01       0.001      110.592
     NS sqrt iter    4 1.00000000   0.163E-02       0.001      110.592
     NS sqrt iter    5 1.00000000   0.379E-07       0.001       68.736
     Symmetrizing Results
     Final NS sqrt iter    5 1.00000000   0.424E-09

     Est. extremal eigenvalues     -0.93796     1.68930  converged:  T
     TRS4 it   1 1.00000000   0.868E+00       0.000       16.128   0.100E-07
     TRS4 it   2 1.00000000   0.614E+00       0.000       32.256   0.100E-07
     TRS4 it   3 1.00000000   0.418E+00       0.000       32.256   0.100E-07
     TRS4 it   4 1.00000000   0.211E+00       0.000       32.256   0.100E-07
     TRS4 it   5 1.00000000   0.661E-01       0.000       32.256   0.100E-07
     TRS4 it   6 1.00000000   0.813E-02       0.000       32.256   0.100E-07
     TRS4 it   7 1.00000000   0.163E-03       0.000       32.256   0.100E-07
     TRS4 it   8 1.00000000   0.893E-07       0.000       32.256   0.100E-07
     TRS4 it   9 1.00000000   0.347E-13       0.000       32.256   0.100E-07
     Final TRS4 iteration    9 1.00000000   0.347E-13
     Chemical potential (mu):       0.01476
 
 PAO| energy:  -7.8118974413691413      penalty:   1.5869609228821322E-005
 PAO|LS| adapt:  T T T
 PAO|LS| adapt: scan_steps:    0.0000000000000000       0.29342482629096250       0.58684965258192501     
 PAO|LS| adapt: energies:   -7.8104833957776156       -7.8125508153785059       -7.8118974413691413     
 PAO|LS| adapt: suggested step_size:   0.36967391782386544     
 PAO|LS| adapt: predicted energy  -7.8126426785084115     
 PAO| ======================= Iteration:        15 =============================

     Lanczos converged:  T threshold:   0.100E-02
     Est. extremal eigenvalues:    0.277E+01   0.181E+00
     Est. condition number :    0.152E+02

 Order=           3
     NS sqrt iter    1 1.00000000   0.707E+00       0.001       64.512
     NS sqrt iter    2 1.00000000   0.330E+00       0.001      110.592
     NS sqrt iter    3 1.00000000   0.753E-01       0.001      110.592
     NS sqrt iter    4 1.00000000   0.183E-02       0.001      110.592
     NS sqrt iter    5 1.00000000   0.535E-07       0.001       72.576
     Symmetrizing Results
     Final NS sqrt iter    5 1.00000000   0.461E-09

     Est. extremal eigenvalues     -0.93803     1.69422  converged:  T
     TRS4 it   1 1.00000000   0.869E+00       0.000       16.128   0.100E-07
     TRS4 it   2 1.00000000   0.616E+00       0.000       32.256   0.100E-07
     TRS4 it   3 1.00000000   0.421E+00       0.000       32.256   0.100E-07
     TRS4 it   4 1.00000000   0.214E+00       0.000       32.256   0.100E-07
     TRS4 it   5 1.00000000   0.686E-01       0.000       32.256   0.100E-07
     TRS4 it   6 1.00000000   0.881E-02       0.000       32.256   0.100E-07
     TRS4 it   7 1.00000000   0.193E-03       0.000       32.256   0.100E-07
     TRS4 it   8 1.00000000   0.129E-06       0.000       32.256   0.100E-07
     TRS4 it   9 1.00000000   0.699E-13       0.000       32.256   0.100E-07
     Final TRS4 iteration    9 1.00000000   0.699E-13
     Chemical potential (mu):       0.01139
 
 PAO| energy:  -7.8126396403630958      penalty:   1.5236120914277308E-005
 PAO|CG| trace_G_new    2.6126050443296043E-003
 PAO|CG| trace_G_prev    1.1837090786794777E-002
 PAO|CG| trace_G_mix    6.6157601366108519E-005
 PAO|CG| trace_D    1.6658266329792757E-002
 PAO|CG| trace_D_Gnew   3.4095158497480838E-005
 PAO|CG| beta:   0.21512443292267910     
 PAO| norm of gradient:   5.1113648317544350E-002
 PAO| energy improvement:  -2.1562445854801382E-003
 PAO| step     15                   -7.812639640  0.319E-02  0.370E+00     0.037
 PAO|LS| adapt:  T F F
 PAO|LS| adapt: scan_steps:    0.0000000000000000        0.0000000000000000        0.0000000000000000     
 PAO|LS| adapt: energies:   -7.8126396403630958        0.0000000000000000        0.0000000000000000     
 PAO| ======================= Iteration:        16 =============================

     Lanczos converged:  T threshold:   0.100E-02
     Est. extremal eigenvalues:    0.276E+01   0.182E+00
     Est. condition number :    0.151E+02

 Order=           3
     NS sqrt iter    1 1.00000000   0.705E+00       0.001       64.512
     NS sqrt iter    2 1.00000000   0.329E+00       0.001      110.592
     NS sqrt iter    3 1.00000000   0.747E-01       0.001      110.592
     NS sqrt iter    4 1.00000000   0.178E-02       0.001      110.592
     NS sqrt iter    5 1.00000000   0.491E-07       0.001       72.192
     Symmetrizing Results
     Final NS sqrt iter    5 1.00000000   0.423E-09

     Est. extremal eigenvalues     -0.93806     1.69377  converged:  T
     TRS4 it   1 1.00000000   0.869E+00       0.000       16.128   0.100E-07
     TRS4 it   2 1.00000000   0.615E+00       0.000       32.256   0.100E-07
     TRS4 it   3 1.00000000   0.420E+00       0.000       32.256   0.100E-07
     TRS4 it   4 1.00000000   0.213E+00       0.000       32.256   0.100E-07
     TRS4 it   5 1.00000000   0.675E-01       0.000       32.256   0.100E-07
     TRS4 it   6 1.00000000   0.853E-02       0.000       32.256   0.100E-07
     TRS4 it   7 1.00000000   0.182E-03       0.000       32.256   0.100E-07
     TRS4 it   8 1.00000000   0.115E-06       0.000       32.256   0.100E-07
     TRS4 it   9 1.00000000   0.563E-13       0.000       32.256   0.100E-07
     Final TRS4 iteration    9 1.00000000   0.563E-13
     Chemical potential (mu):       0.01223
 
 PAO| energy:  -7.8127673039888119      penalty:   1.5017208481426381E-005
 PAO|LS| adapt:  T T F
 PAO|LS| adapt: scan_steps:    0.0000000000000000       0.36967391782386544        0.0000000000000000     
 PAO|LS| adapt: energies:   -7.8126396403630958       -7.8127673039888119        0.0000000000000000     
 PAO| ======================= Iteration:        17 =============================

     Lanczos converged:  T threshold:   0.100E-02
     Est. extremal eigenvalues:    0.275E+01   0.183E+00
     Est. condition number :    0.151E+02

 Order=           3
     NS sqrt iter    1 1.00000000   0.703E+00       0.001       64.512
     NS sqrt iter    2 1.00000000   0.328E+00       0.001      110.592
     NS sqrt iter    3 1.00000000   0.741E-01       0.001      110.592
     NS sqrt iter    4 1.00000000   0.173E-02       0.001      110.592
     NS sqrt iter    5 1.00000000   0.451E-07       0.001       71.296
     Symmetrizing Results
     Final NS sqrt iter    5 1.00000000   0.420E-09

     Est. extremal eigenvalues     -0.93796     1.69339  converged:  T
     TRS4 it   1 1.00000000   0.869E+00       0.000       16.128   0.100E-07
     TRS4 it   2 1.00000000   0.614E+00       0.000       32.256   0.100E-07
     TRS4 it   3 1.00000000   0.418E+00       0.000       32.256   0.100E-07
     TRS4 it   4 1.00000000   0.211E+00       0.000       32.256   0.100E-07
     TRS4 it   5 1.00000000   0.664E-01       0.000       32.256   0.100E-07
     TRS4 it   6 1.00000000   0.826E-02       0.000       32.256   0.100E-07
     TRS4 it   7 1.00000000   0.172E-03       0.000       32.256   0.100E-07
     TRS4 it   8 1.00000000   0.104E-06       0.000       32.256   0.100E-07
     TRS4 it   9 1.00000000   0.461E-13       0.000       32.256   0.100E-07
     Final TRS4 iteration    9 1.00000000   0.461E-13
     Chemical potential (mu):       0.01304
 
 PAO| energy:  -7.8112184653234733      penalty:   1.4922953565187771E-005
 PAO|LS| adapt:  T T T
 PAO|LS| adapt: scan_steps:    0.0000000000000000       0.36967391782386544       0.73934783564773088     
 PAO|LS| adapt: energies:   -7.8126396403630958       -7.8127673039888119       -7.8112184653234733     
 PAO|LS| adapt: suggested step_size:   0.21298718151162599     
 PAO|LS| adapt: predicted energy  -7.8129178956778320     
 PAO| ======================= Iteration:        18 =============================

     Lanczos converged:  T threshold:   0.100E-02
     Est. extremal eigenvalues:    0.276E+01   0.182E+00
     Est. condition number :    0.152E+02

 Order=           3
     NS sqrt iter    1 1.00000000   0.706E+00       0.001       64.512
     NS sqrt iter    2 1.00000000   0.330E+00       0.001      110.592
     NS sqrt iter    3 1.00000000   0.750E-01       0.001      110.592
     NS sqrt iter    4 1.00000000   0.180E-02       0.001      110.592
     NS sqrt iter    5 1.00000000   0.509E-07       0.001       72.320
     Symmetrizing Results
     Final NS sqrt iter    5 1.00000000   0.444E-09

     Est. extremal eigenvalues     -0.93806     1.69395  converged:  T
     TRS4 it   1 1.00000000   0.869E+00       0.000       16.128   0.100E-07
     TRS4 it   2 1.00000000   0.616E+00       0.000       32.256   0.100E-07
     TRS4 it   3 1.00000000   0.420E+00       0.000       32.256   0.100E-07
     TRS4 it   4 1.00000000   0.213E+00       0.000       32.256   0.100E-07
     TRS4 it   5 1.00000000   0.679E-01       0.000       32.256   0.100E-07
     TRS4 it   6 1.00000000   0.865E-02       0.000       32.256   0.100E-07
     TRS4 it   7 1.00000000   0.186E-03       0.000       32.256   0.100E-07
     TRS4 it   8 1.00000000   0.121E-06       0.000       32.256   0.100E-07
     TRS4 it   9 1.00000000   0.613E-13       0.000       32.256   0.100E-07
     Final TRS4 iteration    9 1.00000000   0.613E-13
     Chemical potential (mu):       0.01188
 
 PAO| energy:  -7.8129174329890088      penalty:   1.5095042590150846E-005
 PAO|CG| trace_G_new    7.2703138007138826E-004
 PAO|CG| trace_G_prev    2.6126050443296043E-003
 PAO|CG| trace_G_mix    1.6160663427554494E-006
 PAO|CG| trace_D    3.3688555798885118E-003
 PAO|CG| trace_D_Gnew  -1.7836081683664122E-006
 PAO|CG| beta:   0.27765976924184294     
 PAO| norm of gradient:   2.6963519430359760E-002
 PAO| energy improvement:  -2.7779262591298703E-004
 PAO| step     18                   -7.812917433  0.169E-02  0.213E+00     0.037
 PAO|LS| adapt:  T F F
 PAO|LS| adapt: scan_steps:    0.0000000000000000        0.0000000000000000        0.0000000000000000     
 PAO|LS| adapt: energies:   -7.8129174329890088        0.0000000000000000        0.0000000000000000     
 PAO| ======================= Iteration:        19 =============================

     Lanczos converged:  T threshold:   0.100E-02
     Est. extremal eigenvalues:    0.276E+01   0.182E+00
     Est. condition number :    0.152E+02

 Order=           3
     NS sqrt iter    1 1.00000000   0.706E+00       0.001       64.512
     NS sqrt iter    2 1.00000000   0.330E+00       0.001      110.592
     NS sqrt iter    3 1.00000000   0.752E-01       0.001      110.592
     NS sqrt iter    4 1.00000000   0.181E-02       0.001      110.592
     NS sqrt iter    5 1.00000000   0.515E-07       0.001       72.448
     Symmetrizing Results
     Final NS sqrt iter    5 1.00000000   0.452E-09

     Est. extremal eigenvalues     -0.93806     1.69418  converged:  T
     TRS4 it   1 1.00000000   0.869E+00       0.000       16.128   0.100E-07
     TRS4 it   2 1.00000000   0.615E+00       0.000       32.256   0.100E-07
     TRS4 it   3 1.00000000   0.420E+00       0.000       32.256   0.100E-07
     TRS4 it   4 1.00000000   0.213E+00       0.000       32.256   0.100E-07
     TRS4 it   5 1.00000000   0.678E-01       0.000       32.256   0.100E-07
     TRS4 it   6 1.00000000   0.864E-02       0.000       32.256   0.100E-07
     TRS4 it   7 1.00000000   0.187E-03       0.000       32.256   0.100E-07
     TRS4 it   8 1.00000000   0.123E-06       0.000       32.256   0.100E-07
     TRS4 it   9 1.00000000   0.642E-13       0.000       32.256   0.100E-07
     Final TRS4 iteration    9 1.00000000   0.642E-13
     Chemical potential (mu):       0.01159
 
 PAO| energy:  -7.8130355739939592      penalty:   1.4805395207255459E-005
 PAO|LS| adapt:  T T F
 PAO|LS| adapt: scan_steps:    0.0000000000000000       0.21298718151162599        0.0000000000000000     
 PAO|LS| adapt: energies:   -7.8129174329890088       -7.8130355739939592        0.0000000000000000     
 PAO| ======================= Iteration:        20 =============================

     Lanczos converged:  T threshold:   0.100E-02
     Est. extremal eigenvalues:    0.276E+01   0.181E+00
     Est. condition number :    0.152E+02

 Order=           3
     NS sqrt iter    1 1.00000000   0.706E+00       0.001       64.512
     NS sqrt iter    2 1.00000000   0.330E+00       0.001      110.592
     NS sqrt iter    3 1.00000000   0.754E-01       0.001      110.592
     NS sqrt iter    4 1.00000000   0.182E-02       0.001      110.592
     NS sqrt iter    5 1.00000000   0.521E-07       0.001       72.448
     Symmetrizing Results
     Final NS sqrt iter    5 1.00000000   0.461E-09

     Est. extremal eigenvalues     -0.93806     1.69441  converged:  T
     TRS4 it   1 1.00000000   0.869E+00       0.000       16.128   0.100E-07
     TRS4 it   2 1.00000000   0.615E+00       0.000       32.256   0.100E-07
     TRS4 it   3 1.00000000   0.420E+00       0.000       32.256   0.100E-07
     TRS4 it   4 1.00000000   0.213E+00       0.000       32.256   0.100E-07
     TRS4 it   5 1.00000000   0.677E-01       0.000       32.256   0.100E-07
     TRS4 it   6 1.00000000   0.863E-02       0.000       32.256   0.100E-07
     TRS4 it   7 1.00000000   0.188E-03       0.000       32.256   0.100E-07
     TRS4 it   8 1.00000000   0.125E-06       0.000       32.256   0.100E-07
     TRS4 it   9 1.00000000   0.668E-13       0.000       32.256   0.100E-07
     Final TRS4 iteration    9 1.00000000   0.668E-13
     Chemical potential (mu):       0.01130
 
 PAO| energy:  -7.8130796908086113      penalty:   1.4528224546230131E-005
 PAO|LS| adapt:  T T F
 PAO|LS| adapt: scan_steps:    0.0000000000000000       0.42597436302325198        0.0000000000000000     
 PAO|LS| adapt: energies:   -7.8129174329890088       -7.8130796908086113        0.0000000000000000     
 PAO| ======================= Iteration:        21 =============================

     Lanczos converged:  T threshold:   0.100E-02
     Est. extremal eigenvalues:    0.276E+01   0.181E+00
     Est. condition number :    0.152E+02

 Order=           3
     NS sqrt iter    1 1.00000000   0.706E+00       0.001       64.512
     NS sqrt iter    2 1.00000000   0.331E+00       0.001      110.592
     NS sqrt iter    3 1.00000000   0.758E-01       0.001      110.592
     NS sqrt iter    4 1.00000000   0.184E-02       0.001      110.592
     NS sqrt iter    5 1.00000000   0.535E-07       0.001       72.704
     Symmetrizing Results
     Final NS sqrt iter    5 1.00000000   0.605E-09

     Est. extremal eigenvalues     -0.93805     1.69488  converged:  T
     TRS4 it   1 1.00000000   0.869E+00       0.000       16.128   0.100E-07
     TRS4 it   2 1.00000000   0.615E+00       0.000       32.256   0.100E-07
     TRS4 it   3 1.00000000   0.420E+00       0.000       32.256   0.100E-07
     TRS4 it   4 1.00000000   0.213E+00       0.000       32.256   0.100E-07
     TRS4 it   5 1.00000000   0.675E-01       0.000       32.256   0.100E-07
     TRS4 it   6 1.00000000   0.862E-02       0.000       32.256   0.100E-07
     TRS4 it   7 1.00000000   0.189E-03       0.000       32.256   0.100E-07
     TRS4 it   8 1.00000000   0.129E-06       0.000       32.256   0.100E-07
     TRS4 it   9 1.00000000   0.727E-13       0.000       32.256   0.100E-07
     Final TRS4 iteration    9 1.00000000   0.727E-13
     Chemical potential (mu):       0.01072
 
 PAO| energy:  -7.8129434572338869      penalty:   1.4010733327956607E-005
 PAO|LS| Need extra step
 PAO|LS| adapt:  T T T
 PAO|LS| adapt: scan_steps:    0.0000000000000000       0.42597436302325198       0.85194872604650396     
 PAO|LS| adapt: energies:   -7.8129174329890088       -7.8130796908086113       -7.8129434572338869     
 PAO|LS| adapt: suggested step_size:   0.44454384500135774     
 PAO|LS| adapt: predicted energy  -7.8130799744270565     
 PAO| ======================= Iteration:        22 =============================

     Lanczos converged:  T threshold:   0.100E-02
     Est. extremal eigenvalues:    0.276E+01   0.181E+00
     Est. condition number :    0.152E+02

 Order=           3
     NS sqrt iter    1 1.00000000   0.706E+00       0.001       64.512
     NS sqrt iter    2 1.00000000   0.330E+00       0.001      110.592
     NS sqrt iter    3 1.00000000   0.754E-01       0.001      110.592
     NS sqrt iter    4 1.00000000   0.182E-02       0.001      110.592
     NS sqrt iter    5 1.00000000   0.522E-07       0.001       72.448
     Symmetrizing Results
     Final NS sqrt iter    5 1.00000000   0.461E-09

     Est. extremal eigenvalues     -0.93806     1.69443  converged:  T
     TRS4 it   1 1.00000000   0.869E+00       0.000       16.128   0.100E-07
     TRS4 it   2 1.00000000   0.615E+00       0.000       32.256   0.100E-07
     TRS4 it   3 1.00000000   0.420E+00       0.000       32.256   0.100E-07
     TRS4 it   4 1.00000000   0.213E+00       0.000       32.256   0.100E-07
     TRS4 it   5 1.00000000   0.677E-01       0.000       32.256   0.100E-07
     TRS4 it   6 1.00000000   0.863E-02       0.000       32.256   0.100E-07
     TRS4 it   7 1.00000000   0.188E-03       0.000       32.256   0.100E-07
     TRS4 it   8 1.00000000   0.125E-06       0.000       32.256   0.100E-07
     TRS4 it   9 1.00000000   0.669E-13       0.000       32.256   0.100E-07
     Final TRS4 iteration    9 1.00000000   0.669E-13
     Chemical potential (mu):       0.01127
 
 PAO| energy:  -7.8130800091475026      penalty:   1.4504644628809674E-005
 PAO|CG| trace_G_new    2.2374582922217939E-004
 PAO|CG| trace_G_prev    7.2703138007138826E-004
 PAO|CG| trace_G_mix    2.9970555384014808E-006
 PAO|CG| trace_D    9.8774359645273022E-004
 PAO|CG| trace_D_Gnew  -1.8632529264704126E-006
 PAO|CG| beta:   0.30363032426757464     
 PAO| norm of gradient:   1.4958135887274838E-002
 PAO| energy improvement:  -1.6257615849379903E-004
 PAO| step     22                   -7.813080009  0.935E-03  0.445E+00     0.048
 PAO|LS| adapt:  T F F
 PAO|LS| adapt: scan_steps:    0.0000000000000000        0.0000000000000000        0.0000000000000000     
 PAO|LS| adapt: energies:   -7.8130800091475026        0.0000000000000000        0.0000000000000000     
 PAO| ======================= Iteration:        23 =============================

     Lanczos converged:  T threshold:   0.100E-02
     Est. extremal eigenvalues:    0.276E+01   0.181E+00
     Est. condition number :    0.152E+02

 Order=           3
     NS sqrt iter    1 1.00000000   0.706E+00       0.001       64.512
     NS sqrt iter    2 1.00000000   0.330E+00       0.001      110.592
     NS sqrt iter    3 1.00000000   0.755E-01       0.001      110.592
     NS sqrt iter    4 1.00000000   0.182E-02       0.001      110.592
     NS sqrt iter    5 1.00000000   0.521E-07       0.001       72.448
     Symmetrizing Results
     Final NS sqrt iter    5 1.00000000   0.462E-09

     Est. extremal eigenvalues     -0.93806     1.69399  converged:  T
     TRS4 it   1 1.00000000   0.869E+00       0.000       16.128   0.100E-07
     TRS4 it   2 1.00000000   0.615E+00       0.000       32.256   0.100E-07
     TRS4 it   3 1.00000000   0.420E+00       0.000       32.256   0.100E-07
     TRS4 it   4 1.00000000   0.213E+00       0.000       32.256   0.100E-07
     TRS4 it   5 1.00000000   0.678E-01       0.000       32.256   0.100E-07
     TRS4 it   6 1.00000000   0.866E-02       0.000       32.256   0.100E-07
     TRS4 it   7 1.00000000   0.190E-03       0.000       32.256   0.100E-07
     TRS4 it   8 1.00000000   0.128E-06       0.000       32.256   0.100E-07
     TRS4 it   9 1.00000000   0.716E-13       0.000       32.256   0.100E-07
     Final TRS4 iteration    9 1.00000000   0.716E-13
     Chemical potential (mu):       0.01095
 
 PAO| energy:  -7.8131298952043293      penalty:   1.3822024313505267E-005
 PAO|LS| adapt:  T T F
 PAO|LS| adapt: scan_steps:    0.0000000000000000       0.44454384500135774        0.0000000000000000     
 PAO|LS| adapt: energies:   -7.8130800091475026       -7.8131298952043293        0.0000000000000000     
 PAO| ======================= Iteration:        24 =============================

     Lanczos converged:  T threshold:   0.100E-02
     Est. extremal eigenvalues:    0.276E+01   0.181E+00
     Est. condition number :    0.152E+02

 Order=           3
     NS sqrt iter    1 1.00000000   0.706E+00       0.001       64.512
     NS sqrt iter    2 1.00000000   0.330E+00       0.001      110.592
     NS sqrt iter    3 1.00000000   0.755E-01       0.001      110.592
     NS sqrt iter    4 1.00000000   0.182E-02       0.001      110.592
     NS sqrt iter    5 1.00000000   0.521E-07       0.001       72.448
     Symmetrizing Results
     Final NS sqrt iter    5 1.00000000   0.463E-09

     Est. extremal eigenvalues     -0.93806     1.69355  converged:  T
     TRS4 it   1 1.00000000   0.868E+00       0.000       16.128   0.100E-07
     TRS4 it   2 1.00000000   0.615E+00       0.000       32.256   0.100E-07
     TRS4 it   3 1.00000000   0.420E+00       0.000       32.256   0.100E-07
     TRS4 it   4 1.00000000   0.213E+00       0.000       32.256   0.100E-07
     TRS4 it   5 1.00000000   0.679E-01       0.000       32.256   0.100E-07
     TRS4 it   6 1.00000000   0.869E-02       0.000       32.256   0.100E-07
     TRS4 it   7 1.00000000   0.191E-03       0.000       32.256   0.100E-07
     TRS4 it   8 1.00000000   0.131E-06       0.000       32.256   0.100E-07
     TRS4 it   9 1.00000000   0.737E-13       0.000       32.256   0.100E-07
     Final TRS4 iteration    9 1.00000000   0.737E-13
     Chemical potential (mu):       0.01064
 
 PAO| energy:  -7.8130794814303632      penalty:   1.3167910368823314E-005
 PAO|LS| adapt:  T T T
 PAO|LS| adapt: scan_steps:    0.0000000000000000       0.44454384500135774       0.88908769000271548     
 PAO|LS| adapt: energies:   -7.8130800091475026       -7.8131298952043293       -7.8130794814303632     
 PAO|LS| adapt: suggested step_size:   0.44337438437349735     
 PAO|LS| adapt: predicted energy  -7.8131298955513948     
 PAO| ======================= Iteration:        25 =============================

     Lanczos converged:  T threshold:   0.100E-02
     Est. extremal eigenvalues:    0.276E+01   0.181E+00
     Est. condition number :    0.152E+02

 Order=           3
     NS sqrt iter    1 1.00000000   0.706E+00       0.001       64.512
     NS sqrt iter    2 1.00000000   0.330E+00       0.001      110.592
     NS sqrt iter    3 1.00000000   0.755E-01       0.001      110.592
     NS sqrt iter    4 1.00000000   0.182E-02       0.001      110.592
     NS sqrt iter    5 1.00000000   0.521E-07       0.001       72.448
     Symmetrizing Results
     Final NS sqrt iter    5 1.00000000   0.462E-09

     Est. extremal eigenvalues     -0.93806     1.69400  converged:  T
     TRS4 it   1 1.00000000   0.869E+00       0.000       16.128   0.100E-07
     TRS4 it   2 1.00000000   0.615E+00       0.000       32.256   0.100E-07
     TRS4 it   3 1.00000000   0.420E+00       0.000       32.256   0.100E-07
     TRS4 it   4 1.00000000   0.213E+00       0.000       32.256   0.100E-07
     TRS4 it   5 1.00000000   0.678E-01       0.000       32.256   0.100E-07
     TRS4 it   6 1.00000000   0.866E-02       0.000       32.256   0.100E-07
     TRS4 it   7 1.00000000   0.190E-03       0.000       32.256   0.100E-07
     TRS4 it   8 1.00000000   0.128E-06       0.000       32.256   0.100E-07
     TRS4 it   9 1.00000000   0.707E-13       0.000       32.256   0.100E-07
     Final TRS4 iteration    9 1.00000000   0.707E-13
     Chemical potential (mu):       0.01096
 
 PAO| energy:  -7.8131298951308450      penalty:   1.3823782413551995E-005
 PAO|CG| trace_G_new    8.0587557521428281E-005
 PAO|CG| trace_G_prev    2.2374582922217939E-004
 PAO|CG| trace_G_mix    7.1987739543487173E-007
 PAO|CG| trace_D    3.1593874853647362E-004
 PAO|CG| trace_D_Gnew  -3.5967473875469765E-007
 PAO|CG| beta:   0.35695717950874017     
 PAO| norm of gradient:   8.9770572862953417E-003
 PAO| energy improvement:  -4.9885983342434770E-005
 PAO| step     25                   -7.813129895  0.561E-03  0.443E+00     0.037
 PAO|LS| adapt:  T F F
 PAO|LS| adapt: scan_steps:    0.0000000000000000        0.0000000000000000        0.0000000000000000     
 PAO|LS| adapt: energies:   -7.8131298951308450        0.0000000000000000        0.0000000000000000     
 PAO| ======================= Iteration:        26 =============================

     Lanczos converged:  T threshold:   0.100E-02
     Est. extremal eigenvalues:    0.276E+01   0.182E+00
     Est. condition number :    0.152E+02

 Order=           3
     NS sqrt iter    1 1.00000000   0.705E+00       0.001       64.512
     NS sqrt iter    2 1.00000000   0.330E+00       0.001      110.592
     NS sqrt iter    3 1.00000000   0.753E-01       0.001      110.592
     NS sqrt iter    4 1.00000000   0.182E-02       0.001      110.592
     NS sqrt iter    5 1.00000000   0.516E-07       0.001       72.448
     Symmetrizing Results
     Final NS sqrt iter    5 1.00000000   0.454E-09

     Est. extremal eigenvalues     -0.93806     1.69340  converged:  T
     TRS4 it   1 1.00000000   0.869E+00       0.000       16.128   0.100E-07
     TRS4 it   2 1.00000000   0.615E+00       0.000       32.256   0.100E-07
     TRS4 it   3 1.00000000   0.420E+00       0.000       32.256   0.100E-07
     TRS4 it   4 1.00000000   0.213E+00       0.000       32.256   0.100E-07
     TRS4 it   5 1.00000000   0.677E-01       0.000       32.256   0.100E-07
     TRS4 it   6 1.00000000   0.863E-02       0.000       32.256   0.100E-07
     TRS4 it   7 1.00000000   0.188E-03       0.000       32.256   0.100E-07
     TRS4 it   8 1.00000000   0.126E-06       0.000       32.256   0.100E-07
     TRS4 it   9 1.00000000   0.682E-13       0.000       32.256   0.100E-07
     Final TRS4 iteration    9 1.00000000   0.682E-13
     Chemical potential (mu):       0.01108
 
 PAO| energy:  -7.8131340656658352      penalty:   1.3098164027743711E-005
 PAO|LS| adapt:  T T F
 PAO|LS| adapt: scan_steps:    0.0000000000000000       0.44337438437349735        0.0000000000000000     
 PAO|LS| adapt: energies:   -7.8131298951308450       -7.8131340656658352        0.0000000000000000     
 PAO| ======================= Iteration:        27 =============================

     Lanczos converged:  T threshold:   0.100E-02
     Est. extremal eigenvalues:    0.276E+01   0.182E+00
     Est. condition number :    0.152E+02

 Order=           3
     NS sqrt iter    1 1.00000000   0.705E+00       0.001       64.512
     NS sqrt iter    2 1.00000000   0.330E+00       0.001      110.592
     NS sqrt iter    3 1.00000000   0.752E-01       0.001      110.592
     NS sqrt iter    4 1.00000000   0.181E-02       0.001      110.592
     NS sqrt iter    5 1.00000000   0.511E-07       0.001       72.448
     Symmetrizing Results
     Final NS sqrt iter    5 1.00000000   0.447E-09

     Est. extremal eigenvalues     -0.93806     1.69280  converged:  T
     TRS4 it   1 1.00000000   0.868E+00       0.000       16.128   0.100E-07
     TRS4 it   2 1.00000000   0.615E+00       0.000       32.256   0.100E-07
     TRS4 it   3 1.00000000   0.419E+00       0.000       32.256   0.100E-07
     TRS4 it   4 1.00000000   0.213E+00       0.000       32.256   0.100E-07
     TRS4 it   5 1.00000000   0.676E-01       0.000       32.256   0.100E-07
     TRS4 it   6 1.00000000   0.861E-02       0.000       32.256   0.100E-07
     TRS4 it   7 1.00000000   0.187E-03       0.000       32.256   0.100E-07
     TRS4 it   8 1.00000000   0.124E-06       0.000       32.256   0.100E-07
     TRS4 it   9 1.00000000   0.662E-13       0.000       32.256   0.100E-07
     Final TRS4 iteration    9 1.00000000   0.662E-13
     Chemical potential (mu):       0.01121
 
 PAO| energy:  -7.8130748952942044      penalty:   1.2396524030920024E-005
 PAO|LS| adapt:  T T T
 PAO|LS| adapt: scan_steps:    0.0000000000000000       0.44337438437349735       0.88674876874699471     
 PAO|LS| adapt: energies:   -7.8131298951308450       -7.8131340656658352       -7.8130748952942044     
 PAO|LS| adapt: suggested step_size:   0.25088014951003962     
 PAO|LS| adapt: predicted energy  -7.8131400353112657     
 PAO| ======================= Iteration:        28 =============================

     Lanczos converged:  T threshold:   0.100E-02
     Est. extremal eigenvalues:    0.276E+01   0.181E+00
     Est. condition number :    0.152E+02

 Order=           3
     NS sqrt iter    1 1.00000000   0.705E+00       0.001       64.512
     NS sqrt iter    2 1.00000000   0.330E+00       0.001      110.592
     NS sqrt iter    3 1.00000000   0.754E-01       0.001      110.592
     NS sqrt iter    4 1.00000000   0.182E-02       0.001      110.592
     NS sqrt iter    5 1.00000000   0.518E-07       0.001       72.448
     Symmetrizing Results
     Final NS sqrt iter    5 1.00000000   0.458E-09

     Est. extremal eigenvalues     -0.93806     1.69366  converged:  T
     TRS4 it   1 1.00000000   0.869E+00       0.000       16.128   0.100E-07
     TRS4 it   2 1.00000000   0.615E+00       0.000       32.256   0.100E-07
     TRS4 it   3 1.00000000   0.420E+00       0.000       32.256   0.100E-07
     TRS4 it   4 1.00000000   0.213E+00       0.000       32.256   0.100E-07
     TRS4 it   5 1.00000000   0.677E-01       0.000       32.256   0.100E-07
     TRS4 it   6 1.00000000   0.865E-02       0.000       32.256   0.100E-07
     TRS4 it   7 1.00000000   0.189E-03       0.000       32.256   0.100E-07
     TRS4 it   8 1.00000000   0.126E-06       0.000       32.256   0.100E-07
     TRS4 it   9 1.00000000   0.688E-13       0.000       32.256   0.100E-07
     Final TRS4 iteration    9 1.00000000   0.688E-13
     Chemical potential (mu):       0.01103
 
 PAO| energy:  -7.8131400259021841      penalty:   1.3410231574266614E-005
 PAO|CG| trace_G_new    3.2546511450163176E-005
 PAO|CG| trace_G_prev    8.0587557521428281E-005
 PAO|CG| trace_G_mix    5.2920754412443697E-008
 PAO|CG| trace_D    1.2110075316570156E-004
 PAO|CG| trace_D_Gnew  -2.6078369454132736E-008
 PAO|CG| beta:   0.40320853113224914     
 PAO| norm of gradient:   5.7049549910725130E-003
 PAO| energy improvement:  -1.0130771339156297E-005
 PAO| step     28                   -7.813140026  0.357E-03  0.251E+00     0.037
 PAO|LS| adapt:  T F F
 PAO|LS| adapt: scan_steps:    0.0000000000000000        0.0000000000000000        0.0000000000000000     
 PAO|LS| adapt: energies:   -7.8131400259021841        0.0000000000000000        0.0000000000000000     
 PAO| ======================= Iteration:        29 =============================

     Lanczos converged:  T threshold:   0.100E-02
     Est. extremal eigenvalues:    0.276E+01   0.182E+00
     Est. condition number :    0.152E+02

 Order=           3
     NS sqrt iter    1 1.00000000   0.705E+00       0.001       64.512
     NS sqrt iter    2 1.00000000   0.330E+00       0.001      110.592
     NS sqrt iter    3 1.00000000   0.753E-01       0.001      110.592
     NS sqrt iter    4 1.00000000   0.182E-02       0.001      110.592
     NS sqrt iter    5 1.00000000   0.516E-07       0.001       72.448
     Symmetrizing Results
     Final NS sqrt iter    5 1.00000000   0.454E-09

     Est. extremal eigenvalues     -0.93806     1.69346  converged:  T
     TRS4 it   1 1.00000000   0.869E+00       0.000       16.128   0.100E-07
     TRS4 it   2 1.00000000   0.615E+00       0.000       32.256   0.100E-07
     TRS4 it   3 1.00000000   0.420E+00       0.000       32.256   0.100E-07
     TRS4 it   4 1.00000000   0.213E+00       0.000       32.256   0.100E-07
     TRS4 it   5 1.00000000   0.676E-01       0.000       32.256   0.100E-07
     TRS4 it   6 1.00000000   0.862E-02       0.000       32.256   0.100E-07
     TRS4 it   7 1.00000000   0.188E-03       0.000       32.256   0.100E-07
     TRS4 it   8 1.00000000   0.125E-06       0.000       32.256   0.100E-07
     TRS4 it   9 1.00000000   0.662E-13       0.000       32.256   0.100E-07
     Final TRS4 iteration    9 1.00000000   0.662E-13
     Chemical potential (mu):       0.01116
 
 PAO| energy:  -7.8131472044646317      penalty:   1.2974820259447479E-005
 PAO|LS| adapt:  T T F
 PAO|LS| adapt: scan_steps:    0.0000000000000000       0.25088014951003962        0.0000000000000000     
 PAO|LS| adapt: energies:   -7.8131400259021841       -7.8131472044646317        0.0000000000000000     
 PAO| ======================= Iteration:        30 =============================

     Lanczos converged:  T threshold:   0.100E-02
     Est. extremal eigenvalues:    0.276E+01   0.182E+00
     Est. condition number :    0.152E+02

 Order=           3
     NS sqrt iter    1 1.00000000   0.705E+00       0.001       64.512
     NS sqrt iter    2 1.00000000   0.330E+00       0.001      110.592
     NS sqrt iter    3 1.00000000   0.752E-01       0.001      110.592
     NS sqrt iter    4 1.00000000   0.181E-02       0.001      110.592
     NS sqrt iter    5 1.00000000   0.514E-07       0.001       72.448
     Symmetrizing Results
     Final NS sqrt iter    5 1.00000000   0.450E-09

     Est. extremal eigenvalues     -0.93807     1.69325  converged:  T
     TRS4 it   1 1.00000000   0.869E+00       0.000       16.128   0.100E-07
     TRS4 it   2 1.00000000   0.615E+00       0.000       32.256   0.100E-07
     TRS4 it   3 1.00000000   0.419E+00       0.000       32.256   0.100E-07
     TRS4 it   4 1.00000000   0.213E+00       0.000       32.256   0.100E-07
     TRS4 it   5 1.00000000   0.675E-01       0.000       32.256   0.100E-07
     TRS4 it   6 1.00000000   0.860E-02       0.000       32.256   0.100E-07
     TRS4 it   7 1.00000000   0.186E-03       0.000       32.256   0.100E-07
     TRS4 it   8 1.00000000   0.123E-06       0.000       32.256   0.100E-07
     TRS4 it   9 1.00000000   0.653E-13       0.000       32.256   0.100E-07
     Final TRS4 iteration    9 1.00000000   0.653E-13
     Chemical potential (mu):       0.01131
 
 PAO| energy:  -7.8131524047119800      penalty:   1.2547441673055324E-005
 PAO|LS| adapt:  T T F
 PAO|LS| adapt: scan_steps:    0.0000000000000000       0.50176029902007924        0.0000000000000000     
 PAO|LS| adapt: energies:   -7.8131400259021841       -7.8131524047119800        0.0000000000000000     
 PAO| ======================= Iteration:        31 =============================

     Lanczos converged:  T threshold:   0.100E-02
     Est. extremal eigenvalues:    0.276E+01   0.182E+00
     Est. condition number :    0.152E+02

 Order=           3
     NS sqrt iter    1 1.00000000   0.705E+00       0.001       64.512
     NS sqrt iter    2 1.00000000   0.330E+00       0.001      110.592
     NS sqrt iter    3 1.00000000   0.751E-01       0.001      110.592
     NS sqrt iter    4 1.00000000   0.181E-02       0.001      110.592
     NS sqrt iter    5 1.00000000   0.510E-07       0.001       72.192
     Symmetrizing Results
     Final NS sqrt iter    5 1.00000000   0.436E-09

     Est. extremal eigenvalues     -0.93807     1.69284  converged:  T
     TRS4 it   1 1.00000000   0.869E+00       0.000       16.128   0.100E-07
     TRS4 it   2 1.00000000   0.615E+00       0.000       32.256   0.100E-07
     TRS4 it   3 1.00000000   0.419E+00       0.000       32.256   0.100E-07
     TRS4 it   4 1.00000000   0.212E+00       0.000       32.256   0.100E-07
     TRS4 it   5 1.00000000   0.673E-01       0.000       32.256   0.100E-07
     TRS4 it   6 1.00000000   0.855E-02       0.000       32.256   0.100E-07
     TRS4 it   7 1.00000000   0.184E-03       0.000       32.256   0.100E-07
     TRS4 it   8 1.00000000   0.119E-06       0.000       32.256   0.100E-07
     TRS4 it   9 1.00000000   0.605E-13       0.000       32.256   0.100E-07
     Final TRS4 iteration    9 1.00000000   0.605E-13
     Chemical potential (mu):       0.01158
 
 PAO| energy:  -7.8131568716585331      penalty:   1.1716614421819467E-005
 PAO|LS| Need extra step
 PAO|LS| adapt:  T T F
 PAO|LS| adapt: scan_steps:    0.0000000000000000        1.0035205980401585        0.0000000000000000     
 PAO|LS| adapt: energies:   -7.8131400259021841       -7.8131568716585331        0.0000000000000000     
 PAO| ======================= Iteration:        32 =============================

     Lanczos converged:  T threshold:   0.100E-02
     Est. extremal eigenvalues:    0.276E+01   0.182E+00
     Est. condition number :    0.152E+02

 Order=           3
[...]
     TRS4 it   3 1.00000000   0.455E+00       0.000       32.256   0.100E-07
     TRS4 it   4 1.00000000   0.279E+00       0.000       32.256   0.100E-07
     TRS4 it   5 1.00000000   0.138E+00       0.000       32.256   0.100E-07
     TRS4 it   6 1.00000000   0.441E-01       0.000       32.256   0.100E-07
     TRS4 it   7 1.00000000   0.629E-02       0.000       32.256   0.100E-07
     TRS4 it   8 1.00000000   0.169E-03       0.000       32.256   0.100E-07
     TRS4 it   9 1.00000000   0.129E-06       0.000       32.256   0.100E-07
     TRS4 it  10 1.00000000   0.750E-13       0.000       32.256   0.100E-07
     Final TRS4 iteration   10 1.00000000   0.750E-13
     Chemical potential (mu):      -0.07796
 
 PAO| energy:  -7.8124049258639126      penalty:   2.6256789468163948E-008
 PAO|CG| warming up with steepest descent
 PAO|CG| beta:    0.0000000000000000     
 PAO| norm of gradient:   1.2564092890402870E-004
 PAO| energy improvement:  -5.5980668989263904E-009
 PAO| step    430                   -7.812404926  0.785E-05  0.262E+00     0.047
 PAO| converged after          430  steps :-)
 PAO| Recalculating energy after mixing.

     Lanczos converged:  T threshold:   0.100E-02
     Est. extremal eigenvalues:    0.251E+01   0.190E+00
     Est. condition number :    0.132E+02

 Order=           3
     NS sqrt iter    1 1.00000000   0.637E+00       0.001       64.512
     NS sqrt iter    2 1.00000000   0.277E+00       0.001      110.592
     NS sqrt iter    3 1.00000000   0.489E-01       0.001      110.592
     NS sqrt iter    4 1.00000000   0.792E-03       0.001      110.592
     NS sqrt iter    5 1.00000000   0.657E-08       0.001       38.272
     Symmetrizing Results
     Final NS sqrt iter    5 1.00000000   0.381E-09

     Est. extremal eigenvalues     -0.93775     1.62840  converged:  T
     TRS4 it   1 1.00000000   0.877E+00       0.000       16.128   0.100E-07
     TRS4 it   2 1.00000000   0.632E+00       0.000       32.256   0.100E-07
     TRS4 it   3 1.00000000   0.455E+00       0.000       32.256   0.100E-07
     TRS4 it   4 1.00000000   0.279E+00       0.000       32.256   0.100E-07
     TRS4 it   5 1.00000000   0.138E+00       0.000       32.256   0.100E-07
     TRS4 it   6 1.00000000   0.441E-01       0.000       32.256   0.100E-07
     TRS4 it   7 1.00000000   0.629E-02       0.000       32.256   0.100E-07
     TRS4 it   8 1.00000000   0.169E-03       0.000       32.256   0.100E-07
     TRS4 it   9 1.00000000   0.129E-06       0.000       32.256   0.100E-07
     TRS4 it  10 1.00000000   0.753E-13       0.000       32.256   0.100E-07
     Final TRS4 iteration   10 1.00000000   0.753E-13
     Chemical potential (mu):      -0.07796
 
 PAO| energy:  -7.8124049244643778      penalty:   2.6535265498292483E-008
 PAO| Writing restart file.
     Est. extremal eigenvalues     -0.93775     1.62840  converged:  T
     TRS4 it   1 1.00000000   0.877E+00       0.000       16.128   0.100E-07
     TRS4 it   2 1.00000000   0.632E+00       0.000       32.256   0.100E-07
     TRS4 it   3 1.00000000   0.455E+00       0.000       32.256   0.100E-07
     TRS4 it   4 1.00000000   0.279E+00       0.000       32.256   0.100E-07
     TRS4 it   5 1.00000000   0.138E+00       0.000       32.256   0.100E-07
     TRS4 it   6 1.00000000   0.441E-01       0.000       32.256   0.100E-07
     TRS4 it   7 1.00000000   0.629E-02       0.000       32.256   0.100E-07
     TRS4 it   8 1.00000000   0.169E-03       0.000       32.256   0.100E-07
     TRS4 it   9 1.00000000   0.129E-06       0.000       32.256   0.100E-07
     TRS4 it  10 1.00000000   0.753E-13       0.000       32.256   0.100E-07
     Final TRS4 iteration   10 1.00000000   0.753E-13
     Chemical potential (mu):      -0.07796

 SCF     1       -34.449773820       -34.449773820    0.961625

*********************************************************
 Using MIXING_FRACTION=0.450 to mix KS matrix:  iscf=  2
 KS_nw=0.450*KS + 0.550*KS_old
*********************************************************
     Est. extremal eigenvalues     -0.93776     1.62840  converged:  T
     TRS4 it   1 1.00000000   0.877E+00       0.000       16.128   0.100E-07
     TRS4 it   2 1.00000000   0.632E+00       0.000       32.256   0.100E-07
     TRS4 it   3 1.00000000   0.455E+00       0.000       32.256   0.100E-07
     TRS4 it   4 1.00000000   0.279E+00       0.000       32.256   0.100E-07
     TRS4 it   5 1.00000000   0.138E+00       0.000       32.256   0.100E-07
     TRS4 it   6 1.00000000   0.441E-01       0.000       32.256   0.100E-07
     TRS4 it   7 1.00000000   0.629E-02       0.000       32.256   0.100E-07
     TRS4 it   8 1.00000000   0.169E-03       0.000       32.256   0.100E-07
     TRS4 it   9 1.00000000   0.129E-06       0.000       32.256   0.100E-07
     TRS4 it  10 1.00000000   0.744E-13       0.000       32.256   0.100E-07
     Final TRS4 iteration   10 1.00000000   0.744E-13
     Chemical potential (mu):      -0.07795

 SCF     2       -34.449773820        -0.000000000    0.967158


 SCF run converged in     2 steps.

 PAO| Storing density matrix for ASPC guess in slot:           1

 ENERGY| Total FORCE_EVAL ( QS ) energy [a.u.]:              -34.449773819772162

 -------------------------------------------------------------------------------
 -                                                                             -
 -                                DBCSR STATISTICS                             -
 -                                                                             -
 -------------------------------------------------------------------------------
 COUNTER                                    TOTAL       BLAS       SMM       ACC
 flops     5 x     5 x     4                20000       0.0%    100.0%      0.0%
 flops    13 x     5 x     4                20800       0.0%    100.0%      0.0%
 flops     5 x    13 x     4                20800       0.0%    100.0%      0.0%
 flops    13 x    13 x     4                40560       0.0%    100.0%      0.0%
 flops     4 x     4 x     5              3375360       0.0%    100.0%      0.0%
 flops     5 x     4 x     5              4118400       0.0%    100.0%      0.0%
 flops     4 x     4 x    13              4387968       0.0%    100.0%      0.0%
 flops    13 x     4 x     5              5353920       0.0%    100.0%      0.0%
 flops     5 x     4 x    13              5353920       0.0%    100.0%      0.0%
 flops     5 x     4 x     4              6496960       0.0%    100.0%      0.0%
 flops    13 x     4 x    13              6960096       0.0%    100.0%      0.0%
 flops    13 x     4 x     4              8616192       0.0%    100.0%      0.0%
 flops     4 x     4 x     4            437170432       0.0%    100.0%      0.0%
 flops inhomo. stacks                           0       0.0%      0.0%      0.0%
 flops total                       481.935408E+06       0.0%    100.0%      0.0%
 flops max/rank                    481.935408E+06       0.0%    100.0%      0.0%
 matmuls inhomo. stacks                         0       0.0%      0.0%      0.0%
 matmuls total                            3554898       0.0%    100.0%      0.0%
 number of processed stacks                 28331       0.0%    100.0%      0.0%
 average stack size                                     0.0     125.5       0.0
 marketing flops                   784.168896E+06
 -------------------------------------------------------------------------------
 # multiplications                          23706
 max memory usage/rank             504.131584E+06
 # max total images/rank                        1
 # max 3D layers                                1
 # MPI messages exchanged                       0
 -------------------------------------------------------------------------------

 -------------------------------------------------------------------------------
 -                                                                             -
 -                                DBM STATISTICS                               -
 -                                                                             -
 -------------------------------------------------------------------------------
    M  x    N  x    K                                          COUNT     PERCENT
 -------------------------------------------------------------------------------

 -------------------------------------------------------------------------------
 -                                                                             -
 -                                GRID STATISTICS                              -
 -                                                                             -
 -------------------------------------------------------------------------------
 LP    KERNEL             BACKEND                              COUNT     PERCENT
 2     collocate ortho    REF                                  38160      30.82%
 2     integrate ortho    REF                                  38160      30.82%
 3     collocate ortho    REF                                  19520      15.77%
 3     integrate ortho    REF                                  19520      15.77%
 4     collocate ortho    REF                                   4220       3.41%
 4     integrate ortho    REF                                   4220       3.41%
 0     collocate general  REF                                      6       0.00%
 -------------------------------------------------------------------------------

 MEMORY| Estimated peak process memory [MiB]                                 481

 -------------------------------------------------------------------------------
 -                                                                             -
 -                           R E F E R E N C E S                               -
 -                                                                             -
 -------------------------------------------------------------------------------
 
 CP2K version 2023.1 (Development Version), the CP2K developers group (2023).
 CP2K is freely available from https://www.cp2k.org/ .

 Kuehne,Thomas D.; Iannuzzi,Marcella; Del Ben,Mauro;
 Rybkin,Vladimir V.; Seewald,Patrick; Stein,Frederick; Laino,Teodoro;
 Khaliullin,Rustam Z.; Schuett,Ole; Schiffmann,Florian; Golze,Dorothea;
 Wilhelm,Jan; Chulkov,Sergey; Bani-Hashemian,Mohammad Hossein;
 Weber,Valery; Borstnik,Urban; Taillefumier,Mathieu;
 Jakobovits,Alice Shoshana; Lazzaro,Alfio; Pabst,Hans; Mueller,Tiziano;
 Schade,Robert; Guidon,Manuel; Andermatt,Samuel; Holmberg,Nico;
 Schenter,Gregory K.; Hehn,Anna; Bussy,Augustin; Belleflamme,Fabian;
 Tabacchi,Gloria; Gloess,Andreas; Lass,Michael; Bethune,Iain;
 Mundy,Christopher J.; Plessl,Christian; Watkins,Matt;
 VandeVondele,Joost; Krack,Matthias; Hutter,Juerg. 
 The Journal of Chemical Physics, 152 (19), (2020). 
 CP2K: An electronic structure and molecular dynamics software package -
 Quickstep: Efficient and accurate electronic structure calculations.
 https://doi.org/10.1063/5.0007045

 Schuett, O; VandeVondele, J. 
 Journal of Chemical Theory and Computation, 14, (2018). 
 Machine Learning Adaptive Basis Sets for Efficient Large Scale
 Density Functional Theory Simulation.
 https://doi.org/10.1021/acs.jctc.8b00378

 Schuett, Ole; Messmer, Peter; Hutter, Juerg; VandeVondele, Joost. 
 Electronic Structure Calculations on Graphics Processing Units, John
 Wiley & Sons, Ltd, 173-190 (2016). 
 GPU-Accelerated Sparse Matrix-Matrix Multiplication for
 Linear Scaling Density Functional Theory.
 https://doi.org/10.1002/9781118670712.ch8

 Heinecke, A; Henry, G; Hutchinson, M; Pabst, H. 
 Proceedings of Intl. Supercomputing Conference, 981-991 (2016). 
 LIBXSMM: Accelerating Small Matrix Multiplications
 by Runtime Code Generation.
 https://doi.org/10.1109/SC.2016.83

 Borstnik, U; VandeVondele, J; Weber, V; Hutter, J. 
 PARALLEL COMPUTING, 40 (5-6), 47-58 (2014). 
 Sparse matrix multiplication: The distributed block-compressed sparse
 row library.
 https://doi.org/10.1016/j.parco.2014.03.012

 Hutter, J; Iannuzzi, M; Schiffmann, F; VandeVondele, J. 
 WIREs Comput Mol Sci., 4 (1), 15-25 (2014). 
 CP2K: atomistic simulations of condensed matter systems.
 https://doi.org/10.1002/wcms.1159

 VandeVondele, J; Borstnik, U; Hutter, J. 
 JOURNAL OF CHEMICAL THEORY AND COMPUTATION, 8 (10), 3565-3573 (2012). 
 Linear Scaling Self-Consistent Field Calculations with Millions of Atoms
 in the Condensed Phase.
 https://doi.org/10.1021/ct200897x

 VandeVondele, J; Hutter, J. 
 JOURNAL OF CHEMICAL PHYSICS, 127 (11), 114105 (2007). 
 Gaussian basis sets for accurate calculations on molecular systems in
 gas and condensed phases.
 https://doi.org/10.1063/1.2770708

 Krack, M. 
 THEORETICAL CHEMISTRY ACCOUNTS, 114 (1-3), 145-152 (2005). 
 Pseudopotentials for H to Kr optimized for gradient-corrected
 exchange-correlation functionals.
 https://doi.org/10.1007/s00214-005-0655-y

 VandeVondele, J; Krack, M; Mohamed, F; Parrinello, M; Chassaing, T;
 Hutter, J. COMPUTER PHYSICS COMMUNICATIONS, 167 (2), 103-128 (2005). 
 QUICKSTEP: Fast and accurate density functional calculations using a
 mixed Gaussian and plane waves approach.
 https://doi.org/10.1016/j.cpc.2004.12.014

 Frigo, M; Johnson, SG. 
 PROCEEDINGS OF THE IEEE, 93 (2), 216-231 (2005). 
 The design and implementation of FFTW3.
 https://doi.org/10.1109/JPROC.2004.840301

 Niklasson, AMN; Tymczak, CJ; Challacombe, M. 
 JOURNAL OF CHEMICAL PHYSICS, 118 (19), 8611-8620 (2003). 
 Trace resetting density matrix purification in O(N)
 self-consistent-field theory.
 https://doi.org/10.1063/1.1559913

 Hartwigsen, C; Goedecker, S; Hutter, J. 
 PHYSICAL REVIEW B, 58 (7), 3641-3662 (1998). 
 Relativistic separable dual-space Gaussian pseudopotentials from H to Rn.
 https://doi.org/10.1103/PhysRevB.58.3641

 Lippert, G; Hutter, J; Parrinello, M. 
 MOLECULAR PHYSICS, 92 (3), 477-487 (1997). 
 A hybrid Gaussian and plane wave density functional scheme.
 https://doi.org/10.1080/002689797170220

 Perdew, JP; Burke, K; Ernzerhof, M. 
 PHYSICAL REVIEW LETTERS, 77 (18), 3865-3868 (1996). 
 Generalized gradient approximation made simple.
 https://doi.org/10.1103/PhysRevLett.77.3865

 Goedecker, S; Teter, M; Hutter, J. 
 PHYSICAL REVIEW B, 54 (3), 1703-1710 (1996). 
 Separable dual-space Gaussian pseudopotentials.
 https://doi.org/10.1103/PhysRevB.54.1703


 -------------------------------------------------------------------------------
 -                                                                             -
 -                                T I M I N G                                  -
 -                                                                             -
 -------------------------------------------------------------------------------
 SUBROUTINE                       CALLS  ASD         SELF TIME        TOTAL TIME
                                MAXIMUM       AVERAGE  MAXIMUM  AVERAGE  MAXIMUM
 CP2K                                 1  1.0    0.028    0.028   27.956   27.956
 qs_energies                          1  2.0    0.000    0.000   27.580   27.580
 ls_scf                               1  3.0    0.000    0.000   27.461   27.461
 ls_scf_main                          4  4.0    0.001    0.001   17.154   17.154
 ls_scf_dm_to_ks                      9  5.0    0.000    0.000   17.071   17.071
 qs_ks_update_qs_env                 10  6.0    0.000    0.000   14.463   14.463
 rebuild_ks_matrix                   10  7.0    0.000    0.000   14.462   14.462
 qs_ks_build_kohn_sham_matrix        10  8.0    0.002    0.002   14.462   14.462
 qs_vxc_create                       10  9.0    0.000    0.000    8.449    8.449
 xc_vxc_pw_create                    10 10.0    0.129    0.129    8.448    8.448
 pao_update                           4  4.0    0.009    0.009    8.161    8.161
 pao_calc_energy                    433  5.0    0.003    0.003    7.399    7.399
 pw_transfer                        191 11.1    0.018    0.018    6.950    6.950
 fft_wrap_pw1pw2                    171 12.3    0.002    0.002    6.761    6.761
 fft_wrap_pw1pw2_200                111 13.7    0.628    0.628    6.571    6.571
 dbcsr_multiply_generic           23706  8.4    0.367    0.367    5.812    5.812
 sum_up_and_integrate                10  9.0    0.116    0.116    4.823    4.823
 xc_rho_set_and_dset_create          10 11.0    0.127    0.127    4.815    4.815
 qs_rho_update_rho_low               10  6.0    0.000    0.000    4.717    4.717
 calculate_rho_elec                  10  7.0    0.035    0.035    4.717    4.717
 integrate_v_rspace                  10 10.0    0.001    0.001    4.707    4.707
 xc_pw_derive                        60 12.0    0.001    0.001    4.694    4.694
 pao_dm_trs4                        433  6.0    0.003    0.003    3.875    3.875
 grid_integrate_task_list            10 11.0    3.867    3.867    3.867    3.867
 density_matrix_trs4                442  7.0    0.127    0.127    3.725    3.725
 ls_scf_init_matrix_S               437  7.0    0.003    0.003    3.488    3.488
 pao_rebuild_S                      433  6.0    0.002    0.002    3.466    3.466
 xc_pw_divergence                    10 11.0    0.001    0.001    3.408    3.408
 grid_collocate_task_list            10  8.0    3.311    3.311    3.311    3.311
 matrix_sqrt_Newton_Schulz          437  8.0    0.089    0.089    3.147    3.147
 fft3d_s                            172 14.2    2.895    2.895    2.908    2.908
 xc_functional_eval                  10 12.0    0.000    0.000    2.360    2.360
 pbe_lda_eval                        10 13.0    2.360    2.360    2.360    2.360
 make_m2s                         47412  9.4    0.139    0.139    2.179    2.179
 multiply_cannon                  23706  9.4    0.892    0.892    2.169    2.169
 pao_guess_initial_P                  1  4.0    0.000    0.000    2.113    2.113
 pao_read_preopt_dm                   1  5.0    0.000    0.000    2.113    2.113
 make_images                      47412 10.4    0.536    0.536    1.931    1.931
 pw_gather_s                         81 13.8    1.748    1.748    1.748    1.748
 pw_scatter_s                        90 14.7    1.458    1.458    1.458    1.458
 density_rs2pw                       10  8.0    0.001    0.001    1.372    1.372
 arnoldi_extremal                   879  8.5    0.004    0.004    1.165    1.165
 arnoldi_normal_ev                  879  9.5    0.011    0.011    1.161    1.161
 build_subspace                     879 10.5    0.047    0.047    0.899    0.899
 pw_derive                           60 13.0    0.882    0.882    0.882    0.882
 potential_pw2rs                     10 11.0    0.002    0.002    0.840    0.840
 dbcsr_matrix_vector_mult         21085 11.5    0.096    0.096    0.834    0.834
 pao_calc_AB                        570  5.8    0.001    0.001    0.759    0.759
 pao_calc_AB_equi                   570  6.8    0.026    0.026    0.758    0.758
 pao_calc_grad_lnv_wrt_AB           136  7.0    0.006    0.006    0.676    0.676
 dbcsr_finalize                   57226  9.6    0.130    0.130    0.650    0.650
 pw_copy                            120 11.8    0.622    0.622    0.622    0.622
 dbcsr_create_new                181991 10.7    0.382    0.382    0.608    0.608
 multiply_cannon_loop             23706 10.4    0.074    0.074    0.578    0.578
 -------------------------------------------------------------------------------

 The number of warnings for this run is : 0
 
 -------------------------------------------------------------------------------
  **** **** ******  **  PROGRAM ENDED AT                 2023-02-01 10:45:47.775
 ***** ** ***  *** **   PROGRAM RAN ON                                    moritz
 **    ****   ******    PROGRAM RAN BY                                       ole
 ***** **    ** ** **   PROGRAM PROCESS ID                                148588
  **** **  *******  **  PROGRAM STOPPED IN /home/ole/git/pao_ml_equivar/2H2O_rot
                                           ations/phi_19
