6
Properties=species:S:1:pos:R:3 i=0 time=0.0 E=-34.4504806384 pbc="F F F"
O      -3.54969740      -3.36335541       4.35000000 
H      -3.21509702      -4.00032604       3.71000000 
H      -2.98979668      -2.58630703       4.25600000 
O      -6.37049098      -2.63466029       3.63500000 
H      -6.96702401      -2.82273832       4.36500000 
H      -5.49062778      -2.89719741       3.94700000 
