 DBCSR| CPU Multiplication driver                                           XSMM (U)
 DBCSR| Multrec recursion limit                                              512 (U)
 DBCSR| Multiplication stack size                                           1000 (D)
 DBCSR| Maximum elements for images                                    UNLIMITED (U)
 DBCSR| Multiplicative factor virtual images                                   1 (U)
 DBCSR| Use multiplication densification                                       T (D)
 DBCSR| Multiplication size stacks                                             3 (U)
 DBCSR| Use memory pool for CPU allocation                                     F (U)
 DBCSR| Number of 3D layers                                               SINGLE (U)
 DBCSR| Use MPI memory allocation                                              F (U)
 DBCSR| Use RMA algorithm                                                      F (U)
 DBCSR| Use Communication thread                                               T (U)
 DBCSR| Communication thread load                                             87 (D)
 DBCSR| MPI: My process id                                                     0
 DBCSR| MPI: Number of processes                                              32
 DBCSR| OMP: Current number of threads                                         1
 DBCSR| OMP: Max number of threads                                             1
 DBCSR| Split modifier for TAS multiplication algorithm                  1.0E+00 (U)


  **** **** ******  **  PROGRAM STARTED AT               2024-09-24 01:37:30.748
 ***** ** ***  *** **   PROGRAM STARTED ON                                moritz
 **    ****   ******    PROGRAM STARTED BY                                   ole
 ***** **    ** ** **   PROGRAM PROCESS ID                                166230
  **** **  *******  **  PROGRAM STARTED IN /home/ole/git/pao_ml_equivar/64H2O_MD
                                           /Frame2700

 CP2K| version string:                 CP2K version 2024.3 (Development Version)
 CP2K| source code revision number:                                  git:3f890bb
 CP2K| cp2kflags: omp libint fftw3 libxc libgrpp pexsi elpa parallel scalapack c
 CP2K|            osma quip deepmd xsmm plumed2 spglib libdftd4 sirius libvori l
 CP2K|            libbqb libvdwxc hdf5
 CP2K| is freely available from                            https://www.cp2k.org/
 CP2K| Program compiled at                          Mo 23 Sep 2024 17:17:04 CEST
 CP2K| Program compiled on                                                moritz
 CP2K| Program compiled for                                                local
 CP2K| Data directory path                               /home/ole/git/cp2k/data
 CP2K| Input file name                                           64H2O_pao44.inp

 GLOBAL| Force Environment number                                              1
 GLOBAL| Basis set file name                                        BASIS_MOLOPT
 GLOBAL| Potential file name                                      GTH_POTENTIALS
 GLOBAL| MM Potential file name                                     MM_POTENTIAL
 GLOBAL| Coordinate file name                                         coords.xyz
 GLOBAL| Method name                                                        CP2K
 GLOBAL| Project name                                                64H2O_pao44
 GLOBAL| Run type                                                         ENERGY
 GLOBAL| FFT library                                                       FFTW3
 GLOBAL| Diagonalization library                                            ELPA
 GLOBAL| DGEMM library                                                      BLAS
 GLOBAL| Minimum number of eigenvectors for ELPA usage                        16
 GLOBAL| Orthonormality check for eigenvectors                          DISABLED
 GLOBAL| Matrix multiplication library                                     COSMA
 GLOBAL| All-to-all communication in single precision                          F
 GLOBAL| FFTs using library dependent lengths                                  F
 GLOBAL| Grid backend                                                       AUTO
 GLOBAL| Global print level                                                  LOW
 GLOBAL| MPI I/O enabled                                                       T
 GLOBAL| Total number of message passing processes                            32
 GLOBAL| Number of threads for this process                                    1
 GLOBAL| This output is from process                                           0
 GLOBAL| Stack size for threads created by OpenMP (OMP_STACKSIZE)        default
 GLOBAL| CPU model name           AMD Ryzen Threadripper 3970X 32-Core Processor
 GLOBAL| CPUID                                                              1002

 MEMORY| system memory details [Kb]
 MEMORY|                        rank 0           min           max       average
 MEMORY| MemTotal            131752136     131752136     131752136     131752136
 MEMORY| MemFree             114268956     114268956     114268956     114268956
 MEMORY| Buffers               2001304       2001304       2001304       2001304
 MEMORY| Cached                8645956       8645956       8645960       8645956
 MEMORY| Slab                  1642424       1642424       1642424       1642424
 MEMORY| SReclaimable          1144132       1144132       1144132       1144132
 MEMORY| MemLikelyFree       126060348     126060348     126060352     126060348


 GENERATE|  Preliminary Number of Bonds generated:                             0
 GENERATE|  Achieved consistency in connectivity generation.

 *******************************************************************************
 *******************************************************************************
 **                                                                           **
 **     #####                         ##              ##                      **
 **    ##   ##            ##          ##              ##                      **
 **   ##     ##                       ##            ######                    **
 **   ##     ##  ##   ##  ##   #####  ##  ##   ####   ##    #####    #####    **
 **   ##     ##  ##   ##  ##  ##      ## ##   ##      ##   ##   ##  ##   ##   **
 **   ##  ## ##  ##   ##  ##  ##      ####     ###    ##   ######   ######    **
 **    ##  ###   ##   ##  ##  ##      ## ##      ##   ##   ##       ##        **
 **     #######   #####   ##   #####  ##  ##  ####    ##    #####   ##        **
 **           ##                                                    ##        **
 **                                                                           **
 **                                                ... make the atoms dance   **
 **                                                                           **
 **            Copyright (C) by CP2K developers group (2000-2024)             **
 **                      J. Chem. Phys. 152, 194103 (2020)                    **
 **                                                                           **
 *******************************************************************************


 TOTAL NUMBERS AND MAXIMUM NUMBERS

  Total number of            - Atomic kinds:                                   2
                             - Atoms:                                        192
                             - Shell sets:                                   192
                             - Shells:                                       704
                             - Primitive Cartesian functions:               1344
                             - Cartesian basis functions:                   1536
                             - Spherical basis functions:                   1472

  Maximum angular momentum of- Orbital basis functions:                        2
                             - Local part of the GTH pseudopotential:          2
                             - Non-local part of the GTH pseudopotential:      0

 ------------------------------ Linear scaling SCF -----------------------------
 eps_scf:                                                              0.100E-07
 eps_filter:                                                           0.100E-11
 mixing_fraction:                                                      0.450E+00
 max_scf:                                                                     25
 fixed chemical potential (mu)                                                 F
 has unit metric:                                                              F
 Computing inv(S):                                                             T
 Computing sqrt(S):                                                            T
 Computing S preconditioner                                                    F
 S sqrt method:                                                     NEWTONSCHULZ
 S sqrt order:                                                                 3
 Extrapolation order:                                                          1
 S preconditioner type                                                      NONE
 Polarized Atomic Orbitals (PAO)                                               T
 Purification method                                   Trace resetting 4th order
 Cluster type                                                             ATOMIC
 Computing Chebyshev                                                       FALSE
 Using PAO                                                                     T
 -------------------------------------------------------------------------------

 
 PAO|                                  EPS_PAO                           0.5E-06
 PAO|                                  MIXING                            0.5E+00
 PAO|                                  MAX_PAO                              1500
 PAO|                                  MAX_CYCLES                           1000
 PAO|                                  PARAMETERIZATION              EQUIVARIANT
 PAO|                                  PRECONDITION                            F
 PAO|                                  REGULARIZATION                    0.0E+00
 PAO|                                  EPS_PGF                           0.1E-09
 PAO|                                  PENALTY_DISTANCE                  0.1E+00
 PAO|                                  PENALTY_STRENGTH                  0.5E-02
 PAO|                                  LINPOT_PRECONDITION_DELTA         0.0E+00
 PAO|                                  LINPOT_INITGUESS_DELT             0.0E+00
 PAO|                                  LINPOT_REGULARIZATION_DELTA       0.0E+00
 PAO|                                  LINPOT_REGULARIZATION_STRENGTH    0.0E+00
 PAO|                                  OPTIMIZER                              CG
 PAO|                                  CG_INIT_STEPS                           2
 PAO|                                  CG_RESET_LIMIT                    0.1E+00
 PAO|                                  CHECK_UNITARY_TOL                -0.1E+01
 PAO|                                  CHECK_GRADIENT_TOL               -0.1E+01
 PAO|                                  NUM_GRADIENT_ORDER                      2
 PAO|                                  NUM_GRADIENT_EPS                  0.1E-07
 PAO|                                  PRINT%RESTART%WRITE_CYCLES            100
 PAO|                                  RESTART_FILE 
 PAO|                                  PREOPT_DM_FILE 64H2O_ref_LS_DM_SPIN_1_RESTART.dm
 PAO|                                  MACHINE_LEARNING%METHOD       GAUSSIAN_PR
 PAO|                                  MACHINE_LEARNING%PRIOR               ZERO
 PAO|                                  MACHINE_LEARNING%DESCRIPTOR     POTENTIAL
 PAO|                                  MACHINE_LEARNING%TOLERANCE        0.1E-01
 PAO|                                  MACHINE_LEARNING%GP_NOISE_VAR     0.1E+00
 PAO|                                  MACHINE_LEARNING%GP_SCALE         0.5E-01
 

 Calculating atomic Fock matrix for atomic kind: O

 Electronic structure
    Total number of core electrons                                          2.00
    Total number of valence electrons                                       6.00
    Total number of electrons                                               8.00
    Multiplicity                                                   not specified
    S   [  2.00] 2.00
    P      4.00


 *******************************************************************************
                  Iteration          Convergence                     Energy [au]
 *******************************************************************************
                          1        0.708315                     -15.576645311500
                          2        0.608879                     -15.587933561584
                          3        0.102828E-01                 -15.656849565404
                          4        0.113889E-02                 -15.656866888140
                          5        0.434197E-03                 -15.656867072159
                          6        0.263771E-03                 -15.656867091904
                          7        0.478536E-06                 -15.656867103452

 Energy components [Hartree]           Total Energy ::          -15.656867103452
                                        Band Energy ::           -3.000198112285
                                     Kinetic Energy ::           11.759971203220
                                   Potential Energy ::          -27.416838306672
                                      Virial (-V/T) ::            2.331369510426
                                        Core Energy ::          -26.140716385623
                                          XC Energy ::           -3.154051012914
                                     Coulomb Energy ::           13.637900295084
                       Total Pseudopotential Energy ::          -37.935781716540
                       Local Pseudopotential Energy ::          -39.218907440693
                    Nonlocal Pseudopotential Energy ::            1.283125724153
                                        Confinement ::            0.350941276976

 Orbital energies  State     L     Occupation   Energy[a.u.]          Energy[eV]

                       1     0          2.000      -0.864471          -23.523463

                       1     1          4.000      -0.317814           -8.648154


 Total Electron Density at R=0:                                         0.000068

 Calculating atomic Fock matrix for atomic kind: H

 Electronic structure
    Total number of core electrons                                          0.00
    Total number of valence electrons                                       1.00
    Total number of electrons                                               1.00
    Multiplicity                                                   not specified
    S      1.00


 *******************************************************************************
                  Iteration          Convergence                     Energy [au]
 *******************************************************************************
                          1        0.437545E-02                  -0.424159432110
                          2        0.531356E-03                  -0.424178438213
                          3        0.259176E-06                  -0.424178722480

 Energy components [Hartree]           Total Energy ::           -0.424178722480
                                        Band Energy ::           -0.199015229016
                                     Kinetic Energy ::            0.464007633961
                                   Potential Energy ::           -0.888186356441
                                      Virial (-V/T) ::            1.914163240935
                                        Core Energy ::           -0.479160803564
                                          XC Energy ::           -0.244352904054
                                     Coulomb Energy ::            0.299334985138
                       Total Pseudopotential Energy ::           -0.962295316385
                       Local Pseudopotential Energy ::           -0.962295316385
                    Nonlocal Pseudopotential Energy ::            0.000000000000
                                        Confinement ::            0.191268788606

 Orbital energies  State     L     Occupation   Energy[a.u.]          Energy[eV]

                       1     0          1.000      -0.199015           -5.415480


 Total Electron Density at R=0:                                         0.242907
 PAO| Made initial guess for matrix_X with norm:   27.712812921102035     

     Lanczos converged:  T threshold:   0.100E-02
     Est. extremal eigenvalues:    0.621E+01   0.907E-01
     Est. condition number :    0.685E+02

 Order=           3
     NS sqrt iter    1 1.00000000   0.152E+01       0.021     2672.425
     NS sqrt iter    2 1.00000000   0.825E+00       0.034     3315.500
     NS sqrt iter    3 1.00000000   0.332E+00       0.034     3311.085
     NS sqrt iter    4 1.00000000   0.927E-01       0.034     3313.004
     NS sqrt iter    5 1.00000000   0.340E-02       0.034     3302.971
     NS sqrt iter    6 1.00000000   0.344E-06       0.030     2877.660
     Symmetrizing Results
     Final NS sqrt iter    6 1.00000000   0.223E-12

 PAO| Read restart DM 64H2O_ref_LS_DM_SPIN_1_RESTART.dm with checksum:    6112.4001296507759     
 PAO| Quickstep energy from restart density:  -1103.1309320430564     
 PAO| ======================= Iteration:         1 =============================

     Lanczos converged:  T threshold:   0.100E-02
     Est. extremal eigenvalues:    0.621E+01   0.907E-01
     Est. condition number :    0.685E+02

 Order=           3
     NS sqrt iter    1 1.00000000   0.152E+01       0.021     2668.635
     NS sqrt iter    2 1.00000000   0.825E+00       0.034     3331.465
     NS sqrt iter    3 1.00000000   0.332E+00       0.034     3327.152
     NS sqrt iter    4 1.00000000   0.927E-01       0.034     3329.780
     NS sqrt iter    5 1.00000000   0.340E-02       0.034     3336.471
     NS sqrt iter    6 1.00000000   0.344E-06       0.029     2891.166
     Symmetrizing Results
     Final NS sqrt iter    6 1.00000000   0.223E-12

     Est. extremal eigenvalues     -0.82815     2.61536  converged:  T
     TRS4 it   1 1.00000000   0.273E+02       0.007     2064.699   0.100E-11
     TRS4 it   2 1.00000000   0.236E+02       0.013     2159.292   0.100E-11
     TRS4 it   3 1.00000000   0.161E+02       0.013     2178.091   0.100E-11
     TRS4 it   4 1.00000000   0.101E+02       0.013     2181.379   0.100E-11
     TRS4 it   5 1.00000000   0.491E+01       0.013     2176.229   0.100E-11
     TRS4 it   6 1.00000000   0.166E+01       0.013     2153.091   0.100E-11
     TRS4 it   7 1.00000000   0.335E+00       0.013     2161.230   0.100E-11
     TRS4 it   8 1.00000000   0.258E-01       0.013     2158.896   0.100E-11
     TRS4 it   9 1.00000000   0.292E-03       0.013     2177.350   0.100E-11
     TRS4 it  10 1.00000000   0.578E-07       0.013     2160.446   0.100E-11
     TRS4 it  11 1.00000000   0.711E-14       0.013     2178.693   0.100E-11
     Final TRS4 iteration   11 1.00000000   0.711E-14
     Chemical potential (mu):       0.01296
 
 PAO| energy:  -186.40846851510349      penalty:   1.4723349238851537E-031
 PAO|CG| warming up with steepest descent
 PAO|CG| beta:    0.0000000000000000     
 PAO| norm of gradient:   3.9785000652454308     
 PAO|LS| adapt:  T F F
 PAO|LS| adapt: scan_steps:    0.0000000000000000        0.0000000000000000        0.0000000000000000     
 PAO|LS| adapt: energies:   -186.40846851510349        0.0000000000000000        0.0000000000000000     
 PAO| ======================= Iteration:         2 =============================

     Lanczos converged:  T threshold:   0.100E-02
     Est. extremal eigenvalues:    0.600E+01   0.975E-01
     Est. condition number :    0.615E+02

 Order=           3
     NS sqrt iter    1 1.00000000   0.147E+01       0.021     2660.528
     NS sqrt iter    2 1.00000000   0.795E+00       0.034     3330.549
     NS sqrt iter    3 1.00000000   0.311E+00       0.034     3296.299
     NS sqrt iter    4 1.00000000   0.780E-01       0.034     3356.581
     NS sqrt iter    5 1.00000000   0.213E-02       0.034     3330.582
     NS sqrt iter    6 1.00000000   0.976E-07       0.029     2895.360
     Symmetrizing Results
     Final NS sqrt iter    6 1.00000000   0.322E-13

     Est. extremal eigenvalues     -0.83156     2.61496  converged:  T
     TRS4 it   1 1.00000000   0.276E+02       0.007     2063.460   0.100E-11
     TRS4 it   2 1.00000000   0.236E+02       0.013     2194.715   0.100E-11
     TRS4 it   3 1.00000000   0.160E+02       0.013     2156.277   0.100E-11
     TRS4 it   4 1.00000000   0.991E+01       0.013     2154.321   0.100E-11
     TRS4 it   5 1.00000000   0.470E+01       0.013     2177.050   0.100E-11
     TRS4 it   6 1.00000000   0.152E+01       0.013     2174.312   0.100E-11
     TRS4 it   7 1.00000000   0.288E+00       0.013     2168.152   0.100E-11
     TRS4 it   8 1.00000000   0.187E-01       0.013     2190.445   0.100E-11
     TRS4 it   9 1.00000000   0.141E-03       0.013     2181.720   0.100E-11
     TRS4 it  10 1.00000000   0.153E-07       0.013     2162.066   0.100E-11
     TRS4 it  11 1.00000000   0.124E-13       0.013     2174.645   0.100E-11
     Final TRS4 iteration   11 1.00000000   0.124E-13
     Chemical potential (mu):       0.01889
 
 PAO| energy:  -187.86191753067797      penalty:   4.7153653613364913E-007
 PAO|LS| adapt:  T T F
 PAO|LS| adapt: scan_steps:    0.0000000000000000       0.10000000000000001        0.0000000000000000     
 PAO|LS| adapt: energies:   -186.40846851510349       -187.86191753067797        0.0000000000000000     
 PAO| ======================= Iteration:         3 =============================

     Lanczos converged:  T threshold:   0.100E-02
     Est. extremal eigenvalues:    0.578E+01   0.103E+00
     Est. condition number :    0.559E+02

 Order=           3
     NS sqrt iter    1 1.00000000   0.143E+01       0.021     2655.530
     NS sqrt iter    2 1.00000000   0.766E+00       0.034     3344.545
     NS sqrt iter    3 1.00000000   0.291E+00       0.034     3314.804
     NS sqrt iter    4 1.00000000   0.653E-01       0.034     3315.511
     NS sqrt iter    5 1.00000000   0.134E-02       0.034     3318.703
     NS sqrt iter    6 1.00000000   0.289E-07       0.029     2891.124
     Symmetrizing Results
     Final NS sqrt iter    6 1.00000000   0.392E-14

     Est. extremal eigenvalues     -0.83475     2.61699  converged:  T
     TRS4 it   1 1.00000000   0.278E+02       0.007     2095.907   0.100E-11
     TRS4 it   2 1.00000000   0.236E+02       0.013     2166.683   0.100E-11
     TRS4 it   3 1.00000000   0.159E+02       0.013     2152.708   0.100E-11
     TRS4 it   4 1.00000000   0.973E+01       0.013     2170.047   0.100E-11
     TRS4 it   5 1.00000000   0.450E+01       0.013     2162.413   0.100E-11
     TRS4 it   6 1.00000000   0.140E+01       0.013     2174.638   0.100E-11
     TRS4 it   7 1.00000000   0.245E+00       0.013     2160.994   0.100E-11
     TRS4 it   8 1.00000000   0.131E-01       0.013     2157.873   0.100E-11
     TRS4 it   9 1.00000000   0.636E-04       0.013     2164.320   0.100E-11
     TRS4 it  10 1.00000000   0.353E-08       0.013     2144.578   0.100E-11
     TRS4 it  11 1.00000000   0.213E-13       0.013     2167.503   0.100E-11
     Final TRS4 iteration   11 1.00000000   0.213E-13
     Chemical potential (mu):       0.02569
 
 PAO| energy:  -189.04025662574830      penalty:   7.5445845782001491E-006
 PAO|LS| adapt:  T T F
 PAO|LS| adapt: scan_steps:    0.0000000000000000       0.20000000000000001        0.0000000000000000     
 PAO|LS| adapt: energies:   -186.40846851510349       -189.04025662574830        0.0000000000000000     
 PAO| ======================= Iteration:         4 =============================

     Lanczos converged:  F threshold:   0.100E-02
     Est. extremal eigenvalues:    0.536E+01   0.113E+00
     Est. condition number :    0.473E+02

 Order=           3
     NS sqrt iter    1 1.00000000   0.135E+01       0.022     2640.842
     NS sqrt iter    2 1.00000000   0.709E+00       0.034     3343.099
     NS sqrt iter    3 1.00000000   0.253E+00       0.034     3341.142
     NS sqrt iter    4 1.00000000   0.459E-01       0.034     3336.026
     NS sqrt iter    5 1.00000000   0.553E-03       0.034     3322.028
     NS sqrt iter    6 1.00000000   0.264E-08       0.029     2855.157
     Symmetrizing Results
     Final NS sqrt iter    6 1.00000000   0.133E-13

     Est. extremal eigenvalues     -0.83994     2.62287  converged:  T
     TRS4 it   1 1.00000000   0.282E+02       0.007     2072.977   0.100E-11
     TRS4 it   2 1.00000000   0.237E+02       0.013     2201.761   0.100E-11
     TRS4 it   3 1.00000000   0.157E+02       0.013     2177.656   0.100E-11
     TRS4 it   4 1.00000000   0.940E+01       0.013     2176.223   0.100E-11
     TRS4 it   5 1.00000000   0.414E+01       0.013     2167.572   0.100E-11
     TRS4 it   6 1.00000000   0.118E+01       0.013     2176.534   0.100E-11
     TRS4 it   7 1.00000000   0.176E+00       0.013     2166.487   0.100E-11
     TRS4 it   8 1.00000000   0.625E-02       0.013     2192.581   0.100E-11
     TRS4 it   9 1.00000000   0.121E-04       0.013     2148.862   0.100E-11
     TRS4 it  10 1.00000000   0.146E-09       0.013     2148.347   0.100E-11
     Final TRS4 iteration   10 1.00000000   0.146E-09
     Chemical potential (mu):       0.04398
 
 PAO| energy:  -190.52980636381383      penalty:   1.2071335325169739E-004
 PAO|LS| Need extra step
 PAO|LS| adapt:  T T F
 PAO|LS| adapt: scan_steps:    0.0000000000000000       0.40000000000000002        0.0000000000000000     
 PAO|LS| adapt: energies:   -186.40846851510349       -190.52980636381383        0.0000000000000000     
 PAO| ======================= Iteration:         5 =============================

     Lanczos converged:  F threshold:   0.100E-02
     Est. extremal eigenvalues:    0.471E+01   0.129E+00
     Est. condition number :    0.364E+02

 Order=           3
     NS sqrt iter    1 1.00000000   0.122E+01       0.021     2668.592
     NS sqrt iter    2 1.00000000   0.621E+00       0.034     3322.335
     NS sqrt iter    3 1.00000000   0.196E+00       0.034     3317.852
     NS sqrt iter    4 1.00000000   0.243E-01       0.034     3323.475
     NS sqrt iter    5 1.00000000   0.108E-03       0.034     3344.112
     NS sqrt iter    6 1.00000000   0.282E-10       0.020     2203.962
     Symmetrizing Results
     Final NS sqrt iter    6 1.00000000   0.221E-11

     Est. extremal eigenvalues     -0.84304     2.62492  converged:  T
     TRS4 it   1 1.00000000   0.288E+02       0.007     2102.764   0.100E-11
     TRS4 it   2 1.00000000   0.237E+02       0.013     2142.511   0.100E-11
     TRS4 it   3 1.00000000   0.155E+02       0.013     2167.298   0.100E-11
     TRS4 it   4 1.00000000   0.891E+01       0.013     2151.759   0.100E-11
     TRS4 it   5 1.00000000   0.362E+01       0.013     2163.126   0.100E-11
     TRS4 it   6 1.00000000   0.880E+00       0.013     2188.671   0.100E-11
     TRS4 it   7 1.00000000   0.968E-01       0.013     2172.843   0.100E-11
     TRS4 it   8 1.00000000   0.177E-02       0.013     2180.147   0.100E-11
     TRS4 it   9 1.00000000   0.947E-06       0.013     2170.445   0.100E-11
     TRS4 it  10 1.00000000   0.961E-12       0.013     2213.724   0.100E-11
     Final TRS4 iteration   10 1.00000000   0.961E-12
     Chemical potential (mu):       0.06708
 
 PAO| energy:  -190.16954612791355      penalty:   1.9314136520311154E-003
 PAO|LS| Need extra step
 PAO|LS| adapt:  T T T
 PAO|LS| adapt: scan_steps:    0.0000000000000000       0.40000000000000002       0.80000000000000004     
 PAO|LS| adapt: energies:   -186.40846851510349       -190.52980636381383       -190.16954612791355     
 PAO|LS| adapt: suggested step_size:   0.56784537755517328     
 PAO|LS| adapt: predicted energy  -190.92435604627408     
 PAO| ======================= Iteration:         6 =============================

     Lanczos converged:  F threshold:   0.100E-02
     Est. extremal eigenvalues:    0.505E+01   0.122E+00
     Est. condition number :    0.414E+02

 Order=           3
     NS sqrt iter    1 1.00000000   0.129E+01       0.021     2662.167
     NS sqrt iter    2 1.00000000   0.668E+00       0.034     3326.444
     NS sqrt iter    3 1.00000000   0.226E+00       0.034     3324.883
     NS sqrt iter    4 1.00000000   0.346E-01       0.034     3328.196
     NS sqrt iter    5 1.00000000   0.271E-03       0.034     3347.230
     NS sqrt iter    6 1.00000000   0.371E-09       0.028     2682.270
     Symmetrizing Results
     Final NS sqrt iter    6 1.00000000   0.291E-12

     Est. extremal eigenvalues     -0.84254     2.62547  converged:  T
     TRS4 it   1 1.00000000   0.285E+02       0.007     2118.019   0.100E-11
     TRS4 it   2 1.00000000   0.237E+02       0.013     2176.687   0.100E-11
     TRS4 it   3 1.00000000   0.156E+02       0.013     2161.603   0.100E-11
     TRS4 it   4 1.00000000   0.918E+01       0.013     2161.101   0.100E-11
     TRS4 it   5 1.00000000   0.389E+01       0.013     2166.708   0.100E-11
     TRS4 it   6 1.00000000   0.103E+01       0.013     2160.482   0.100E-11
     TRS4 it   7 1.00000000   0.134E+00       0.013     2183.110   0.100E-11
     TRS4 it   8 1.00000000   0.347E-02       0.013     2163.494   0.100E-11
     TRS4 it   9 1.00000000   0.350E-05       0.013     2192.576   0.100E-11
     TRS4 it  10 1.00000000   0.123E-10       0.013     2160.008   0.100E-11
     Final TRS4 iteration   10 1.00000000   0.123E-10
     Chemical potential (mu):       0.05505
 
 PAO| energy:  -190.89739230583729      penalty:   4.9027046170375119E-004
 PAO|CG| warming up with steepest descent
 PAO|CG| beta:    0.0000000000000000     
 PAO| norm of gradient:   2.0929747663785214     
 PAO| energy improvement:  -4.4889237907337929     
 PAO| step      6                 -190.897392306  0.409E-02  0.568E+00     2.512
 PAO|LS| adapt:  T F F
 PAO|LS| adapt: scan_steps:    0.0000000000000000        0.0000000000000000        0.0000000000000000     
 PAO|LS| adapt: energies:   -190.89739230583729        0.0000000000000000        0.0000000000000000     
 PAO| ======================= Iteration:         7 =============================

     Lanczos converged:  F threshold:   0.100E-02
     Est. extremal eigenvalues:    0.490E+01   0.131E+00
     Est. condition number :    0.375E+02

 Order=           3
     NS sqrt iter    1 1.00000000   0.126E+01       0.021     2670.072
     NS sqrt iter    2 1.00000000   0.643E+00       0.034     3313.258
     NS sqrt iter    3 1.00000000   0.209E+00       0.034     3328.991
     NS sqrt iter    4 1.00000000   0.281E-01       0.034     3324.784
     NS sqrt iter    5 1.00000000   0.152E-03       0.034     3322.549
     NS sqrt iter    6 1.00000000   0.670E-10       0.024     2380.180
     Symmetrizing Results
     Final NS sqrt iter    6 1.00000000   0.198E-11

     Est. extremal eigenvalues     -0.84210     2.60670  converged:  T
     TRS4 it   1 1.00000000   0.286E+02       0.007     2113.008   0.100E-11
     TRS4 it   2 1.00000000   0.236E+02       0.013     2166.365   0.100E-11
     TRS4 it   3 1.00000000   0.157E+02       0.013     2184.183   0.100E-11
     TRS4 it   4 1.00000000   0.928E+01       0.013     2154.571   0.100E-11
     TRS4 it   5 1.00000000   0.397E+01       0.013     2176.982   0.100E-11
     TRS4 it   6 1.00000000   0.105E+01       0.013     2155.922   0.100E-11
     TRS4 it   7 1.00000000   0.135E+00       0.013     2162.183   0.100E-11
     TRS4 it   8 1.00000000   0.346E-02       0.013     2159.289   0.100E-11
     TRS4 it   9 1.00000000   0.354E-05       0.013     2177.232   0.100E-11
     TRS4 it  10 1.00000000   0.121E-10       0.013     2174.698   0.100E-11
     Final TRS4 iteration   10 1.00000000   0.121E-10
     Chemical potential (mu):       0.05744
 
 PAO| energy:  -189.97825295889635      penalty:   6.9055681462027504E-004
 PAO|LS| adapt:  T F T
 PAO|LS| adapt: scan_steps:    0.0000000000000000        0.0000000000000000       0.56784537755517328     
 PAO|LS| adapt: energies:   -190.89739230583729        0.0000000000000000       -189.97825295889635     
 PAO| ======================= Iteration:         8 =============================

     Lanczos converged:  F threshold:   0.100E-02
     Est. extremal eigenvalues:    0.498E+01   0.127E+00
     Est. condition number :    0.393E+02

 Order=           3
     NS sqrt iter    1 1.00000000   0.127E+01       0.021     2665.184
     NS sqrt iter    2 1.00000000   0.655E+00       0.034     3334.145
     NS sqrt iter    3 1.00000000   0.217E+00       0.034     3334.787
     NS sqrt iter    4 1.00000000   0.312E-01       0.034     3297.974
     NS sqrt iter    5 1.00000000   0.204E-03       0.034     3315.970
     NS sqrt iter    6 1.00000000   0.160E-09       0.027     2552.415
     Symmetrizing Results
     Final NS sqrt iter    6 1.00000000   0.110E-11

     Est. extremal eigenvalues     -0.84330     2.61626  converged:  T
     TRS4 it   1 1.00000000   0.285E+02       0.007     2081.330   0.100E-11
     TRS4 it   2 1.00000000   0.237E+02       0.013     2181.497   0.100E-11
     TRS4 it   3 1.00000000   0.156E+02       0.013     2182.601   0.100E-11
     TRS4 it   4 1.00000000   0.920E+01       0.013     2162.840   0.100E-11
     TRS4 it   5 1.00000000   0.390E+01       0.013     2163.708   0.100E-11
     TRS4 it   6 1.00000000   0.103E+01       0.013     2147.961   0.100E-11
     TRS4 it   7 1.00000000   0.133E+00       0.013     2171.712   0.100E-11
     TRS4 it   8 1.00000000   0.341E-02       0.013     2167.643   0.100E-11
     TRS4 it   9 1.00000000   0.342E-05       0.013     2176.456   0.100E-11
     TRS4 it  10 1.00000000   0.117E-10       0.013     2158.737   0.100E-11
     Final TRS4 iteration   10 1.00000000   0.117E-10
     Chemical potential (mu):       0.05514
 
 PAO| energy:  -191.27595644583619      penalty:   5.2013660111953494E-004
 PAO|LS| adapt:  T T T
 PAO|LS| adapt: scan_steps:    0.0000000000000000       0.28392268877758664       0.56784537755517328     
 PAO|LS| adapt: energies:   -190.89739230583729       -191.27595644583619       -189.97825295889635     
 PAO|LS| adapt: suggested step_size:   0.20608174305064172     
 PAO|LS| adapt: predicted energy  -191.33895482431095     
 PAO| ======================= Iteration:         9 =============================

     Lanczos converged:  F threshold:   0.100E-02
     Est. extremal eigenvalues:    0.500E+01   0.125E+00
     Est. condition number :    0.399E+02

 Order=           3
     NS sqrt iter    1 1.00000000   0.128E+01       0.021     2648.791
     NS sqrt iter    2 1.00000000   0.659E+00       0.034     3286.577
     NS sqrt iter    3 1.00000000   0.220E+00       0.034     3315.547
     NS sqrt iter    4 1.00000000   0.321E-01       0.034     3342.198
     NS sqrt iter    5 1.00000000   0.221E-03       0.034     3325.194
     NS sqrt iter    6 1.00000000   0.202E-09       0.028     2592.484
     Symmetrizing Results
     Final NS sqrt iter    6 1.00000000   0.893E-12

     Est. extremal eigenvalues     -0.84329     2.61883  converged:  T
     TRS4 it   1 1.00000000   0.285E+02       0.007     2119.050   0.100E-11
     TRS4 it   2 1.00000000   0.237E+02       0.013     2171.988   0.100E-11
     TRS4 it   3 1.00000000   0.156E+02       0.013     2143.381   0.100E-11
     TRS4 it   4 1.00000000   0.918E+01       0.013     2165.738   0.100E-11
     TRS4 it   5 1.00000000   0.389E+01       0.013     2164.789   0.100E-11
     TRS4 it   6 1.00000000   0.103E+01       0.013     2187.310   0.100E-11
     TRS4 it   7 1.00000000   0.133E+00       0.013     2149.465   0.100E-11
     TRS4 it   8 1.00000000   0.341E-02       0.013     2166.855   0.100E-11
     TRS4 it   9 1.00000000   0.343E-05       0.013     2158.917   0.100E-11
     TRS4 it  10 1.00000000   0.118E-10       0.013     2181.711   0.100E-11
     Final TRS4 iteration   10 1.00000000   0.118E-10
     Chemical potential (mu):       0.05490
 
 PAO| energy:  -191.34325682460835      penalty:   5.0255907157729148E-004
 PAO|CG| trace_G_new   0.71282883547952558     
 PAO|CG| trace_G_prev    4.3805433726972272     
 PAO|CG| trace_G_mix   -4.2205579825129576E-002
 PAO|CG| trace_D    4.3805433726972272     
 PAO|CG| trace_D_Gnew   4.2205579825129576E-002
 PAO|CG| beta:   0.17236090390306047     
 PAO| norm of gradient:  0.84429191366465517     
 PAO| energy improvement: -0.44586451877106015     
 PAO| step      9                 -191.343256825  0.165E-02  0.206E+00     1.555
 PAO|LS| adapt:  T F F
 PAO|LS| adapt: scan_steps:    0.0000000000000000        0.0000000000000000        0.0000000000000000     
 PAO|LS| adapt: energies:   -191.34325682460835        0.0000000000000000        0.0000000000000000     
 PAO| ======================= Iteration:        10 =============================

     Lanczos converged:  F threshold:   0.100E-02
     Est. extremal eigenvalues:    0.495E+01   0.128E+00
     Est. condition number :    0.386E+02

 Order=           3
     NS sqrt iter    1 1.00000000   0.127E+01       0.021     2671.412
     NS sqrt iter    2 1.00000000   0.650E+00       0.034     3314.818
     NS sqrt iter    3 1.00000000   0.214E+00       0.034     3332.693
     NS sqrt iter    4 1.00000000   0.299E-01       0.034     3299.407
     NS sqrt iter    5 1.00000000   0.178E-03       0.034     3307.807
     NS sqrt iter    6 1.00000000   0.104E-09       0.026     2447.485
     Symmetrizing Results
     Final NS sqrt iter    6 1.00000000   0.165E-11

     Est. extremal eigenvalues     -0.84395     2.60368  converged:  T
     TRS4 it   1 1.00000000   0.285E+02       0.007     2130.267   0.100E-11
     TRS4 it   2 1.00000000   0.236E+02       0.013     2176.053   0.100E-11
     TRS4 it   3 1.00000000   0.156E+02       0.013     2169.995   0.100E-11
     TRS4 it   4 1.00000000   0.916E+01       0.013     2166.086   0.100E-11
     TRS4 it   5 1.00000000   0.387E+01       0.013     2177.826   0.100E-11
     TRS4 it   6 1.00000000   0.102E+01       0.013     2164.356   0.100E-11
     TRS4 it   7 1.00000000   0.129E+00       0.013     2174.277   0.100E-11
     TRS4 it   8 1.00000000   0.322E-02       0.013     2175.346   0.100E-11
     TRS4 it   9 1.00000000   0.307E-05       0.013     2171.124   0.100E-11
     TRS4 it  10 1.00000000   0.952E-11       0.013     2160.298   0.100E-11
     Final TRS4 iteration   10 1.00000000   0.952E-11
     Chemical potential (mu):       0.05578
 
 PAO| energy:  -191.44185176806121      penalty:   5.0476934584600631E-004
 PAO|LS| adapt:  T T F
 PAO|LS| adapt: scan_steps:    0.0000000000000000       0.20608174305064172        0.0000000000000000     
 PAO|LS| adapt: energies:   -191.34325682460835       -191.44185176806121        0.0000000000000000     
 PAO| ======================= Iteration:        11 =============================

     Lanczos converged:  F threshold:   0.100E-02
     Est. extremal eigenvalues:    0.490E+01   0.131E+00
     Est. condition number :    0.373E+02

 Order=           3
     NS sqrt iter    1 1.00000000   0.126E+01       0.021     2652.053
     NS sqrt iter    2 1.00000000   0.642E+00       0.034     3320.641
     NS sqrt iter    3 1.00000000   0.209E+00       0.034     3329.930
     NS sqrt iter    4 1.00000000   0.278E-01       0.034     3325.248
     NS sqrt iter    5 1.00000000   0.143E-03       0.034     3309.174
     NS sqrt iter    6 1.00000000   0.535E-10       0.023     2302.820
     Symmetrizing Results
     Final NS sqrt iter    6 1.00000000   0.224E-11

     Est. extremal eigenvalues     -0.84397     2.58823  converged:  T
     TRS4 it   1 1.00000000   0.285E+02       0.007     2072.512   0.100E-11
     TRS4 it   2 1.00000000   0.235E+02       0.013     2179.424   0.100E-11
     TRS4 it   3 1.00000000   0.156E+02       0.013     2162.694   0.100E-11
     TRS4 it   4 1.00000000   0.913E+01       0.013     2160.077   0.100E-11
     TRS4 it   5 1.00000000   0.384E+01       0.013     2177.633   0.100E-11
     TRS4 it   6 1.00000000   0.100E+01       0.013     2166.198   0.100E-11
     TRS4 it   7 1.00000000   0.125E+00       0.013     2158.856   0.100E-11
     TRS4 it   8 1.00000000   0.301E-02       0.013     2165.596   0.100E-11
     TRS4 it   9 1.00000000   0.270E-05       0.013     2184.137   0.100E-11
     TRS4 it  10 1.00000000   0.740E-11       0.013     2179.200   0.100E-11
     Final TRS4 iteration   10 1.00000000   0.740E-11
     Chemical potential (mu):       0.05672
 
 PAO| energy:  -191.44935571596724      penalty:   5.1672463515037694E-004
 PAO|LS| adapt:  T T F
 PAO|LS| adapt: scan_steps:    0.0000000000000000       0.41216348610128345        0.0000000000000000     
 PAO|LS| adapt: energies:   -191.34325682460835       -191.44935571596724        0.0000000000000000     
 PAO| ======================= Iteration:        12 =============================

     Lanczos converged:  F threshold:   0.100E-02
     Est. extremal eigenvalues:    0.480E+01   0.138E+00
     Est. condition number :    0.347E+02

 Order=           3
     NS sqrt iter    1 1.00000000   0.124E+01       0.021     2660.373
     NS sqrt iter    2 1.00000000   0.626E+00       0.034     3335.484
     NS sqrt iter    3 1.00000000   0.198E+00       0.034     3327.540
     NS sqrt iter    4 1.00000000   0.240E-01       0.034     3344.814
     NS sqrt iter    5 1.00000000   0.919E-04       0.034     3319.242
     NS sqrt iter    6 1.00000000   0.136E-10       0.016     2119.140
     Symmetrizing Results
     Final NS sqrt iter    6 1.00000000   0.184E-11

     Est. extremal eigenvalues     -0.84225     2.55727  converged:  T
     TRS4 it   1 1.00000000   0.284E+02       0.007     2081.540   0.100E-11
     TRS4 it   2 1.00000000   0.233E+02       0.013     2174.181   0.100E-11
     TRS4 it   3 1.00000000   0.155E+02       0.013     2179.718   0.100E-11
     TRS4 it   4 1.00000000   0.905E+01       0.013     2208.334   0.100E-11
     TRS4 it   5 1.00000000   0.377E+01       0.013     2147.651   0.100E-11
     TRS4 it   6 1.00000000   0.961E+00       0.013     2178.817   0.100E-11
     TRS4 it   7 1.00000000   0.115E+00       0.013     2163.943   0.100E-11
     TRS4 it   8 1.00000000   0.256E-02       0.013     2173.207   0.100E-11
     TRS4 it   9 1.00000000   0.199E-05       0.013     2171.234   0.100E-11
     TRS4 it  10 1.00000000   0.407E-11       0.013     2173.175   0.100E-11
     Final TRS4 iteration   10 1.00000000   0.407E-11
     Chemical potential (mu):       0.05882
 
 PAO| energy:  -191.20697559368094      penalty:   5.7665255938362751E-004
 PAO|LS| Need extra step
 PAO|LS| adapt:  T T T
 PAO|LS| adapt: scan_steps:    0.0000000000000000       0.41216348610128345       0.82432697220256690     
 PAO|LS| adapt: energies:   -191.34325682460835       -191.44935571596724       -191.20697559368094     
 PAO|LS| adapt: suggested step_size:   0.33157018631881302     
 PAO|LS| adapt: predicted energy  -191.45601772902106     
 PAO| ======================= Iteration:        13 =============================

     Lanczos converged:  F threshold:   0.100E-02
     Est. extremal eigenvalues:    0.492E+01   0.130E+00
     Est. condition number :    0.378E+02

 Order=           3
     NS sqrt iter    1 1.00000000   0.126E+01       0.021     2665.522
     NS sqrt iter    2 1.00000000   0.645E+00       0.034     3319.851
     NS sqrt iter    3 1.00000000   0.211E+00       0.034     3343.379
     NS sqrt iter    4 1.00000000   0.286E-01       0.034     3340.701
     NS sqrt iter    5 1.00000000   0.156E-03       0.034     3347.280
     NS sqrt iter    6 1.00000000   0.695E-10       0.024     2366.308
     Symmetrizing Results
     Final NS sqrt iter    6 1.00000000   0.201E-11

     Est. extremal eigenvalues     -0.84404     2.59430  converged:  T
     TRS4 it   1 1.00000000   0.285E+02       0.007     2133.928   0.100E-11
     TRS4 it   2 1.00000000   0.235E+02       0.013     2188.838   0.100E-11
     TRS4 it   3 1.00000000   0.156E+02       0.013     2194.517   0.100E-11
     TRS4 it   4 1.00000000   0.915E+01       0.013     2150.452   0.100E-11
     TRS4 it   5 1.00000000   0.385E+01       0.013     2166.574   0.100E-11
     TRS4 it   6 1.00000000   0.101E+01       0.013     2147.113   0.100E-11
     TRS4 it   7 1.00000000   0.127E+00       0.013     2155.694   0.100E-11
     TRS4 it   8 1.00000000   0.310E-02       0.013     2163.257   0.100E-11
     TRS4 it   9 1.00000000   0.284E-05       0.013     2159.253   0.100E-11
     TRS4 it  10 1.00000000   0.821E-11       0.013     2186.334   0.100E-11
     Final TRS4 iteration   10 1.00000000   0.821E-11
     Chemical potential (mu):       0.05635
 
 PAO| energy:  -191.45701955313805      penalty:   5.1081085165042878E-004
 PAO|CG| trace_G_new   0.27481022372457653     
 PAO|CG| trace_G_prev   0.71282883547952558     
 PAO|CG| trace_G_mix   -1.1886813639026605E-002
 PAO|CG| trace_D   0.82841806600253065     
 PAO|CG| trace_D_Gnew   1.1397290628354617E-002
 PAO|CG| beta:   0.40219618384368494     
 PAO| norm of gradient:  0.52422344827809497     
 PAO| energy improvement: -0.11376272852970715     
 PAO| step     13                 -191.457019553  0.102E-02  0.332E+00     1.998
 PAO|LS| adapt:  T F F
 PAO|LS| adapt: scan_steps:    0.0000000000000000        0.0000000000000000        0.0000000000000000     
 PAO|LS| adapt: energies:   -191.45701955313805        0.0000000000000000        0.0000000000000000     
 PAO| ======================= Iteration:        14 =============================

     Lanczos converged:  F threshold:   0.100E-02
     Est. extremal eigenvalues:    0.485E+01   0.132E+00
     Est. condition number :    0.366E+02

 Order=           3
     NS sqrt iter    1 1.00000000   0.125E+01       0.021     2673.405
     NS sqrt iter    2 1.00000000   0.634E+00       0.034     3348.704
     NS sqrt iter    3 1.00000000   0.204E+00       0.034     3318.414
     NS sqrt iter    4 1.00000000   0.264E-01       0.034     3339.313
     NS sqrt iter    5 1.00000000   0.125E-03       0.034     3342.149
     NS sqrt iter    6 1.00000000   0.361E-10       0.020     2243.565
     Symmetrizing Results
     Final NS sqrt iter    6 1.00000000   0.228E-11

     Est. extremal eigenvalues     -0.84457     2.58883  converged:  T
     TRS4 it   1 1.00000000   0.285E+02       0.007     2140.534   0.100E-11
     TRS4 it   2 1.00000000   0.235E+02       0.013     2160.251   0.100E-11
     TRS4 it   3 1.00000000   0.156E+02       0.013     2181.611   0.100E-11
     TRS4 it   4 1.00000000   0.909E+01       0.013     2165.858   0.100E-11
     TRS4 it   5 1.00000000   0.380E+01       0.013     2146.342   0.100E-11
     TRS4 it   6 1.00000000   0.977E+00       0.013     2171.439   0.100E-11
     TRS4 it   7 1.00000000   0.119E+00       0.013     2183.181   0.100E-11
     TRS4 it   8 1.00000000   0.273E-02       0.013     2202.123   0.100E-11
     TRS4 it   9 1.00000000   0.224E-05       0.013     2181.522   0.100E-11
     TRS4 it  10 1.00000000   0.509E-11       0.013     2172.385   0.100E-11
     Final TRS4 iteration   10 1.00000000   0.509E-11
     Chemical potential (mu):       0.05828
 
 PAO| energy:  -191.50904423448318      penalty:   5.1262588052873614E-004
 PAO|LS| adapt:  T T F
 PAO|LS| adapt: scan_steps:    0.0000000000000000       0.33157018631881302        0.0000000000000000     
 PAO|LS| adapt: energies:   -191.45701955313805       -191.50904423448318        0.0000000000000000     
 PAO| ======================= Iteration:        15 =============================

     Lanczos converged:  F threshold:   0.100E-02
     Est. extremal eigenvalues:    0.478E+01   0.135E+00
     Est. condition number :    0.355E+02

 Order=           3
     NS sqrt iter    1 1.00000000   0.123E+01       0.021     2650.985
     NS sqrt iter    2 1.00000000   0.624E+00       0.034     3325.198
     NS sqrt iter    3 1.00000000   0.198E+00       0.034     3330.031
     NS sqrt iter    4 1.00000000   0.244E-01       0.034     3323.608
     NS sqrt iter    5 1.00000000   0.100E-03       0.034     3332.810
     NS sqrt iter    6 1.00000000   0.189E-10       0.017     2133.238
     Symmetrizing Results
     Final NS sqrt iter    6 1.00000000   0.213E-11

     Est. extremal eigenvalues     -0.84451     2.58301  converged:  T
     TRS4 it   1 1.00000000   0.286E+02       0.007     2135.686   0.100E-11
     TRS4 it   2 1.00000000   0.235E+02       0.013     2205.028   0.100E-11
     TRS4 it   3 1.00000000   0.155E+02       0.013     2154.142   0.100E-11
     TRS4 it   4 1.00000000   0.903E+01       0.013     2178.598   0.100E-11
     TRS4 it   5 1.00000000   0.374E+01       0.013     2180.956   0.100E-11
     TRS4 it   6 1.00000000   0.946E+00       0.013     2166.473   0.100E-11
     TRS4 it   7 1.00000000   0.112E+00       0.013     2139.334   0.100E-11
     TRS4 it   8 1.00000000   0.241E-02       0.013     2186.735   0.100E-11
     TRS4 it   9 1.00000000   0.176E-05       0.013     2173.688   0.100E-11
     TRS4 it  10 1.00000000   0.320E-11       0.013     2171.872   0.100E-11
     Final TRS4 iteration   10 1.00000000   0.320E-11
     Chemical potential (mu):       0.06010
 
 PAO| energy:  -191.48710673571989      penalty:   5.2969859553118307E-004
 PAO|LS| adapt:  T T T
 PAO|LS| adapt: scan_steps:    0.0000000000000000       0.33157018631881302       0.66314037263762604     
 PAO|LS| adapt: energies:   -191.45701955313805       -191.50904423448318       -191.48710673571989     
 PAO|LS| adapt: suggested step_size:   0.39901014495607751     
 PAO|LS| adapt: predicted energy  -191.51057413556640     
 PAO| ======================= Iteration:        16 =============================

     Lanczos converged:  F threshold:   0.100E-02
     Est. extremal eigenvalues:    0.483E+01   0.133E+00
     Est. condition number :    0.364E+02

 Order=           3
     NS sqrt iter    1 1.00000000   0.124E+01       0.021     2670.789
     NS sqrt iter    2 1.00000000   0.632E+00       0.034     3314.982
     NS sqrt iter    3 1.00000000   0.203E+00       0.034     3305.988
     NS sqrt iter    4 1.00000000   0.260E-01       0.034     3328.316
     NS sqrt iter    5 1.00000000   0.119E-03       0.034     3349.712
     NS sqrt iter    6 1.00000000   0.316E-10       0.020     2225.002
     Symmetrizing Results
     Final NS sqrt iter    6 1.00000000   0.225E-11

     Est. extremal eigenvalues     -0.84460     2.58767  converged:  T
     TRS4 it   1 1.00000000   0.286E+02       0.007     2122.571   0.100E-11
     TRS4 it   2 1.00000000   0.235E+02       0.013     2182.096   0.100E-11
     TRS4 it   3 1.00000000   0.156E+02       0.013     2155.460   0.100E-11
     TRS4 it   4 1.00000000   0.908E+01       0.013     2171.081   0.100E-11
     TRS4 it   5 1.00000000   0.379E+01       0.013     2171.615   0.100E-11
     TRS4 it   6 1.00000000   0.971E+00       0.013     2181.462   0.100E-11
     TRS4 it   7 1.00000000   0.118E+00       0.013     2188.412   0.100E-11
     TRS4 it   8 1.00000000   0.267E-02       0.013     2190.627   0.100E-11
     TRS4 it   9 1.00000000   0.213E-05       0.013     2181.044   0.100E-11
     TRS4 it  10 1.00000000   0.465E-11       0.013     2157.048   0.100E-11
     Final TRS4 iteration   10 1.00000000   0.465E-11
     Chemical potential (mu):       0.05867
 
 PAO| energy:  -191.51051540714039      penalty:   5.1481368991871572E-004
 PAO|CG| trace_G_new   0.10181944211338687     
 PAO|CG| trace_G_prev   0.27481022372457653     
 PAO|CG| trace_G_mix    4.3658620934948203E-003
 PAO|CG| trace_D   0.39964870303457856     
 PAO|CG| trace_D_Gnew   7.9786696215221917E-004
 PAO|CG| beta:   0.35462137725109927     
 PAO| norm of gradient:  0.31909158891043626     
 PAO| energy improvement:  -5.3495854002335363E-002
 PAO| step     16                 -191.510515407  0.623E-03  0.399E+00     1.530
 PAO|LS| adapt:  T F F
 PAO|LS| adapt: scan_steps:    0.0000000000000000        0.0000000000000000        0.0000000000000000     
 PAO|LS| adapt: energies:   -191.51051540714039        0.0000000000000000        0.0000000000000000     
 PAO| ======================= Iteration:        17 =============================

     Lanczos converged:  F threshold:   0.100E-02
     Est. extremal eigenvalues:    0.480E+01   0.133E+00
     Est. condition number :    0.360E+02

 Order=           3
     NS sqrt iter    1 1.00000000   0.123E+01       0.021     2664.546
     NS sqrt iter    2 1.00000000   0.628E+00       0.034     3333.203
     NS sqrt iter    3 1.00000000   0.201E+00       0.034     3327.382
     NS sqrt iter    4 1.00000000   0.252E-01       0.034     3332.797
     NS sqrt iter    5 1.00000000   0.110E-03       0.034     3345.093
     NS sqrt iter    6 1.00000000   0.248E-10       0.019     2172.502
     Symmetrizing Results
     Final NS sqrt iter    6 1.00000000   0.220E-11

     Est. extremal eigenvalues     -0.84468     2.58624  converged:  T
     TRS4 it   1 1.00000000   0.286E+02       0.007     2131.508   0.100E-11
     TRS4 it   2 1.00000000   0.235E+02       0.013     2207.118   0.100E-11
     TRS4 it   3 1.00000000   0.155E+02       0.013     2174.243   0.100E-11
     TRS4 it   4 1.00000000   0.903E+01       0.013     2182.396   0.100E-11
     TRS4 it   5 1.00000000   0.374E+01       0.013     2179.793   0.100E-11
     TRS4 it   6 1.00000000   0.950E+00       0.013     2155.392   0.100E-11
     TRS4 it   7 1.00000000   0.113E+00       0.013     2162.393   0.100E-11
     TRS4 it   8 1.00000000   0.246E-02       0.013     2151.520   0.100E-11
     TRS4 it   9 1.00000000   0.183E-05       0.013     2170.379   0.100E-11
     TRS4 it  10 1.00000000   0.344E-11       0.013     2183.891   0.100E-11
     Final TRS4 iteration   10 1.00000000   0.344E-11
     Chemical potential (mu):       0.05981
 
 PAO| energy:  -191.51409308321408      penalty:   5.0696444473914530E-004
 PAO|LS| adapt:  T T F
 PAO|LS| adapt: scan_steps:    0.0000000000000000       0.39901014495607751        0.0000000000000000     
 PAO|LS| adapt: energies:   -191.51051540714039       -191.51409308321408        0.0000000000000000     
 PAO| ======================= Iteration:        18 =============================

     Lanczos converged:  F threshold:   0.100E-02
     Est. extremal eigenvalues:    0.476E+01   0.134E+00
     Est. condition number :    0.356E+02

 Order=           3
     NS sqrt iter    1 1.00000000   0.123E+01       0.021     2657.025
     NS sqrt iter    2 1.00000000   0.623E+00       0.034     3336.988
     NS sqrt iter    3 1.00000000   0.198E+00       0.034     3329.295
     NS sqrt iter    4 1.00000000   0.244E-01       0.034     3341.255
     NS sqrt iter    5 1.00000000   0.101E-03       0.034     3335.884
     NS sqrt iter    6 1.00000000   0.195E-10       0.017     2140.849
     Symmetrizing Results
     Final NS sqrt iter    6 1.00000000   0.214E-11

     Est. extremal eigenvalues     -0.84450     2.58486  converged:  T
     TRS4 it   1 1.00000000   0.286E+02       0.007     2099.813   0.100E-11
     TRS4 it   2 1.00000000   0.234E+02       0.013     2183.712   0.100E-11
     TRS4 it   3 1.00000000   0.155E+02       0.013     2181.596   0.100E-11
     TRS4 it   4 1.00000000   0.899E+01       0.013     2172.334   0.100E-11
     TRS4 it   5 1.00000000   0.370E+01       0.013     2161.718   0.100E-11
     TRS4 it   6 1.00000000   0.931E+00       0.013     2201.625   0.100E-11
     TRS4 it   7 1.00000000   0.109E+00       0.013     2185.748   0.100E-11
     TRS4 it   8 1.00000000   0.228E-02       0.013     2160.566   0.100E-11
     TRS4 it   9 1.00000000   0.157E-05       0.013     2162.279   0.100E-11
     TRS4 it  10 1.00000000   0.261E-11       0.013     2209.512   0.100E-11
     Final TRS4 iteration   10 1.00000000   0.261E-11
     Chemical potential (mu):       0.06101
 
 PAO| energy:  -191.44357621793441      penalty:   5.0660725702556583E-004
 PAO|LS| adapt:  T T T
 PAO|LS| adapt: scan_steps:    0.0000000000000000       0.39901014495607751       0.79802028991215501     
 PAO|LS| adapt: energies:   -191.51051540714039       -191.51409308321408       -191.44357621793441     
 PAO|LS| adapt: suggested step_size:   0.21877139119321565     
 PAO|LS| adapt: predicted energy  -191.52165243740149     
 PAO| ======================= Iteration:        19 =============================

     Lanczos converged:  F threshold:   0.100E-02
     Est. extremal eigenvalues:    0.481E+01   0.133E+00
     Est. condition number :    0.362E+02

 Order=           3
     NS sqrt iter    1 1.00000000   0.124E+01       0.021     2674.280
     NS sqrt iter    2 1.00000000   0.630E+00       0.034     3340.073
     NS sqrt iter    3 1.00000000   0.202E+00       0.034     3351.559
     NS sqrt iter    4 1.00000000   0.255E-01       0.034     3335.145
     NS sqrt iter    5 1.00000000   0.114E-03       0.034     3325.053
     NS sqrt iter    6 1.00000000   0.276E-10       0.019     2197.171
     Symmetrizing Results
     Final NS sqrt iter    6 1.00000000   0.225E-11

     Est. extremal eigenvalues     -0.84468     2.58688  converged:  T
     TRS4 it   1 1.00000000   0.286E+02       0.007     2096.472   0.100E-11
     TRS4 it   2 1.00000000   0.235E+02       0.013     2192.576   0.100E-11
     TRS4 it   3 1.00000000   0.156E+02       0.013     2182.121   0.100E-11
     TRS4 it   4 1.00000000   0.905E+01       0.013     2157.029   0.100E-11
     TRS4 it   5 1.00000000   0.376E+01       0.013     2173.059   0.100E-11
     TRS4 it   6 1.00000000   0.959E+00       0.013     2189.777   0.100E-11
     TRS4 it   7 1.00000000   0.115E+00       0.013     2176.051   0.100E-11
     TRS4 it   8 1.00000000   0.255E-02       0.013     2157.954   0.100E-11
     TRS4 it   9 1.00000000   0.196E-05       0.013     2165.679   0.100E-11
     TRS4 it  10 1.00000000   0.395E-11       0.013     2187.154   0.100E-11
     Final TRS4 iteration   10 1.00000000   0.395E-11
     Chemical potential (mu):       0.05929
 
 PAO| energy:  -191.52163398495492      penalty:   5.0959580169289019E-004
 PAO|CG| trace_G_new    2.1295304528172777E-002
 PAO|CG| trace_G_prev   0.10181944211338687     
 PAO|CG| trace_G_mix   -2.8027061922747219E-004
 PAO|CG| trace_D   0.15151191141878895     
 PAO|CG| trace_D_Gnew  -5.6653362084879455E-005
 PAO|CG| beta:   0.21190034731651280     
 PAO| norm of gradient:  0.14592910788520835     
 PAO| energy improvement:  -1.1118577814528408E-002
 PAO| step     19                 -191.521633985  0.285E-03  0.219E+00     1.528
 PAO|LS| adapt:  T F F
 PAO|LS| adapt: scan_steps:    0.0000000000000000        0.0000000000000000        0.0000000000000000     
 PAO|LS| adapt: energies:   -191.52163398495492        0.0000000000000000        0.0000000000000000     
 PAO| ======================= Iteration:        20 =============================

     Lanczos converged:  F threshold:   0.100E-02
     Est. extremal eigenvalues:    0.481E+01   0.133E+00
     Est. condition number :    0.361E+02

 Order=           3
     NS sqrt iter    1 1.00000000   0.124E+01       0.021     2647.670
     NS sqrt iter    2 1.00000000   0.629E+00       0.034     3323.270
     NS sqrt iter    3 1.00000000   0.202E+00       0.034     3328.461
     NS sqrt iter    4 1.00000000   0.255E-01       0.034     3321.632
     NS sqrt iter    5 1.00000000   0.114E-03       0.034     3343.536
     NS sqrt iter    6 1.00000000   0.274E-10       0.019     2183.362
     Symmetrizing Results
     Final NS sqrt iter    6 1.00000000   0.224E-11

     Est. extremal eigenvalues     -0.84469     2.58564  converged:  T
     TRS4 it   1 1.00000000   0.286E+02       0.007     2106.446   0.100E-11
     TRS4 it   2 1.00000000   0.235E+02       0.013     2164.913   0.100E-11
     TRS4 it   3 1.00000000   0.156E+02       0.013     2162.334   0.100E-11
     TRS4 it   4 1.00000000   0.904E+01       0.013     2171.255   0.100E-11
     TRS4 it   5 1.00000000   0.375E+01       0.013     2180.581   0.100E-11
     TRS4 it   6 1.00000000   0.955E+00       0.013     2167.328   0.100E-11
     TRS4 it   7 1.00000000   0.114E+00       0.013     2174.377   0.100E-11
     TRS4 it   8 1.00000000   0.251E-02       0.013     2157.225   0.100E-11
     TRS4 it   9 1.00000000   0.190E-05       0.013     2180.043   0.100E-11
     TRS4 it  10 1.00000000   0.369E-11       0.013     2179.654   0.100E-11
     Final TRS4 iteration   10 1.00000000   0.369E-11
     Chemical potential (mu):       0.05949
 
 PAO| energy:  -191.52540275001232      penalty:   4.9982843804141804E-004
 PAO|LS| adapt:  T T F
 PAO|LS| adapt: scan_steps:    0.0000000000000000       0.21877139119321565        0.0000000000000000     
 PAO|LS| adapt: energies:   -191.52163398495492       -191.52540275001232        0.0000000000000000     
 PAO| ======================= Iteration:        21 =============================

     Lanczos converged:  F threshold:   0.100E-02
     Est. extremal eigenvalues:    0.480E+01   0.133E+00
     Est. condition number :    0.361E+02

 Order=           3
     NS sqrt iter    1 1.00000000   0.124E+01       0.021     2666.766
     NS sqrt iter    2 1.00000000   0.629E+00       0.034     3318.394
     NS sqrt iter    3 1.00000000   0.202E+00       0.034     3354.760
     NS sqrt iter    4 1.00000000   0.255E-01       0.034     3348.806
     NS sqrt iter    5 1.00000000   0.113E-03       0.034     3340.376
     NS sqrt iter    6 1.00000000   0.272E-10       0.019     2176.883
     Symmetrizing Results
     Final NS sqrt iter    6 1.00000000   0.225E-11

     Est. extremal eigenvalues     -0.84469     2.58439  converged:  T
     TRS4 it   1 1.00000000   0.286E+02       0.007     2134.171   0.100E-11
     TRS4 it   2 1.00000000   0.234E+02       0.013     2168.550   0.100E-11
     TRS4 it   3 1.00000000   0.155E+02       0.013     2157.190   0.100E-11
     TRS4 it   4 1.00000000   0.903E+01       0.013     2138.520   0.100E-11
     TRS4 it   5 1.00000000   0.374E+01       0.013     2189.826   0.100E-11
     TRS4 it   6 1.00000000   0.951E+00       0.013     2172.191   0.100E-11
     TRS4 it   7 1.00000000   0.113E+00       0.013     2178.425   0.100E-11
     TRS4 it   8 1.00000000   0.247E-02       0.013     2210.904   0.100E-11
     TRS4 it   9 1.00000000   0.184E-05       0.013     2170.911   0.100E-11
     TRS4 it  10 1.00000000   0.351E-11       0.013     2190.575   0.100E-11
     Final TRS4 iteration   10 1.00000000   0.351E-11
     Chemical potential (mu):       0.05970
 
 PAO| energy:  -191.52737283041662      penalty:   4.9048410423187748E-004
 PAO|LS| adapt:  T T F
 PAO|LS| adapt: scan_steps:    0.0000000000000000       0.43754278238643129        0.0000000000000000     
 PAO|LS| adapt: energies:   -191.52163398495492       -191.52737283041662        0.0000000000000000     
 PAO| ======================= Iteration:        22 =============================

     Lanczos converged:  F threshold:   0.100E-02
     Est. extremal eigenvalues:    0.479E+01   0.133E+00
     Est. condition number :    0.361E+02

 Order=           3
     NS sqrt iter    1 1.00000000   0.123E+01       0.022     2647.003
     NS sqrt iter    2 1.00000000   0.628E+00       0.034     3346.145
     NS sqrt iter    3 1.00000000   0.202E+00       0.034     3321.907
     NS sqrt iter    4 1.00000000   0.255E-01       0.034     3341.217
     NS sqrt iter    5 1.00000000   0.113E-03       0.034     3324.484
     NS sqrt iter    6 1.00000000   0.269E-10       0.019     2201.547
     Symmetrizing Results
     Final NS sqrt iter    6 1.00000000   0.225E-11

     Est. extremal eigenvalues     -0.84470     2.58186  converged:  T
     TRS4 it   1 1.00000000   0.286E+02       0.007     2084.577   0.100E-11
     TRS4 it   2 1.00000000   0.234E+02       0.013     2182.205   0.100E-11
     TRS4 it   3 1.00000000   0.155E+02       0.013     2149.072   0.100E-11
     TRS4 it   4 1.00000000   0.901E+01       0.013     2157.096   0.100E-11
     TRS4 it   5 1.00000000   0.372E+01       0.013     2170.435   0.100E-11
     TRS4 it   6 1.00000000   0.942E+00       0.013     2165.580   0.100E-11
     TRS4 it   7 1.00000000   0.112E+00       0.013     2182.873   0.100E-11
     TRS4 it   8 1.00000000   0.240E-02       0.013     2180.605   0.100E-11
     TRS4 it   9 1.00000000   0.173E-05       0.013     2190.096   0.100E-11
     TRS4 it  10 1.00000000   0.312E-11       0.013     2192.103   0.100E-11
     Final TRS4 iteration   10 1.00000000   0.312E-11
     Chemical potential (mu):       0.06011
 
 PAO| energy:  -191.52583621766658      penalty:   4.7303727870213840E-004
 PAO|LS| Need extra step
 PAO|LS| adapt:  T T T
 PAO|LS| adapt: scan_steps:    0.0000000000000000       0.43754278238643129       0.87508556477286259     
 PAO|LS| adapt: energies:   -191.52163398495492       -191.52737283041662       -191.52583621766658     
 PAO|LS| adapt: suggested step_size:   0.56390297437587877     
 PAO|LS| adapt: predicted energy  -191.52767622642361     
 PAO| ======================= Iteration:        23 =============================

     Lanczos converged:  F threshold:   0.100E-02
     Est. extremal eigenvalues:    0.480E+01   0.133E+00
     Est. condition number :    0.361E+02

 Order=           3
     NS sqrt iter    1 1.00000000   0.124E+01       0.021     2656.069
     NS sqrt iter    2 1.00000000   0.629E+00       0.034     3349.663
     NS sqrt iter    3 1.00000000   0.202E+00       0.034     3305.496
     NS sqrt iter    4 1.00000000   0.255E-01       0.034     3319.751
     NS sqrt iter    5 1.00000000   0.113E-03       0.034     3323.846
     NS sqrt iter    6 1.00000000   0.271E-10       0.019     2186.477
     Symmetrizing Results
     Final NS sqrt iter    6 1.00000000   0.224E-11

     Est. extremal eigenvalues     -0.84470     2.58366  converged:  T
     TRS4 it   1 1.00000000   0.286E+02       0.007     2119.672   0.100E-11
     TRS4 it   2 1.00000000   0.234E+02       0.013     2169.208   0.100E-11
     TRS4 it   3 1.00000000   0.155E+02       0.013     2162.345   0.100E-11
     TRS4 it   4 1.00000000   0.902E+01       0.013     2176.093   0.100E-11
     TRS4 it   5 1.00000000   0.374E+01       0.013     2176.407   0.100E-11
     TRS4 it   6 1.00000000   0.948E+00       0.013     2182.859   0.100E-11
     TRS4 it   7 1.00000000   0.113E+00       0.013     2168.732   0.100E-11
     TRS4 it   8 1.00000000   0.245E-02       0.013     2168.828   0.100E-11
     TRS4 it   9 1.00000000   0.181E-05       0.013     2153.216   0.100E-11
     TRS4 it  10 1.00000000   0.339E-11       0.013     2157.014   0.100E-11
     Final TRS4 iteration   10 1.00000000   0.339E-11
     Chemical potential (mu):       0.05982
 
 PAO| energy:  -191.52768336873405      penalty:   4.8527677121778623E-004
 PAO|CG| trace_G_new    1.5816269436259731E-002
 PAO|CG| trace_G_prev    2.1295304528172777E-002
 PAO|CG| trace_G_mix    1.1063418156668923E-004
 PAO|CG| trace_D    2.8122465320730032E-002
 PAO|CG| trace_D_Gnew  -4.6293858372487657E-005
 PAO|CG| beta:   0.73751634938655874     
 PAO| norm of gradient:  0.12576275059118153     
 PAO| energy improvement:  -6.0493837791284477E-003
 PAO| step     23                 -191.527683369  0.246E-03  0.564E+00     1.984
 PAO|LS| adapt:  T F F
 PAO|LS| adapt: scan_steps:    0.0000000000000000        0.0000000000000000        0.0000000000000000     
 PAO|LS| adapt: energies:   -191.52768336873405        0.0000000000000000        0.0000000000000000     
 PAO| ======================= Iteration:        24 =============================

     Lanczos converged:  F threshold:   0.100E-02
     Est. extremal eigenvalues:    0.479E+01   0.133E+00
     Est. condition number :    0.361E+02

 Order=           3
     NS sqrt iter    1 1.00000000   0.123E+01       0.021     2664.431
     NS sqrt iter    2 1.00000000   0.627E+00       0.034     3328.506
     NS sqrt iter    3 1.00000000   0.201E+00       0.034     3341.272
     NS sqrt iter    4 1.00000000   0.255E-01       0.034     3328.586
     NS sqrt iter    5 1.00000000   0.113E-03       0.034     3336.192
     NS sqrt iter    6 1.00000000   0.267E-10       0.019     2203.752
     Symmetrizing Results
     Final NS sqrt iter    6 1.00000000   0.224E-11

     Est. extremal eigenvalues     -0.84471     2.58012  converged:  T
     TRS4 it   1 1.00000000   0.286E+02       0.007     2106.755   0.100E-11
     TRS4 it   2 1.00000000   0.234E+02       0.013     2180.306   0.100E-11
     TRS4 it   3 1.00000000   0.155E+02       0.013     2150.444   0.100E-11
     TRS4 it   4 1.00000000   0.900E+01       0.013     2143.266   0.100E-11
     TRS4 it   5 1.00000000   0.371E+01       0.013     2170.964   0.100E-11
     TRS4 it   6 1.00000000   0.938E+00       0.013     2141.001   0.100E-11
     TRS4 it   7 1.00000000   0.111E+00       0.013     2181.492   0.100E-11
     TRS4 it   8 1.00000000   0.236E-02       0.013     2171.527   0.100E-11
     TRS4 it   9 1.00000000   0.169E-05       0.013     2150.992   0.100E-11
     TRS4 it  10 1.00000000   0.299E-11       0.013     2176.266   0.100E-11
     Final TRS4 iteration   10 1.00000000   0.299E-11
     Chemical potential (mu):       0.06025
 
 PAO| energy:  -191.53094172325936      penalty:   4.4798500315927604E-004
 PAO|LS| adapt:  T T F
 PAO|LS| adapt: scan_steps:    0.0000000000000000       0.56390297437587877        0.0000000000000000     
 PAO|LS| adapt: energies:   -191.52768336873405       -191.53094172325936        0.0000000000000000     
 PAO| ======================= Iteration:        25 =============================

     Lanczos converged:  F threshold:   0.100E-02
     Est. extremal eigenvalues:    0.477E+01   0.132E+00
     Est. condition number :    0.361E+02

 Order=           3
     NS sqrt iter    1 1.00000000   0.123E+01       0.021     2663.235
     NS sqrt iter    2 1.00000000   0.626E+00       0.034     3375.682
     NS sqrt iter    3 1.00000000   0.201E+00       0.034     3336.332
     NS sqrt iter    4 1.00000000   0.254E-01       0.034     3327.507
     NS sqrt iter    5 1.00000000   0.113E-03       0.034     3338.400
     NS sqrt iter    6 1.00000000   0.265E-10       0.019     2188.154
     Symmetrizing Results
     Final NS sqrt iter    6 1.00000000   0.225E-11

     Est. extremal eigenvalues     -0.84471     2.57641  converged:  T
     TRS4 it   1 1.00000000   0.286E+02       0.007     2148.832   0.100E-11
     TRS4 it   2 1.00000000   0.234E+02       0.013     2167.170   0.100E-11
     TRS4 it   3 1.00000000   0.155E+02       0.013     2185.328   0.100E-11
     TRS4 it   4 1.00000000   0.897E+01       0.013     2155.609   0.100E-11
     TRS4 it   5 1.00000000   0.369E+01       0.013     2186.042   0.100E-11
     TRS4 it   6 1.00000000   0.928E+00       0.013     2195.409   0.100E-11
     TRS4 it   7 1.00000000   0.109E+00       0.013     2160.935   0.100E-11
     TRS4 it   8 1.00000000   0.228E-02       0.013     2168.570   0.100E-11
     TRS4 it   9 1.00000000   0.158E-05       0.013     2186.198   0.100E-11
     TRS4 it  10 1.00000000   0.262E-11       0.013     2166.348   0.100E-11
     Final TRS4 iteration   10 1.00000000   0.262E-11
     Chemical potential (mu):       0.06069
 
 PAO| energy:  -191.52264362691702      penalty:   4.1450391505544866E-004
 PAO|LS| adapt:  T T T
 PAO|LS| adapt: scan_steps:    0.0000000000000000       0.56390297437587877        1.1278059487517575     
 PAO|LS| adapt: energies:   -191.52768336873405       -191.53094172325936       -191.52264362691702     
 PAO|LS| adapt: suggested step_size:   0.44094457506910856     
 PAO|LS| adapt: predicted energy  -191.53121645074566     
 PAO| ======================= Iteration:        26 =============================

     Lanczos converged:  F threshold:   0.100E-02
     Est. extremal eigenvalues:    0.479E+01   0.133E+00
     Est. condition number :    0.361E+02

 Order=           3
     NS sqrt iter    1 1.00000000   0.123E+01       0.021     2665.065
     NS sqrt iter    2 1.00000000   0.628E+00       0.034     3349.655
     NS sqrt iter    3 1.00000000   0.201E+00       0.034     3352.642
     NS sqrt iter    4 1.00000000   0.255E-01       0.034     3346.876
     NS sqrt iter    5 1.00000000   0.113E-03       0.034     3330.266
     NS sqrt iter    6 1.00000000   0.268E-10       0.019     2188.773
     Symmetrizing Results
     Final NS sqrt iter    6 1.00000000   0.224E-11

     Est. extremal eigenvalues     -0.84471     2.58091  converged:  T
     TRS4 it   1 1.00000000   0.286E+02       0.007     2093.924   0.100E-11
     TRS4 it   2 1.00000000   0.234E+02       0.013     2182.642   0.100E-11
     TRS4 it   3 1.00000000   0.155E+02       0.013     2162.194   0.100E-11
     TRS4 it   4 1.00000000   0.900E+01       0.013     2182.575   0.100E-11
     TRS4 it   5 1.00000000   0.372E+01       0.013     2162.611   0.100E-11
     TRS4 it   6 1.00000000   0.940E+00       0.013     2186.749   0.100E-11
     TRS4 it   7 1.00000000   0.111E+00       0.013     2185.103   0.100E-11
     TRS4 it   8 1.00000000   0.238E-02       0.013     2169.251   0.100E-11
     TRS4 it   9 1.00000000   0.172E-05       0.013     2168.245   0.100E-11
     TRS4 it  10 1.00000000   0.306E-11       0.013     2168.254   0.100E-11
     Final TRS4 iteration   10 1.00000000   0.306E-11
     Chemical potential (mu):       0.06015
 
 PAO| energy:  -191.53120615475973      penalty:   4.5578540409090386E-004
 PAO|CG| trace_G_new    1.2871541634201886E-002
 PAO|CG| trace_G_prev    1.5816269436259731E-002
 PAO|CG| trace_G_mix    2.4743690667536301E-004
 PAO|CG| trace_D    3.1181217234940405E-002
 PAO|CG| trace_D_Gnew  -7.5220927192091850E-005
 PAO|CG| beta:   0.79817208339818857     
 PAO| norm of gradient:  0.11345281677508887     
 PAO| energy improvement:  -3.5227860256838994E-003
 PAO| step     26                 -191.531206155  0.222E-03  0.441E+00     1.528
 PAO|LS| adapt:  T F F
 PAO|LS| adapt: scan_steps:    0.0000000000000000        0.0000000000000000        0.0000000000000000     
 PAO|LS| adapt: energies:   -191.53120615475973        0.0000000000000000        0.0000000000000000     
 PAO| ======================= Iteration:        27 =============================

     Lanczos converged:  F threshold:   0.100E-02
     Est. extremal eigenvalues:    0.478E+01   0.132E+00
     Est. condition number :    0.361E+02

 Order=           3
     NS sqrt iter    1 1.00000000   0.123E+01       0.021     2698.176
     NS sqrt iter    2 1.00000000   0.626E+00       0.034     3341.452
     NS sqrt iter    3 1.00000000   0.201E+00       0.034     3343.060
     NS sqrt iter    4 1.00000000   0.254E-01       0.034     3348.402
     NS sqrt iter    5 1.00000000   0.113E-03       0.034     3333.175
     NS sqrt iter    6 1.00000000   0.265E-10       0.019     2203.187
     Symmetrizing Results
     Final NS sqrt iter    6 1.00000000   0.226E-11

     Est. extremal eigenvalues     -0.84471     2.57822  converged:  T
     TRS4 it   1 1.00000000   0.286E+02       0.007     2085.329   0.100E-11
     TRS4 it   2 1.00000000   0.234E+02       0.013     2169.625   0.100E-11
     TRS4 it   3 1.00000000   0.155E+02       0.013     2183.755   0.100E-11
     TRS4 it   4 1.00000000   0.898E+01       0.013     2176.877   0.100E-11
     TRS4 it   5 1.00000000   0.370E+01       0.013     2178.722   0.100E-11
     TRS4 it   6 1.00000000   0.931E+00       0.013     2142.642   0.100E-11
     TRS4 it   7 1.00000000   0.109E+00       0.013     2152.716   0.100E-11
     TRS4 it   8 1.00000000   0.230E-02       0.013     2184.449   0.100E-11
     TRS4 it   9 1.00000000   0.161E-05       0.013     2166.586   0.100E-11
     TRS4 it  10 1.00000000   0.271E-11       0.013     2172.578   0.100E-11
     Final TRS4 iteration   10 1.00000000   0.271E-11
     Chemical potential (mu):       0.06058
 
 PAO| energy:  -191.53371968338664      penalty:   4.1847555706953012E-004
 PAO|LS| adapt:  T T F
 PAO|LS| adapt: scan_steps:    0.0000000000000000       0.44094457506910856        0.0000000000000000     
 PAO|LS| adapt: energies:   -191.53120615475973       -191.53371968338664        0.0000000000000000     
 PAO| ======================= Iteration:        28 =============================

     Lanczos converged:  F threshold:   0.100E-02
     Est. extremal eigenvalues:    0.476E+01   0.132E+00
     Est. condition number :    0.361E+02

 Order=           3
     NS sqrt iter    1 1.00000000   0.122E+01       0.021     2676.100
     NS sqrt iter    2 1.00000000   0.624E+00       0.034     3315.735
     NS sqrt iter    3 1.00000000   0.200E+00       0.034     3336.645
     NS sqrt iter    4 1.00000000   0.253E-01       0.034     3353.575
     NS sqrt iter    5 1.00000000   0.112E-03       0.034     3336.013
     NS sqrt iter    6 1.00000000   0.263E-10       0.019     2194.456
     Symmetrizing Results
     Final NS sqrt iter    6 1.00000000   0.225E-11

     Est. extremal eigenvalues     -0.84471     2.57537  converged:  T
     TRS4 it   1 1.00000000   0.286E+02       0.007     2139.224   0.100E-11
     TRS4 it   2 1.00000000   0.234E+02       0.013     2193.149   0.100E-11
     TRS4 it   3 1.00000000   0.155E+02       0.013     2175.048   0.100E-11
     TRS4 it   4 1.00000000   0.896E+01       0.013     2181.166   0.100E-11
     TRS4 it   5 1.00000000   0.368E+01       0.013     2179.805   0.100E-11
     TRS4 it   6 1.00000000   0.922E+00       0.013     2193.790   0.100E-11
     TRS4 it   7 1.00000000   0.107E+00       0.013     2171.295   0.100E-11
     TRS4 it   8 1.00000000   0.222E-02       0.013     2152.747   0.100E-11
     TRS4 it   9 1.00000000   0.151E-05       0.013     2179.696   0.100E-11
     TRS4 it  10 1.00000000   0.240E-11       0.013     2150.093   0.100E-11
     Final TRS4 iteration   10 1.00000000   0.240E-11
     Chemical potential (mu):       0.06101
 
 PAO| energy:  -191.52979939514890      penalty:   3.8440579329582062E-004
 PAO|LS| adapt:  T T T
 PAO|LS| adapt: scan_steps:    0.0000000000000000       0.44094457506910856       0.88188915013821711     
 PAO|LS| adapt: energies:   -191.53120615475973       -191.53371968338664       -191.52979939514890     
 PAO|LS| adapt: suggested step_size:   0.39273811909808887     
 PAO|LS| adapt: predicted energy  -191.53375813203704     
 PAO| ======================= Iteration:        29 =============================

     Lanczos converged:  F threshold:   0.100E-02
     Est. extremal eigenvalues:    0.478E+01   0.132E+00
     Est. condition number :    0.361E+02

 Order=           3
     NS sqrt iter    1 1.00000000   0.123E+01       0.021     2671.605
     NS sqrt iter    2 1.00000000   0.626E+00       0.034     3320.629
     NS sqrt iter    3 1.00000000   0.201E+00       0.034     3321.335
     NS sqrt iter    4 1.00000000   0.254E-01       0.034     3346.777
     NS sqrt iter    5 1.00000000   0.113E-03       0.034     3337.551
     NS sqrt iter    6 1.00000000   0.265E-10       0.019     2190.650
     Symmetrizing Results
     Final NS sqrt iter    6 1.00000000   0.226E-11

     Est. extremal eigenvalues     -0.84471     2.57852  converged:  T
     TRS4 it   1 1.00000000   0.286E+02       0.007     2107.338   0.100E-11
     TRS4 it   2 1.00000000   0.234E+02       0.013     2178.305   0.100E-11
     TRS4 it   3 1.00000000   0.155E+02       0.013     2161.312   0.100E-11
     TRS4 it   4 1.00000000   0.898E+01       0.013     2172.211   0.100E-11
     TRS4 it   5 1.00000000   0.370E+01       0.013     2178.605   0.100E-11
     TRS4 it   6 1.00000000   0.932E+00       0.013     2188.541   0.100E-11
     TRS4 it   7 1.00000000   0.109E+00       0.013     2151.813   0.100E-11
     TRS4 it   8 1.00000000   0.231E-02       0.013     2160.940   0.100E-11
     TRS4 it   9 1.00000000   0.162E-05       0.013     2195.267   0.100E-11
[...]
     Symmetrizing Results
     Final NS sqrt iter    6 1.00000000   0.182E-11

     Est. extremal eigenvalues     -0.84513     2.56249  converged:  T
     TRS4 it   1 1.00000000   0.288E+02       0.007     2098.160   0.100E-11
     TRS4 it   2 1.00000000   0.235E+02       0.013     2169.114   0.100E-11
     TRS4 it   3 1.00000000   0.157E+02       0.013     2172.915   0.100E-11
     TRS4 it   4 1.00000000   0.931E+01       0.013     2199.872   0.100E-11
     TRS4 it   5 1.00000000   0.419E+01       0.013     2159.743   0.100E-11
     TRS4 it   6 1.00000000   0.131E+01       0.013     2164.727   0.100E-11
     TRS4 it   7 1.00000000   0.238E+00       0.013     2159.117   0.100E-11
     TRS4 it   8 1.00000000   0.142E-01       0.013     2177.120   0.100E-11
     TRS4 it   9 1.00000000   0.871E-04       0.013     2183.569   0.100E-11
     TRS4 it  10 1.00000000   0.492E-08       0.013     2178.000   0.100E-11
     TRS4 it  11 1.00000000   0.178E-14       0.013     2169.582   0.100E-11
     Final TRS4 iteration   11 1.00000000   0.178E-14
     Chemical potential (mu):       0.02383
 
 PAO| energy:  -191.14732968394281      penalty:   1.3264372278441131E-008
 PAO| Writing restart file.
     Est. extremal eigenvalues     -0.84513     2.56249  converged:  T
     TRS4 it   1 1.00000000   0.288E+02       0.007     2084.315   0.100E-11
     TRS4 it   2 1.00000000   0.235E+02       0.013     2167.427   0.100E-11
     TRS4 it   3 1.00000000   0.157E+02       0.013     2147.462   0.100E-11
     TRS4 it   4 1.00000000   0.931E+01       0.013     2192.275   0.100E-11
     TRS4 it   5 1.00000000   0.419E+01       0.013     2160.033   0.100E-11
     TRS4 it   6 1.00000000   0.131E+01       0.013     2176.943   0.100E-11
     TRS4 it   7 1.00000000   0.238E+00       0.013     2170.141   0.100E-11
     TRS4 it   8 1.00000000   0.142E-01       0.013     2175.424   0.100E-11
     TRS4 it   9 1.00000000   0.871E-04       0.013     2139.360   0.100E-11
     TRS4 it  10 1.00000000   0.492E-08       0.013     2166.622   0.100E-11
     TRS4 it  11 1.00000000   0.178E-14       0.013     2194.619   0.100E-11
     Final TRS4 iteration   11 1.00000000   0.178E-14
     Chemical potential (mu):       0.02383

 SCF     1     -1103.038596704     -1103.038596704    1.766921

*********************************************************
 Using MIXING_FRACTION=0.450 to mix KS matrix:  iscf=  2
 KS_nw=0.450*KS + 0.550*KS_old
*********************************************************
     Est. extremal eigenvalues     -0.84512     2.56249  converged:  T
     TRS4 it   1 1.00000000   0.288E+02       0.007     2130.321   0.100E-11
     TRS4 it   2 1.00000000   0.235E+02       0.013     2148.248   0.100E-11
     TRS4 it   3 1.00000000   0.157E+02       0.013     2177.838   0.100E-11
     TRS4 it   4 1.00000000   0.931E+01       0.013     2175.479   0.100E-11
     TRS4 it   5 1.00000000   0.419E+01       0.013     2179.755   0.100E-11
     TRS4 it   6 1.00000000   0.131E+01       0.013     2167.843   0.100E-11
     TRS4 it   7 1.00000000   0.238E+00       0.013     2187.608   0.100E-11
     TRS4 it   8 1.00000000   0.142E-01       0.013     2165.399   0.100E-11
     TRS4 it   9 1.00000000   0.871E-04       0.013     2167.503   0.100E-11
     TRS4 it  10 1.00000000   0.492E-08       0.013     2197.034   0.100E-11
     TRS4 it  11 1.00000000   0.160E-13       0.013     2206.245   0.100E-11
     Final TRS4 iteration   11 1.00000000   0.160E-13
     Chemical potential (mu):       0.02383

 SCF     2     -1103.038596704        -0.000000000    1.771388


 SCF run converged in     2 steps.

 PAO| Storing density matrix for ASPC guess in slot:           1

 ENERGY| Total FORCE_EVAL ( QS ) energy [a.u.]:            -1103.038596703901248

 -------------------------------------------------------------------------------
 -                                                                             -
 -                                DBCSR STATISTICS                             -
 -                                                                             -
 -------------------------------------------------------------------------------
 COUNTER                                    TOTAL       BLAS       SMM       ACC
 flops     5 x     5 x     4             23116800       0.0%    100.0%      0.0%     
 flops    13 x     5 x     4             29818880       0.0%    100.0%      0.0%     
 flops     5 x    13 x     4             29818880       0.0%    100.0%      0.0%     
 flops    13 x    13 x     4             39370240       0.0%    100.0%      0.0%     
 flops     4 x     4 x     5           6609960960       0.0%    100.0%      0.0%     
 flops     5 x     4 x     5           8152678400       0.0%    100.0%      0.0%     
 flops     4 x     4 x    13           8592949248       0.0%    100.0%      0.0%     
 flops    13 x     4 x     5          10598481920       0.0%    100.0%      0.0%     
 flops     5 x     4 x    13          10598481920       0.0%    100.0%      0.0%     
 flops    13 x     4 x    13          13778026496       0.0%    100.0%      0.0%     
 flops     5 x     4 x     4         408613564160       0.0%    100.0%      0.0%     
 flops    13 x     4 x     4         536068698048       0.0%    100.0%      0.0%     
 flops     4 x     4 x     4       30470628348672       0.0%    100.0%      0.0%     
 flops inhomo. stacks                           0       0.0%      0.0%      0.0%
 flops total                        31.473763E+12       0.0%    100.0%      0.0%
 flops max/rank                    993.654819E+09       0.0%    100.0%      0.0%
 matmuls inhomo. stacks                         0       0.0%      0.0%      0.0%
 matmuls total                       242048190836       0.0%    100.0%      0.0%
 number of processed stacks             247274463       0.0%    100.0%      0.0%
 average stack size                                     0.0     978.9       0.0
 marketing flops                    54.479508E+12
 -------------------------------------------------------------------------------
 # multiplications                          51149
 max memory usage/rank             617.463808E+06
 # max total images/rank                        2
 # max 3D layers                                1
 # MPI messages exchanged                21277984
 MPI messages size (bytes):
  total size                         2.525365E+12
  min size                           0.000000E+00
  max size                         541.696000E+03
  average size                     118.684398E+03
 MPI breakdown and total messages size (bytes):
             size <=      128              906405                    14976
       128 < size <=     8192              348258               1317124224
      8192 < size <=    32768               32541                778660096
     32768 < size <=   131072             9149156             682449554432
    131072 < size <=  4194304            10841624            1841246189568
   4194304 < size <= 16777216                   0                        0
  16777216 < size                               0                        0
 -------------------------------------------------------------------------------

 *** WARNING in dbcsr_mm.F:301 :: Using a non-square number of MPI ranks ***
 *** might lead to poor performance. Used ranks: 32 Suggested: 36 64     ***

 -------------------------------------------------------------------------------
 -                                                                             -
 -                      DBCSR MESSAGE PASSING PERFORMANCE                      -
 -                                                                             -
 -------------------------------------------------------------------------------
 ROUTINE             CALLS      AVE VOLUME [Bytes]
 MP_Bcast               14                     12.
 MP_Allreduce       308122                     37.
 MP_Alltoall        131977                  14555.
 MP_ISend          1712188                  55203.
 MP_IRecv          1674478                  56523.
 -------------------------------------------------------------------------------

 -------------------------------------------------------------------------------
 -                                                                             -
 -                                DBM STATISTICS                               -
 -                                                                             -
 -------------------------------------------------------------------------------
    M  x    N  x    K                                          COUNT     PERCENT
 -------------------------------------------------------------------------------

 -------------------------------------------------------------------------------
 -                                                                             -
 -                                GRID STATISTICS                              -
 -                                                                             -
 -------------------------------------------------------------------------------
 LP    KERNEL             BACKEND                              COUNT     PERCENT
 2     collocate ortho    CPU                               11471852      28.83%
 2     integrate ortho    CPU                               11471852      28.83%
 3     collocate ortho    CPU                                7374682      18.53%
 3     integrate ortho    CPU                                7374682      18.53%
 4     collocate ortho    CPU                                1048460       2.63%
 4     integrate ortho    CPU                                1048460       2.63%
 0     collocate general  CPU                                   6144       0.02%
 -------------------------------------------------------------------------------

 MEMORY| Estimated peak process memory [MiB]                                 589

 -------------------------------------------------------------------------------
 -                                                                             -
 -                         MESSAGE PASSING PERFORMANCE                         -
 -                                                                             -
 -------------------------------------------------------------------------------

 ROUTINE             CALLS      AVE VOLUME [Bytes]
 MP_Group                5
 MP_Bcast           414397                   1827.
 MP_Allreduce      1029400                    514.
 MP_Sync                 5
 MP_Alltoall           369                6796389.
 MP_SendRecv          1302                  18832.
 MP_ISendRecv         1302                  18832.
 MP_Wait              3696
 MP_ISend             2166                 108220.
 MP_IRecv             2166                 108236.
 -------------------------------------------------------------------------------


 -------------------------------------------------------------------------------
 -                                                                             -
 -                           R E F E R E N C E S                               -
 -                                                                             -
 -------------------------------------------------------------------------------
 
 CP2K version 2024.3 (Development Version), the CP2K developers group (2024).
 CP2K is freely available from https://www.cp2k.org/ .
 
 T. D. Kuehne, M. Iannuzzi, M. Del Ben, V. V. Rybkin, P. Seewald, F. Stein, T. 
 Laino, R. Z. Khaliullin, O. Schuett, F. Schiffmann, D. Golze, J. Wilhelm, S. 
 Chulkov, M. H. Bani-Hashemian, V. Weber, U. Borstnik, M. Taillefumier, A. S. 
 Jakobovits, A. Lazzaro, H. Pabst, T. Mueller, R. Schade, M. Guidon, S. 
 Andermatt, N. Holmberg, G. K. Schenter, A. Hehn, A. Bussy, F. Belleflamme, G. 
 Tabacchi, A. Gloess, M. Lass, I. Bethune, C. J. Mundy, C. Plessl, M. Watkins, 
 J. VandeVondele, M. Krack, J. Hutter.
 J. Chem. Phys. 152, 194103 (2020).
 CP2K: An electronic structure and molecular dynamics software package - 
 Quickstep: Efficient and accurate electronic structure calculations.
 https://doi.org/10.1063/5.0007045

 O. Schuett, J. VandeVondele.
 J. Chem. Theory Comput. 14, 4168-4175 (2018).
 Machine Learning Adaptive Basis Sets for Efficient Large Scale Density 
 Functional Theory Simulation.
 https://doi.org/10.1021/acs.jctc.8b00378

 O. Schuett, P. Messmer, J. Hutter, J. VandeVondele.
 Electronic Structure Calculations on Graphics Processing Units, 173-190 (2016).
 GPU-Accelerated Sparse Matrix-Matrix Multiplication for Linear Scaling Density 
 Functional Theory.
 https://doi.org/10.1002/9781118670712.ch8

 A. Heinecke, G. Henry, M. Hutchinson, H. Pabst.
 Proceedings of Intl. Supercomputing Conference, 981-991 (2016).
 LIBXSMM: Accelerating Small Matrix Multiplications by Runtime Code Generation.
 https://doi.org/10.1109/SC.2016.83

 J. Hutter, M. Iannuzzi, F. Schiffmann, J. VandeVondele.
 WIREs Comput Mol Sci. 4, 15-25 (2014).
 CP2K: atomistic simulations of condensed matter systems.
 https://doi.org/10.1002/wcms.1159

 U. Borstnik, J. VandeVondele, V. Weber, J. Hutter.
 Parallel Comput. 40, 47-58 (2014).
 Sparse matrix multiplication: The distributed block-compressed sparse row 
 library.
 https://doi.org/10.1016/j.parco.2014.03.012

 A. Marek, V. Blum, R. Johanni, V. Havu, B. Lang, T. Auckenthaler, A. Heinecke, 
 H. Bungartz, H. Lederer.
 J. Phys. Condens. Matter 26, 213201 (2014).
 The ELPA library: scalable parallel eigenvalue solutions for electronic 
 structure theory and computational science.
 https://doi.org/10.1088/0953-8984/26/21/213201

 J. VandeVondele, U. Borstnik, J. Hutter.
 J. Chem. Theory Comput. 8, 3565-3573 (2012).
 Linear Scaling Self-Consistent Field Calculations with Millions of Atoms in the 
 Condensed Phase.
 https://doi.org/10.1021/ct200897x

 J. VandeVondele, J. Hutter.
 J. Chem. Phys. 127, 114105 (2007).
 Gaussian basis sets for accurate calculations on molecular systems in gas and 
 condensed phases.
 https://doi.org/10.1063/1.2770708

 J. VandeVondele, M. Krack, F. Mohamed, M. Parrinello, T. Chassaing, J. Hutter.
 Comput. Phys. Commun. 167, 103-128 (2005).
 QUICKSTEP: Fast and accurate density functional calculations using a mixed 
 Gaussian and plane waves approach.
 https://doi.org/10.1016/j.cpc.2004.12.014

 M. Krack.
 Theor. Chem. Acc. 114, 145-152 (2005).
 Pseudopotentials for H to Kr optimized for gradient-corrected 
 exchange-correlation functionals.
 https://doi.org/10.1007/s00214-005-0655-y

 M. Frigo, S. G. Johnson.
 Proc. IEEE 93, 216-231 (2005).
 The design and implementation of FFTW3.
 https://doi.org/10.1109/JPROC.2004.840301

 A. M. N. Niklasson, C. J. Tymczak, M. Challacombe.
 J. Chem. Phys. 118, 8611-8620 (2003).
 Trace resetting density matrix purification in O(N) self-consistent-field 
 theory.
 https://doi.org/10.1063/1.1559913

 C. Hartwigsen, S. Goedecker, J. Hutter.
 Phys. Rev. B 58, 3641-3662 (1998).
 Relativistic separable dual-space Gaussian pseudopotentials from H to Rn.
 https://doi.org/10.1103/PhysRevB.58.3641

 G. Lippert, J. Hutter, M. Parrinello.
 Mol. Phys. 92, 477-487 (1997).
 A hybrid Gaussian and plane wave density functional scheme.
 https://doi.org/10.1080/002689797170220

 S. Goedecker, M. Teter, J. Hutter.
 Phys. Rev. B 54, 1703-1710 (1996).
 Separable dual-space Gaussian pseudopotentials.
 https://doi.org/10.1103/PhysRevB.54.1703

 J. P. Perdew, K. Burke, M. Ernzerhof.
 Phys. Rev. Lett. 77, 3865-3868 (1996).
 Generalized gradient approximation made simple.
 https://doi.org/10.1103/PhysRevLett.77.3865


 -------------------------------------------------------------------------------
 -                                                                             -
 -                                T I M I N G                                  -
 -                                                                             -
 -------------------------------------------------------------------------------
 SUBROUTINE                       CALLS  ASD         SELF TIME        TOTAL TIME
                                MAXIMUM       AVERAGE  MAXIMUM  AVERAGE  MAXIMUM
 CP2K                                 1  1.0    0.012    0.015  463.332  463.333
 qs_energies                          1  2.0    0.000    0.000  463.186  463.187
 ls_scf                               1  3.0    0.000    0.000  462.109  462.109
 pao_update                           6  4.0    0.006    0.024  435.791  435.794
 pao_calc_energy                    831  5.0    0.003    0.018  391.689  391.693
 dbcsr_multiply_generic           51149  8.4    1.400    1.475  359.673  359.936
 multiply_cannon                  51149  9.4    2.645    2.926  291.811  294.446
 multiply_cannon_loop             51149 10.4    1.952    2.237  280.958  284.145
 ls_scf_init_matrix_S               837  7.0    0.008    0.009  218.917  218.970
 pao_rebuild_S                      831  6.0    0.003    0.003  217.337  217.391
 matrix_sqrt_Newton_Schulz          837  8.0    0.172    0.285  203.160  203.214
 multiply_cannon_multrec         409192 11.4  180.979  182.635  181.815  183.506
 pao_dm_trs4                        831  6.0    0.006    0.006  173.974  173.991
 density_matrix_trs4                844  7.0    0.217    0.363  167.663  167.743
 mp_waitall_1                   3275066 12.6   95.590  102.986   95.590  102.986
 multiply_cannon_metrocomm3      409192 11.4    0.723    0.780   77.212   81.135
 arnoldi_extremal                  1681  8.5    0.013    0.015   68.123   68.182
 arnoldi_normal_ev                 1681  9.5    0.039    0.068   68.107   68.165
 build_subspace                    6696 10.6    0.406    0.435   59.708   59.761
 dbcsr_matrix_vector_mult        204242 11.6    0.873    1.310   56.409   56.833
 make_m2s                        102298  9.4    0.554    0.676   52.662   53.914
 make_images                     102298 10.4    7.503    7.684   51.279   52.602
 dbcsr_matrix_vector_mult_local  204242 12.6   48.114   48.524   48.342   48.752
 pao_calc_AB                       1101  5.8    0.002    0.002   43.633   43.637
 pao_calc_AB_equi                  1101  6.8    0.041    0.102   43.631   43.635
 pao_calc_grad_lnv_wrt_AB           269  7.0    0.020    0.024   43.220   43.249
 make_images_data                102298 11.4    0.872    1.085   22.668   25.151
 ls_scf_main                          6  4.0    0.000    0.001   23.035   23.037
 hybrid_alltoall_any             103968 12.3    0.916    1.758   17.788   21.663
 ls_scf_dm_to_ks                     13  5.0    0.000    0.000   20.289   20.294
 matrix_qs_to_ls                   1681  7.5    0.016    0.020   17.741   17.863
 calculate_norms                 764144 11.4   11.947   12.934   11.947   12.934
 qs_ks_update_qs_env                 14  6.0    0.000    0.000   12.191   12.196
 rebuild_ks_matrix                   14  7.0    0.000    0.000   12.181   12.186
 qs_ks_build_kohn_sham_matrix        14  8.0    0.002    0.003   12.181   12.186
 make_images_pack                102298 11.4   11.326   11.722   11.464   11.863
 mp_sum_l                        209080  9.5    7.536   11.728    7.536   11.728
 qs_rho_update_rho_low               14  6.0    0.000    0.000    9.576    9.578
 calculate_rho_elec                  14  7.0    0.005    0.005    9.576    9.578
 -------------------------------------------------------------------------------

 The number of warnings for this run is : 1
 
 -------------------------------------------------------------------------------
  **** **** ******  **  PROGRAM ENDED AT                 2024-09-24 01:45:14.630
 ***** ** ***  *** **   PROGRAM RAN ON                                    moritz
 **    ****   ******    PROGRAM RAN BY                                       ole
 ***** **    ** ** **   PROGRAM PROCESS ID                                166230
  **** **  *******  **  PROGRAM STOPPED IN /home/ole/git/pao_ml_equivar/64H2O_MD
                                           /Frame2700
