 DBCSR| CPU Multiplication driver                                           XSMM (U)
 DBCSR| Multrec recursion limit                                              512 (U)
 DBCSR| Multiplication stack size                                           1000 (D)
 DBCSR| Maximum elements for images                                    UNLIMITED (U)
 DBCSR| Multiplicative factor virtual images                                   1 (U)
 DBCSR| Use multiplication densification                                       T (D)
 DBCSR| Multiplication size stacks                                             3 (U)
 DBCSR| Use memory pool for CPU allocation                                     F (U)
 DBCSR| Number of 3D layers                                               SINGLE (U)
 DBCSR| Use MPI memory allocation                                              F (U)
 DBCSR| Use RMA algorithm                                                      F (U)
 DBCSR| Use Communication thread                                               T (U)
 DBCSR| Communication thread load                                             87 (D)
 DBCSR| MPI: My process id                                                     0
 DBCSR| MPI: Number of processes                                              32
 DBCSR| OMP: Current number of threads                                         1
 DBCSR| OMP: Max number of threads                                             1
 DBCSR| Split modifier for TAS multiplication algorithm                  1.0E+00 (U)


  **** **** ******  **  PROGRAM STARTED AT               2024-09-23 17:38:52.392
 ***** ** ***  *** **   PROGRAM STARTED ON                                moritz
 **    ****   ******    PROGRAM STARTED BY                                   ole
 ***** **    ** ** **   PROGRAM PROCESS ID                                157328
  **** **  *******  **  PROGRAM STARTED IN /home/ole/git/pao_ml_equivar/64H2O_MD
                                           /Frame2700

 CP2K| version string:                 CP2K version 2024.3 (Development Version)
 CP2K| source code revision number:                                  git:3f890bb
 CP2K| cp2kflags: omp libint fftw3 libxc libgrpp pexsi elpa parallel scalapack c
 CP2K|            osma quip deepmd xsmm plumed2 spglib libdftd4 sirius libvori l
 CP2K|            libbqb libvdwxc hdf5
 CP2K| is freely available from                            https://www.cp2k.org/
 CP2K| Program compiled at                          Mo 23 Sep 2024 17:17:04 CEST
 CP2K| Program compiled on                                                moritz
 CP2K| Program compiled for                                                local
 CP2K| Data directory path                               /home/ole/git/cp2k/data
 CP2K| Input file name                                             64H2O_ref.inp

 GLOBAL| Force Environment number                                              1
 GLOBAL| Basis set file name                                        BASIS_MOLOPT
 GLOBAL| Potential file name                                      GTH_POTENTIALS
 GLOBAL| MM Potential file name                                     MM_POTENTIAL
 GLOBAL| Coordinate file name                                         coords.xyz
 GLOBAL| Method name                                                        CP2K
 GLOBAL| Project name                                                  64H2O_ref
 GLOBAL| Run type                                                         ENERGY
 GLOBAL| FFT library                                                       FFTW3
 GLOBAL| Diagonalization library                                            ELPA
 GLOBAL| DGEMM library                                                      BLAS
 GLOBAL| Minimum number of eigenvectors for ELPA usage                        16
 GLOBAL| Orthonormality check for eigenvectors                          DISABLED
 GLOBAL| Matrix multiplication library                                     COSMA
 GLOBAL| All-to-all communication in single precision                          F
 GLOBAL| FFTs using library dependent lengths                                  F
 GLOBAL| Grid backend                                                       AUTO
 GLOBAL| Global print level                                                  LOW
 GLOBAL| MPI I/O enabled                                                       T
 GLOBAL| Total number of message passing processes                            32
 GLOBAL| Number of threads for this process                                    1
 GLOBAL| This output is from process                                           0
 GLOBAL| Stack size for threads created by OpenMP (OMP_STACKSIZE)        default
 GLOBAL| CPU model name           AMD Ryzen Threadripper 3970X 32-Core Processor
 GLOBAL| CPUID                                                              1002

 MEMORY| system memory details [Kb]
 MEMORY|                        rank 0           min           max       average
 MEMORY| MemTotal            131752136     131752136     131752136     131752136
 MEMORY| MemFree             118285908     118285908     118285908     118285908
 MEMORY| Buffers                259892        259892        259892        259892
 MEMORY| Cached                7166344       7166344       7166344       7166344
 MEMORY| Slab                   707644        707644        707644        707644
 MEMORY| SReclaimable           272560        272560        272560        272560
 MEMORY| MemLikelyFree       125984704     125984704     125984704     125984704


 GENERATE|  Preliminary Number of Bonds generated:                             0
 GENERATE|  Achieved consistency in connectivity generation.

 *******************************************************************************
 *******************************************************************************
 **                                                                           **
 **     #####                         ##              ##                      **
 **    ##   ##            ##          ##              ##                      **
 **   ##     ##                       ##            ######                    **
 **   ##     ##  ##   ##  ##   #####  ##  ##   ####   ##    #####    #####    **
 **   ##     ##  ##   ##  ##  ##      ## ##   ##      ##   ##   ##  ##   ##   **
 **   ##  ## ##  ##   ##  ##  ##      ####     ###    ##   ######   ######    **
 **    ##  ###   ##   ##  ##  ##      ## ##      ##   ##   ##       ##        **
 **     #######   #####   ##   #####  ##  ##  ####    ##    #####   ##        **
 **           ##                                                    ##        **
 **                                                                           **
 **                                                ... make the atoms dance   **
 **                                                                           **
 **            Copyright (C) by CP2K developers group (2000-2024)             **
 **                      J. Chem. Phys. 152, 194103 (2020)                    **
 **                                                                           **
 *******************************************************************************


 TOTAL NUMBERS AND MAXIMUM NUMBERS

  Total number of            - Atomic kinds:                                   2
                             - Atoms:                                        192
                             - Shell sets:                                   192
                             - Shells:                                       704
                             - Primitive Cartesian functions:               1344
                             - Cartesian basis functions:                   1536
                             - Spherical basis functions:                   1472

  Maximum angular momentum of- Orbital basis functions:                        2
                             - Local part of the GTH pseudopotential:          2
                             - Non-local part of the GTH pseudopotential:      0

 ------------------------------ Linear scaling SCF -----------------------------
 eps_scf:                                                              0.100E-07
 eps_filter:                                                           0.100E-11
 mixing_fraction:                                                      0.450E+00
 max_scf:                                                                     25
 fixed chemical potential (mu)                                                 F
 has unit metric:                                                              F
 Computing inv(S):                                                             T
 Computing sqrt(S):                                                            T
 Computing S preconditioner                                                    F
 S sqrt method:                                                     NEWTONSCHULZ
 S sqrt order:                                                                 3
 Extrapolation order:                                                          1
 S preconditioner type                                                      NONE
 Polarized Atomic Orbitals (PAO)                                               F
 Purification method                                   Trace resetting 4th order
 Cluster type                                                             ATOMIC
 Computing Chebyshev                                                       FALSE
 Using PAO                                                                     F
 -------------------------------------------------------------------------------


     Lanczos converged:  F threshold:   0.100E-02
     Est. extremal eigenvalues:    0.869E+01   0.564E-02
     Est. condition number :    0.154E+04

 Order=           3
     NS sqrt iter    1 1.00000000   0.224E+01       0.065     6212.158
     NS sqrt iter    2 1.00000000   0.118E+01       0.100     8008.555
     NS sqrt iter    3 1.00000000   0.583E+00       0.099     8077.024
     NS sqrt iter    4 1.00000000   0.336E+00       0.099     8045.864
     NS sqrt iter    5 1.00000000   0.227E+00       0.099     8061.786
     NS sqrt iter    6 1.00000000   0.108E+00       0.098     8098.782
     NS sqrt iter    7 1.00000000   0.141E-01       0.098     8101.582
     NS sqrt iter    8 1.00000000   0.800E-04       0.099     8061.126
     NS sqrt iter    9 1.00000000   0.628E-10       0.068     6024.006
     Symmetrizing Results
     Final NS sqrt iter    9 1.00000000   0.711E-11



 Guess for atomic kind: O

 Electronic structure
    Total number of core electrons                                          2.00
    Total number of valence electrons                                       6.00
    Total number of electrons                                               8.00
    Multiplicity                                                   not specified
    S   [  2.00] 2.00
    P      4.00


 *******************************************************************************
                  Iteration          Convergence                     Energy [au]
 *******************************************************************************
                          1        0.708315                     -15.576645311500
                          2        0.608879                     -15.587933561584
                          3        0.102828E-01                 -15.656849565404
                          4        0.113889E-02                 -15.656866888140
                          5        0.434197E-03                 -15.656867072159
                          6        0.263771E-03                 -15.656867091904
                          7        0.478536E-06                 -15.656867103452

 Energy components [Hartree]           Total Energy ::          -15.656867103452
                                        Band Energy ::           -3.000198112285
                                     Kinetic Energy ::           11.759971203220
                                   Potential Energy ::          -27.416838306672
                                      Virial (-V/T) ::            2.331369510426
                                        Core Energy ::          -26.140716385623
                                          XC Energy ::           -3.154051012914
                                     Coulomb Energy ::           13.637900295084
                       Total Pseudopotential Energy ::          -37.935781716540
                       Local Pseudopotential Energy ::          -39.218907440693
                    Nonlocal Pseudopotential Energy ::            1.283125724153
                                        Confinement ::            0.350941276976

 Orbital energies  State     L     Occupation   Energy[a.u.]          Energy[eV]

                       1     0          2.000      -0.864471          -23.523463

                       1     1          4.000      -0.317814           -8.648154


 Total Electron Density at R=0:                                         0.000068

 Guess for atomic kind: H

 Electronic structure
    Total number of core electrons                                          0.00
    Total number of valence electrons                                       1.00
    Total number of electrons                                               1.00
    Multiplicity                                                   not specified
    S      1.00


 *******************************************************************************
                  Iteration          Convergence                     Energy [au]
 *******************************************************************************
                          1        0.437545E-02                  -0.424159432110
                          2        0.531356E-03                  -0.424178438213
                          3        0.259176E-06                  -0.424178722480

 Energy components [Hartree]           Total Energy ::           -0.424178722480
                                        Band Energy ::           -0.199015229016
                                     Kinetic Energy ::            0.464007633961
                                   Potential Energy ::           -0.888186356441
                                      Virial (-V/T) ::            1.914163240935
                                        Core Energy ::           -0.479160803564
                                          XC Energy ::           -0.244352904054
                                     Coulomb Energy ::            0.299334985138
                       Total Pseudopotential Energy ::           -0.962295316385
                       Local Pseudopotential Energy ::           -0.962295316385
                    Nonlocal Pseudopotential Energy ::            0.000000000000
                                        Confinement ::            0.191268788606

 Orbital energies  State     L     Occupation   Energy[a.u.]          Energy[eV]

                       1     0          1.000      -0.199015           -5.415480


 Total Electron Density at R=0:                                         0.242907
 Re-scaling the density matrix to get the right number of electrons
                  # Electrons              Trace(P)               Scaling factor
                          512               512.001                        1.000
 Energy with the initial guess:     -1095.835540034

     Est. extremal eigenvalues     -0.94766     5.22324  converged:  T
     TRS4 it   1 1.00000000   0.566E+02       0.018     5425.414   0.100E-11
     TRS4 it   2 1.00000000   0.538E+02       0.019     5393.378   0.100E-11
     TRS4 it   3 1.00000000   0.337E+02       0.036     5497.381   0.100E-11
     TRS4 it   4 1.00000000   0.177E+02       0.035     5676.403   0.100E-11
     TRS4 it   5 1.00000000   0.107E+02       0.036     5622.072   0.100E-11
     TRS4 it   6 1.00000000   0.486E+01       0.036     5539.583   0.100E-11
     TRS4 it   7 1.00000000   0.144E+01       0.036     5507.766   0.100E-11
     TRS4 it   8 1.00000000   0.217E+00       0.036     5643.694   0.100E-11
     TRS4 it   9 1.00000000   0.918E-02       0.036     5586.677   0.100E-11
     TRS4 it  10 1.00000000   0.249E-04       0.036     5606.845   0.100E-11
     TRS4 it  11 1.00000000   0.588E-10       0.035     5702.865   0.100E-11
     Final TRS4 iteration   11 1.00000000   0.588E-10
     Chemical potential (mu):      -0.10647

 SCF     1     -1097.928191633     -1097.928191633    2.050853

*********************************************************
 Using MIXING_FRACTION=0.450 to mix KS matrix:  iscf=  2
 KS_nw=0.450*KS + 0.550*KS_old
*********************************************************
     Est. extremal eigenvalues     -0.83691     5.31331  converged:  F
     TRS4 it   1 1.00000000   0.558E+02       0.019     5261.535   0.100E-11
     TRS4 it   2 1.00000000   0.541E+02       0.019     5284.515   0.100E-11
     TRS4 it   3 1.00000000   0.349E+02       0.037     5485.107   0.100E-11
     TRS4 it   4 1.00000000   0.184E+02       0.037     5457.683   0.100E-11
     TRS4 it   5 1.00000000   0.119E+02       0.036     5503.863   0.100E-11
     TRS4 it   6 1.00000000   0.622E+01       0.036     5592.010   0.100E-11
     TRS4 it   7 1.00000000   0.249E+01       0.036     5503.475   0.100E-11
     TRS4 it   8 1.00000000   0.687E+00       0.036     5628.946   0.100E-11
     TRS4 it   9 1.00000000   0.104E+00       0.037     5469.967   0.100E-11
     TRS4 it  10 1.00000000   0.584E-02       0.036     5536.150   0.100E-11
     TRS4 it  11 1.00000000   0.159E-04       0.037     5472.810   0.100E-11
     TRS4 it  12 1.00000000   0.227E-09       0.035     5687.422   0.100E-11
     Final TRS4 iteration   12 1.00000000   0.227E-09
     Chemical potential (mu):      -0.01527

 SCF     2     -1102.967144854        -5.038953222    2.095804

*********************************************************
 Using MIXING_FRACTION=0.450 to mix KS matrix:  iscf=  3
 KS_nw=0.450*KS + 0.550*KS_old
*********************************************************
     Est. extremal eigenvalues     -0.85214     5.30602  converged:  T
     TRS4 it   1 1.00000000   0.560E+02       0.019     5374.850   0.100E-11
     TRS4 it   2 1.00000000   0.540E+02       0.018     5482.213   0.100E-11
     TRS4 it   3 1.00000000   0.348E+02       0.037     5481.501   0.100E-11
     TRS4 it   4 1.00000000   0.184E+02       0.036     5625.501   0.100E-11
     TRS4 it   5 1.00000000   0.118E+02       0.036     5650.793   0.100E-11
     TRS4 it   6 1.00000000   0.609E+01       0.037     5454.460   0.100E-11
     TRS4 it   7 1.00000000   0.237E+01       0.036     5556.399   0.100E-11
     TRS4 it   8 1.00000000   0.619E+00       0.036     5591.346   0.100E-11
     TRS4 it   9 1.00000000   0.841E-01       0.037     5464.162   0.100E-11
     TRS4 it  10 1.00000000   0.362E-02       0.036     5527.859   0.100E-11
     TRS4 it  11 1.00000000   0.576E-05       0.035     5658.927   0.100E-11
     TRS4 it  12 1.00000000   0.282E-10       0.036     5554.818   0.100E-11
     Final TRS4 iteration   12 1.00000000   0.282E-10
     Chemical potential (mu):      -0.02409

 SCF     3     -1103.122462500        -0.155317646    2.096438

*********************************************************
 Using MIXING_FRACTION=0.450 to mix KS matrix:  iscf=  4
 KS_nw=0.450*KS + 0.550*KS_old
*********************************************************
     Est. extremal eigenvalues     -0.84642     5.31145  converged:  T
     TRS4 it   1 1.00000000   0.560E+02       0.019     5405.913   0.100E-11
     TRS4 it   2 1.00000000   0.540E+02       0.019     5404.364   0.100E-11
     TRS4 it   3 1.00000000   0.348E+02       0.036     5546.994   0.100E-11
     TRS4 it   4 1.00000000   0.185E+02       0.036     5550.407   0.100E-11
     TRS4 it   5 1.00000000   0.119E+02       0.035     5700.470   0.100E-11
     TRS4 it   6 1.00000000   0.616E+01       0.036     5601.532   0.100E-11
     TRS4 it   7 1.00000000   0.242E+01       0.036     5618.270   0.100E-11
     TRS4 it   8 1.00000000   0.654E+00       0.036     5600.178   0.100E-11
     TRS4 it   9 1.00000000   0.955E-01       0.036     5596.137   0.100E-11
     TRS4 it  10 1.00000000   0.500E-02       0.035     5672.682   0.100E-11
     TRS4 it  11 1.00000000   0.146E-04       0.035     5662.369   0.100E-11
     TRS4 it  12 1.00000000   0.240E-09       0.036     5524.665   0.100E-11
     Final TRS4 iteration   12 1.00000000   0.240E-09
     Chemical potential (mu):      -0.01714

 SCF     4     -1103.130193452        -0.007730952    2.075085

*********************************************************
 Using MIXING_FRACTION=0.450 to mix KS matrix:  iscf=  5
 KS_nw=0.450*KS + 0.550*KS_old
*********************************************************
     Est. extremal eigenvalues     -0.84636     5.31237  converged:  T
     TRS4 it   1 1.00000000   0.560E+02       0.019     5361.899   0.100E-11
     TRS4 it   2 1.00000000   0.540E+02       0.019     5353.615   0.100E-11
     TRS4 it   3 1.00000000   0.348E+02       0.036     5542.894   0.100E-11
     TRS4 it   4 1.00000000   0.185E+02       0.036     5547.022   0.100E-11
     TRS4 it   5 1.00000000   0.119E+02       0.036     5540.032   0.100E-11
     TRS4 it   6 1.00000000   0.617E+01       0.036     5582.497   0.100E-11
     TRS4 it   7 1.00000000   0.243E+01       0.036     5620.194   0.100E-11
     TRS4 it   8 1.00000000   0.656E+00       0.037     5495.288   0.100E-11
     TRS4 it   9 1.00000000   0.963E-01       0.036     5525.009   0.100E-11
     TRS4 it  10 1.00000000   0.508E-02       0.036     5574.900   0.100E-11
     TRS4 it  11 1.00000000   0.152E-04       0.036     5621.987   0.100E-11
     TRS4 it  12 1.00000000   0.261E-09       0.036     5546.461   0.100E-11
     TRS4 it  13 1.00000000   0.231E-13       0.036     5593.672   0.100E-11
     Final TRS4 iteration   13 1.00000000   0.231E-13
     Chemical potential (mu):      -0.01816

 SCF     5     -1103.130813611        -0.000620159    2.122890

*********************************************************
 Using MIXING_FRACTION=0.450 to mix KS matrix:  iscf=  6
 KS_nw=0.450*KS + 0.550*KS_old
*********************************************************
     Est. extremal eigenvalues     -0.84549     5.31318  converged:  T
     TRS4 it   1 1.00000000   0.560E+02       0.022     4505.697   0.100E-11
     TRS4 it   2 1.00000000   0.540E+02       0.022     4487.495   0.100E-11
     TRS4 it   3 1.00000000   0.348E+02       0.044     4518.376   0.100E-11
     TRS4 it   4 1.00000000   0.185E+02       0.043     4635.340   0.100E-11
     TRS4 it   5 1.00000000   0.119E+02       0.041     4912.254   0.100E-11
     TRS4 it   6 1.00000000   0.618E+01       0.035     5698.145   0.100E-11
     TRS4 it   7 1.00000000   0.243E+01       0.036     5561.697   0.100E-11
     TRS4 it   8 1.00000000   0.660E+00       0.036     5609.096   0.100E-11
     TRS4 it   9 1.00000000   0.978E-01       0.036     5563.996   0.100E-11
     TRS4 it  10 1.00000000   0.530E-02       0.036     5598.823   0.100E-11
     TRS4 it  11 1.00000000   0.174E-04       0.036     5621.551   0.100E-11
     TRS4 it  12 1.00000000   0.353E-09       0.036     5607.945   0.100E-11
     TRS4 it  13 1.00000000   0.124E-13       0.036     5543.901   0.100E-11
     Final TRS4 iteration   13 1.00000000   0.124E-13
     Chemical potential (mu):      -0.01704

 SCF     6     -1103.130907212        -0.000093600    2.157185

*********************************************************
 Using MIXING_FRACTION=0.450 to mix KS matrix:  iscf=  7
 KS_nw=0.450*KS + 0.550*KS_old
*********************************************************
     Est. extremal eigenvalues     -0.84524     5.31352  converged:  T
     TRS4 it   1 1.00000000   0.560E+02       0.019     5370.890   0.100E-11
     TRS4 it   2 1.00000000   0.540E+02       0.018     5598.705   0.100E-11
     TRS4 it   3 1.00000000   0.348E+02       0.037     5420.410   0.100E-11
     TRS4 it   4 1.00000000   0.185E+02       0.036     5600.319   0.100E-11
     TRS4 it   5 1.00000000   0.119E+02       0.036     5581.943   0.100E-11
     TRS4 it   6 1.00000000   0.618E+01       0.036     5593.371   0.100E-11
     TRS4 it   7 1.00000000   0.244E+01       0.036     5633.584   0.100E-11
     TRS4 it   8 1.00000000   0.662E+00       0.036     5621.416   0.100E-11
     TRS4 it   9 1.00000000   0.983E-01       0.036     5591.061   0.100E-11
     TRS4 it  10 1.00000000   0.536E-02       0.036     5570.815   0.100E-11
     TRS4 it  11 1.00000000   0.179E-04       0.036     5540.235   0.100E-11
     TRS4 it  12 1.00000000   0.377E-09       0.036     5620.998   0.100E-11
     TRS4 it  13 1.00000000   0.000E+00       0.036     5606.295   0.100E-11
     Final TRS4 iteration   13 1.00000000   0.000E+00
     Chemical potential (mu):      -0.01664

 SCF     7     -1103.130927192        -0.000019981    2.117285

*********************************************************
 Using MIXING_FRACTION=0.450 to mix KS matrix:  iscf=  8
 KS_nw=0.450*KS + 0.550*KS_old
*********************************************************
     Est. extremal eigenvalues     -0.84503     5.31371  converged:  T
     TRS4 it   1 1.00000000   0.560E+02       0.019     5338.012   0.100E-11
     TRS4 it   2 1.00000000   0.540E+02       0.019     5332.513   0.100E-11
     TRS4 it   3 1.00000000   0.348E+02       0.036     5593.657   0.100E-11
     TRS4 it   4 1.00000000   0.185E+02       0.036     5575.112   0.100E-11
     TRS4 it   5 1.00000000   0.119E+02       0.036     5622.792   0.100E-11
     TRS4 it   6 1.00000000   0.618E+01       0.036     5632.513   0.100E-11
     TRS4 it   7 1.00000000   0.244E+01       0.036     5522.979   0.100E-11
     TRS4 it   8 1.00000000   0.662E+00       0.036     5609.706   0.100E-11
     TRS4 it   9 1.00000000   0.986E-01       0.036     5588.669   0.100E-11
     TRS4 it  10 1.00000000   0.540E-02       0.036     5572.989   0.100E-11
     TRS4 it  11 1.00000000   0.184E-04       0.036     5615.548   0.100E-11
     TRS4 it  12 1.00000000   0.400E-09       0.036     5554.378   0.100E-11
     TRS4 it  13 1.00000000   0.249E-13       0.036     5629.509   0.100E-11
     Final TRS4 iteration   13 1.00000000   0.249E-13
     Chemical potential (mu):      -0.01639

 SCF     8     -1103.130932043        -0.000004851    2.130555


 SCF run converged in     8 steps.

 Writing restart DM 64H2O_ref_LS_DM_SPIN_1_RESTART.dm with checksum:       0.61124001E+04

 ENERGY| Total FORCE_EVAL ( QS ) energy [a.u.]:            -1103.130932043056418

 -------------------------------------------------------------------------------
 -                                                                             -
 -                                DBCSR STATISTICS                             -
 -                                                                             -
 -------------------------------------------------------------------------------
 COUNTER                                    TOTAL       BLAS       SMM       ACC
 flops     5 x     5 x     5          81564385000       0.0%    100.0%      0.0%     
 flops    13 x     5 x     5         105608549800       0.0%    100.0%      0.0%     
 flops     5 x    13 x     5         105630289700       0.0%    100.0%      0.0%     
 flops     5 x     5 x    13         106163771350       0.0%    100.0%      0.0%     
 flops    13 x     5 x    13         137443333040       0.0%    100.0%      0.0%     
 flops     5 x    13 x    13         137515894880       0.0%    100.0%      0.0%     
 flops    13 x    13 x     5         138695410100       0.0%    100.0%      0.0%     
 flops    13 x    13 x    13         180532780376       0.0%    100.0%      0.0%     
 flops inhomo. stacks                           0       0.0%      0.0%      0.0%
 flops total                       993.154414E+09       0.0%    100.0%      0.0%
 flops max/rank                     31.881552E+09       0.0%    100.0%      0.0%
 matmuls inhomo. stacks                         0       0.0%      0.0%      0.0%
 matmuls total                         1100421511       0.0%    100.0%      0.0%
 number of processed stacks               1560072       0.0%    100.0%      0.0%
 average stack size                                     0.0     705.4       0.0
 marketing flops                     1.620269E+12
 -------------------------------------------------------------------------------
 # multiplications                            254
 max memory usage/rank             619.200512E+06
 # max total images/rank                        2
 # max 3D layers                                1
 # MPI messages exchanged                  105664
 MPI messages size (bytes):
  total size                        43.775894E+09
  min size                           0.000000E+00
  max size                         541.696000E+03
  average size                     414.293344E+03
 MPI breakdown and total messages size (bytes):
             size <=      128                 312                        0
       128 < size <=     8192                  42                   279312
      8192 < size <=    32768                  62                   841968
     32768 < size <=   131072                   0                        0
    131072 < size <=  4194304              105248              43774775520
   4194304 < size <= 16777216                   0                        0
  16777216 < size                               0                        0
 -------------------------------------------------------------------------------

 *** WARNING in dbcsr_mm.F:301 :: Using a non-square number of MPI ranks ***
 *** might lead to poor performance. Used ranks: 32 Suggested: 36 64     ***

 -------------------------------------------------------------------------------
 -                                                                             -
 -                      DBCSR MESSAGE PASSING PERFORMANCE                      -
 -                                                                             -
 -------------------------------------------------------------------------------
 ROUTINE             CALLS      AVE VOLUME [Bytes]
 MP_Bcast                9                     12.
 MP_Allreduce         1822                     34.
 MP_Alltoall           562                  33857.
 MP_ISend             8892                 170766.
 MP_IRecv             8510                 179059.
 -------------------------------------------------------------------------------

 -------------------------------------------------------------------------------
 -                                                                             -
 -                                DBM STATISTICS                               -
 -                                                                             -
 -------------------------------------------------------------------------------
    M  x    N  x    K                                          COUNT     PERCENT
 -------------------------------------------------------------------------------

 -------------------------------------------------------------------------------
 -                                                                             -
 -                                GRID STATISTICS                              -
 -                                                                             -
 -------------------------------------------------------------------------------
 LP    KERNEL             BACKEND                              COUNT     PERCENT
 2     collocate ortho    CPU                                7374762      28.82%
 2     integrate ortho    CPU                                7374762      28.82%
 3     collocate ortho    CPU                                4740867      18.53%
 3     integrate ortho    CPU                                4740867      18.53%
 4     collocate ortho    CPU                                 674010       2.63%
 4     integrate ortho    CPU                                 674010       2.63%
 0     collocate general  CPU                                   6144       0.02%
 -------------------------------------------------------------------------------

 MEMORY| Estimated peak process memory [MiB]                                 592

 -------------------------------------------------------------------------------
 -                                                                             -
 -                         MESSAGE PASSING PERFORMANCE                         -
 -                                                                             -
 -------------------------------------------------------------------------------

 ROUTINE             CALLS      AVE VOLUME [Bytes]
 MP_Group                5
 MP_Bcast             2479                 157332.
 MP_Allreduce         6633                    940.
 MP_Sync                 5
 MP_Alltoall           244                7402406.
 MP_SendRecv           837                  18832.
 MP_ISendRecv          837                  18832.
 MP_Wait              2391
 MP_ISend             1406                 108579.
 MP_IRecv             1406                 108603.
 -------------------------------------------------------------------------------


 -------------------------------------------------------------------------------
 -                                                                             -
 -                           R E F E R E N C E S                               -
 -                                                                             -
 -------------------------------------------------------------------------------
 
 CP2K version 2024.3 (Development Version), the CP2K developers group (2024).
 CP2K is freely available from https://www.cp2k.org/ .
 
 T. D. Kuehne, M. Iannuzzi, M. Del Ben, V. V. Rybkin, P. Seewald, F. Stein, T. 
 Laino, R. Z. Khaliullin, O. Schuett, F. Schiffmann, D. Golze, J. Wilhelm, S. 
 Chulkov, M. H. Bani-Hashemian, V. Weber, U. Borstnik, M. Taillefumier, A. S. 
 Jakobovits, A. Lazzaro, H. Pabst, T. Mueller, R. Schade, M. Guidon, S. 
 Andermatt, N. Holmberg, G. K. Schenter, A. Hehn, A. Bussy, F. Belleflamme, G. 
 Tabacchi, A. Gloess, M. Lass, I. Bethune, C. J. Mundy, C. Plessl, M. Watkins, 
 J. VandeVondele, M. Krack, J. Hutter.
 J. Chem. Phys. 152, 194103 (2020).
 CP2K: An electronic structure and molecular dynamics software package - 
 Quickstep: Efficient and accurate electronic structure calculations.
 https://doi.org/10.1063/5.0007045

 O. Schuett, P. Messmer, J. Hutter, J. VandeVondele.
 Electronic Structure Calculations on Graphics Processing Units, 173-190 (2016).
 GPU-Accelerated Sparse Matrix-Matrix Multiplication for Linear Scaling Density 
 Functional Theory.
 https://doi.org/10.1002/9781118670712.ch8

 A. Heinecke, G. Henry, M. Hutchinson, H. Pabst.
 Proceedings of Intl. Supercomputing Conference, 981-991 (2016).
 LIBXSMM: Accelerating Small Matrix Multiplications by Runtime Code Generation.
 https://doi.org/10.1109/SC.2016.83

 J. Hutter, M. Iannuzzi, F. Schiffmann, J. VandeVondele.
 WIREs Comput Mol Sci. 4, 15-25 (2014).
 CP2K: atomistic simulations of condensed matter systems.
 https://doi.org/10.1002/wcms.1159

 U. Borstnik, J. VandeVondele, V. Weber, J. Hutter.
 Parallel Comput. 40, 47-58 (2014).
 Sparse matrix multiplication: The distributed block-compressed sparse row 
 library.
 https://doi.org/10.1016/j.parco.2014.03.012

 A. Marek, V. Blum, R. Johanni, V. Havu, B. Lang, T. Auckenthaler, A. Heinecke, 
 H. Bungartz, H. Lederer.
 J. Phys. Condens. Matter 26, 213201 (2014).
 The ELPA library: scalable parallel eigenvalue solutions for electronic 
 structure theory and computational science.
 https://doi.org/10.1088/0953-8984/26/21/213201

 J. VandeVondele, U. Borstnik, J. Hutter.
 J. Chem. Theory Comput. 8, 3565-3573 (2012).
 Linear Scaling Self-Consistent Field Calculations with Millions of Atoms in the 
 Condensed Phase.
 https://doi.org/10.1021/ct200897x

 J. VandeVondele, J. Hutter.
 J. Chem. Phys. 127, 114105 (2007).
 Gaussian basis sets for accurate calculations on molecular systems in gas and 
 condensed phases.
 https://doi.org/10.1063/1.2770708

 J. VandeVondele, M. Krack, F. Mohamed, M. Parrinello, T. Chassaing, J. Hutter.
 Comput. Phys. Commun. 167, 103-128 (2005).
 QUICKSTEP: Fast and accurate density functional calculations using a mixed 
 Gaussian and plane waves approach.
 https://doi.org/10.1016/j.cpc.2004.12.014

 M. Krack.
 Theor. Chem. Acc. 114, 145-152 (2005).
 Pseudopotentials for H to Kr optimized for gradient-corrected 
 exchange-correlation functionals.
 https://doi.org/10.1007/s00214-005-0655-y

 M. Frigo, S. G. Johnson.
 Proc. IEEE 93, 216-231 (2005).
 The design and implementation of FFTW3.
 https://doi.org/10.1109/JPROC.2004.840301

 A. M. N. Niklasson, C. J. Tymczak, M. Challacombe.
 J. Chem. Phys. 118, 8611-8620 (2003).
 Trace resetting density matrix purification in O(N) self-consistent-field 
 theory.
 https://doi.org/10.1063/1.1559913

 C. Hartwigsen, S. Goedecker, J. Hutter.
 Phys. Rev. B 58, 3641-3662 (1998).
 Relativistic separable dual-space Gaussian pseudopotentials from H to Rn.
 https://doi.org/10.1103/PhysRevB.58.3641

 G. Lippert, J. Hutter, M. Parrinello.
 Mol. Phys. 92, 477-487 (1997).
 A hybrid Gaussian and plane wave density functional scheme.
 https://doi.org/10.1080/002689797170220

 S. Goedecker, M. Teter, J. Hutter.
 Phys. Rev. B 54, 1703-1710 (1996).
 Separable dual-space Gaussian pseudopotentials.
 https://doi.org/10.1103/PhysRevB.54.1703

 J. P. Perdew, K. Burke, M. Ernzerhof.
 Phys. Rev. Lett. 77, 3865-3868 (1996).
 Generalized gradient approximation made simple.
 https://doi.org/10.1103/PhysRevLett.77.3865


 -------------------------------------------------------------------------------
 -                                                                             -
 -                                T I M I N G                                  -
 -                                                                             -
 -------------------------------------------------------------------------------
 SUBROUTINE                       CALLS  ASD         SELF TIME        TOTAL TIME
                                MAXIMUM       AVERAGE  MAXIMUM  AVERAGE  MAXIMUM
 CP2K                                 1  1.0    0.013    0.017   20.690   20.690
 qs_energies                          1  2.0    0.000    0.000   20.525   20.526
 ls_scf                               1  3.0    0.000    0.000   19.396   19.398
 ls_scf_main                          1  4.0    0.000    0.000   16.845   16.854
 ls_scf_dm_to_ks                      8  5.0    0.000    0.000   12.390   12.395
 qs_ks_update_qs_env                  9  6.1    0.000    0.000    7.818    7.822
 rebuild_ks_matrix                    9  7.1    0.000    0.000    7.812    7.816
 qs_ks_build_kohn_sham_matrix         9  8.1    0.002    0.002    7.812    7.815
 qs_rho_update_rho_low                9  6.1    0.000    0.000    6.128    6.133
 calculate_rho_elec                   9  7.1    0.003    0.003    6.128    6.133
 sum_up_and_integrate                 9  9.1    0.000    0.000    5.917    5.921
 integrate_v_rspace                   9 10.1    0.000    0.000    5.909    5.912
 grid_collocate_task_list             9  8.1    5.438    5.527    5.438    5.527
 grid_integrate_task_list             9 11.1    5.193    5.299    5.193    5.299
 dbcsr_multiply_generic             254  6.1    0.013    0.013    4.806    4.831
 density_matrix_trs4                  8  5.0    0.004    0.006    4.449    4.476
 multiply_cannon                    254  7.1    0.018    0.021    3.887    3.947
 multiply_cannon_loop               254  8.1    0.020    0.021    3.810    3.885
 ls_scf_init_scf                      1  4.0    0.000    0.000    2.489    2.490
 multiply_cannon_multrec           2032  9.1    2.157    2.239    2.164    2.245
 mp_waitall_1                     17241 10.5    1.797    1.908    1.797    1.908
 fft_wrap_pw1pw2                    172 11.3    0.003    0.003    1.759    1.784
 fft_wrap_pw1pw2_200                100 12.8    0.103    0.109    1.687    1.716
 qs_vxc_create                        9  9.1    0.000    0.000    1.548    1.575
 xc_vxc_pw_create                     9 10.1    0.013    0.018    1.548    1.574
 ls_scf_initial_guess                 1  5.0    0.000    0.000    1.560    1.562
 ls_scf_qs_atomic_guess               1  6.0    0.000    0.000    1.560    1.562
 multiply_cannon_metrocomm3        2032  9.1    0.005    0.006    1.399    1.485
 fft3d_ps                           172 13.3    0.720    0.797    1.325    1.358
 xc_pw_derive                        54 12.1    0.001    0.001    1.099    1.179
 qs_energies_init_hamiltonians        1  3.0    0.000    0.000    1.128    1.128
 build_core_hamiltonian_matrix        1  4.0    0.000    0.000    0.736    0.941
 ls_scf_init_matrix_S                 1  5.0    0.000    0.000    0.928    0.929
 matrix_sqrt_Newton_Schulz            1  6.0    0.001    0.001    0.905    0.906
 xc_rho_set_and_dset_create           9 11.1    0.019    0.025    0.781    0.801
 xc_pw_divergence                     9 11.1    0.000    0.000    0.734    0.776
 density_rs2pw                        9  8.1    0.000    0.000    0.657    0.730
 make_m2s                           508  7.1    0.005    0.007    0.706    0.719
 make_images                        508  8.1    0.040    0.042    0.695    0.709
 mp_waitany                        1406 12.5    0.566    0.708    0.566    0.708
 build_core_ppl                       1  5.0    0.508    0.703    0.508    0.703
 transfer_rs2pw                      46  9.0    0.001    0.001    0.498    0.627
 mp_alltoall_z22v                   172 15.3    0.428    0.616    0.428    0.616
 potential_pw2rs                      9 11.1    0.000    0.001    0.598    0.599
 transfer_rs2pw_200                  10  9.8    0.030    0.039    0.394    0.525
 qs_env_update_s_mstruct              1  4.0    0.000    0.000    0.372    0.470
 arnoldi_extremal                     9  6.1    0.000    0.000    0.455    0.456
 arnoldi_normal_ev                    9  7.1    0.000    0.001    0.454    0.455
 make_images_data                   508  9.1    0.006    0.009    0.389    0.423
 -------------------------------------------------------------------------------

 The number of warnings for this run is : 1
 
 -------------------------------------------------------------------------------
  **** **** ******  **  PROGRAM ENDED AT                 2024-09-23 17:39:13.711
 ***** ** ***  *** **   PROGRAM RAN ON                                    moritz
 **    ****   ******    PROGRAM RAN BY                                       ole
 ***** **    ** ** **   PROGRAM PROCESS ID                                157328
  **** **  *******  **  PROGRAM STOPPED IN /home/ole/git/pao_ml_equivar/64H2O_MD
                                           /Frame2700
