 DBCSR| CPU Multiplication driver                                           BLAS
 DBCSR| Multrec recursion limit                                              512
 DBCSR| Multiplication stack size                                           1000
 DBCSR| Maximum elements for images                                    UNLIMITED
 DBCSR| Multiplicative factor virtual images                                   1
 DBCSR| Use multiplication densification                                       T
 DBCSR| Multiplication size stacks                                             3


  **** **** ******  **  PROGRAM STARTED AT               2019-03-28 17:33:59.687
 ***** ** ***  *** **   PROGRAM STARTED ON        oleschuett.zrh.corp.google.com
 **    ****   ******    PROGRAM STARTED BY                            oleschuett
 ***** **    ** ** **   PROGRAM PROCESS ID                                 35541
  **** **  *******  **  PROGRAM STARTED IN /usr/local/google/home/oleschuett/git
                                           /pao_ml_equivar/2H2O_rotations/rand_0
                                           7

 CP2K| version string:                    CP2K version 7.0 (Development Version)
 CP2K| source code revision number:                                git:d9814d431
 CP2K| cp2kflags: libint fftw3 libxc libderiv_max_am1=5 libint_max_am=6         
 CP2K| is freely available from                            https://www.cp2k.org/
 CP2K| Program compiled at                          Mon Mar 25 16:50:07 CET 2019
 CP2K| Program compiled on                        oleschuett.zrh.corp.google.com
 CP2K| Program compiled for                                                local
 CP2K| Data directory path       /usr/local/google/home/oleschuett/git/cp2k/data
 CP2K| Input file name                                            2H2O_pao44.inp

 GLOBAL| Force Environment number                                              1
 GLOBAL| Basis set file name                                        BASIS_MOLOPT
 GLOBAL| Potential file name                                      GTH_POTENTIALS
 GLOBAL| MM Potential file name                                     MM_POTENTIAL
 GLOBAL| Coordinate file name                                         coords.xyz
 GLOBAL| Method name                                                        CP2K
 GLOBAL| Project name                                                 2H2O_pao44
 GLOBAL| Preferred FFT library                                             FFTW3
 GLOBAL| Preferred diagonalization lib.                                       SL
 GLOBAL| Run type                                                         ENERGY
 GLOBAL| All-to-all communication in single precision                          F
 GLOBAL| FFTs using library dependent lengths                                  F
 GLOBAL| Global print level                                                  LOW
 GLOBAL| MPI I/O enabled                                                       T
 GLOBAL| Total number of message passing processes                             1
 GLOBAL| Number of threads for this process                                    1
 GLOBAL| This output is from process                                           0
 GLOBAL| CPU model name :  Intel(R) Xeon(R) CPU E5-1650 v4 @ 3.60GHz

 MEMORY| system memory details [Kb]
 MEMORY|                        rank 0           min           max       average
 MEMORY| MemTotal             65953612      65953612      65953612      65953612
 MEMORY| MemFree               4751544       4751544       4751544       4751544
 MEMORY| Buffers               2543220       2543220       2543220       2543220
 MEMORY| Cached               25355932      25355932      25355932      25355932
 MEMORY| Slab                  3622072       3622072       3622072       3622072
 MEMORY| SReclaimable          2421472       2421472       2421472       2421472
 MEMORY| MemLikelyFree        35072168      35072168      35072168      35072168


 GENERATE|  Preliminary Number of Bonds generated:                             0
 GENERATE|  Achieved consistency in connectivity generation.

 *******************************************************************************
 *******************************************************************************
 **                                                                           **
 **     #####                         ##              ##                      **
 **    ##   ##            ##          ##              ##                      **
 **   ##     ##                       ##            ######                    **
 **   ##     ##  ##   ##  ##   #####  ##  ##   ####   ##    #####    #####    **
 **   ##     ##  ##   ##  ##  ##      ## ##   ##      ##   ##   ##  ##   ##   **
 **   ##  ## ##  ##   ##  ##  ##      ####     ###    ##   ######   ######    **
 **    ##  ###   ##   ##  ##  ##      ## ##      ##   ##   ##       ##        **
 **     #######   #####   ##   #####  ##  ##  ####    ##    #####   ##        **
 **           ##                                                    ##        **
 **                                                                           **
 **                                                ... make the atoms dance   **
 **                                                                           **
 **            Copyright (C) by CP2K developers group (2000 - 2018)           **
 **                                                                           **
 *******************************************************************************


 TOTAL NUMBERS AND MAXIMUM NUMBERS

  Total number of            - Atomic kinds:                                   2
                             - Atoms:                                          6
                             - Shell sets:                                     6
                             - Shells:                                        22
                             - Primitive Cartesian functions:                 42
                             - Cartesian basis functions:                     48
                             - Spherical basis functions:                     46

  Maximum angular momentum of- Orbital basis functions:                        2
                             - Local part of the GTH pseudopotential:          2
                             - Non-local part of the GTH pseudopotential:      0

 ------------------------------ Linear scaling SCF -----------------------------
 eps_scf:                                                              0.100E-07
 eps_filter:                                                           0.100E-07
 mixing_fraction:                                                      0.450E+00
 max_scf:                                                                     25
 fixed chemical potential (mu)                                                 F
 has unit metric:                                                              F
 Computing inv(S):                                                             T
 Computing sqrt(S):                                                            T
 Computing s preconditioner                                                    F
 sign sqrt order:                                                              3
 Extrapolation order:                                                          1
 Use single precision matrices                                                 F
 S preconditioner type                                                      NONE
 Polarized Atomic Orbitals (PAO)                                               T
 Purification method                                   Trace resetting 4th order
 Cluster type                                                             ATOMIC
 Computing Chebyshev                                                       FALSE
 Using PAO                                                                     T
 -------------------------------------------------------------------------------

 
 PAO|                                  EPS_PAO                           0.1E-04
 PAO|                                  MIXING                            0.5E+00
 PAO|                                  MAX_PAO                              1000
 PAO|                                  MAX_CYCLES                           1000
 PAO|                                  PARAMETERIZATION                   DIRECT
 PAO|                                  PRECONDITION                            F
 PAO|                                  REGULARIZATION                    0.0E+00
 PAO|                                  EPS_PGF                           0.1E-09
 PAO|                                  PENALTY_DISTANCE                  0.1E+00
 PAO|                                  PENALTY_STRENGTH                  0.5E-02
 PAO|                                  LINPOT_PRECONDITION_DELTA         0.0E+00
 PAO|                                  LINPOT_INITGUESS_DELT             0.0E+00
 PAO|                                  LINPOT_REGULARIZATION_DELTA       0.0E+00
 PAO|                                  LINPOT_REGULARIZATION_STRENGTH    0.0E+00
 PAO|                                  OPTIMIZER                              CG
 PAO|                                  CG_INIT_STEPS                           2
 PAO|                                  CG_RESET_LIMIT                    0.1E+00
 PAO|                                  CHECK_UNITARY_TOL                -0.1E+01
 PAO|                                  CHECK_GRADIENT_TOL               -0.1E+01
 PAO|                                  NUM_GRADIENT_ORDER                      2
 PAO|                                  NUM_GRADIENT_EPS                  0.1E-07
 PAO|                                  PRINT%RESTART%WRITE_CYCLES            100
 PAO|                                  RESTART_FILE 
 PAO|                                  PREOPT_DM_FILE 2H2O_ref_LS_DM_SPIN_1_RESTART.dm
 PAO|                                  MACHINE_LEARNING%METHOD        GAUSSIAN_P
 PAO|                                  MACHINE_LEARNING%PRIOR               ZERO
 PAO|                                  MACHINE_LEARNING%DESCRIPTOR     POTENTIAL
 PAO|                                  MACHINE_LEARNING%TOLERANCE        0.1E-01
 PAO|                                  MACHINE_LEARNING%GP_NOISE_VAR     0.1E+00
 PAO|                                  MACHINE_LEARNING%GP_SCALE         0.5E-01
 

 Calculating atomic Fock matrix for atomic kind: O

 Electronic structure
    Total number of core electrons                                          2.00
    Total number of valence electrons                                       6.00
    Total number of electrons                                               8.00
    Multiplicity                                                   not specified
    S   [  2.00] 2.00
    P      4.00


 *******************************************************************************
                  Iteration          Convergence                     Energy [au]
 *******************************************************************************
                          1        0.708315                     -15.576645311500
                          2        0.608879                     -15.587933561584
                          3        0.102828E-01                 -15.656849565404
                          4        0.113889E-02                 -15.656866888140
                          5        0.434197E-03                 -15.656867072159
                          6        0.263771E-03                 -15.656867091904
                          7        0.478536E-06                 -15.656867103452

 Energy components [Hartree]           Total Energy ::          -15.656867103452
                                        Band Energy ::           -3.000198112285
                                     Kinetic Energy ::           11.759971203220
                                   Potential Energy ::          -27.416838306672
                                      Virial (-V/T) ::            2.331369510426
                                        Core Energy ::          -26.140716385623
                                          XC Energy ::           -3.154051012914
                                     Coulomb Energy ::           13.637900295084
                       Total Pseudopotential Energy ::          -37.935781716540
                       Local Pseudopotential Energy ::          -39.218907440693
                    Nonlocal Pseudopotential Energy ::            1.283125724153
                                        Confinement ::            0.350941276976

 Orbital energies  State     L     Occupation   Energy[a.u.]          Energy[eV]

                       1     0          2.000      -0.864471          -23.523463

                       1     1          4.000      -0.317814           -8.648154


 Total Electron Density at R=0:                                         0.000068

 Calculating atomic Fock matrix for atomic kind: H

 Electronic structure
    Total number of core electrons                                          0.00
    Total number of valence electrons                                       1.00
    Total number of electrons                                               1.00
    Multiplicity                                                   not specified
    S      1.00


 *******************************************************************************
                  Iteration          Convergence                     Energy [au]
 *******************************************************************************
                          1        0.437545E-02                  -0.424159432110
                          2        0.531356E-03                  -0.424178438213
                          3        0.259176E-06                  -0.424178722480

 Energy components [Hartree]           Total Energy ::           -0.424178722480
                                        Band Energy ::           -0.199015229016
                                     Kinetic Energy ::            0.464007633961
                                   Potential Energy ::           -0.888186356441
                                      Virial (-V/T) ::            1.914163240935
                                        Core Energy ::           -0.479160803564
                                          XC Energy ::           -0.244352904054
                                     Coulomb Energy ::            0.299334985138
                       Total Pseudopotential Energy ::           -0.962295316385
                       Local Pseudopotential Energy ::           -0.962295316385
                    Nonlocal Pseudopotential Energy ::            0.000000000000
                                        Confinement ::            0.191268788606

 Orbital energies  State     L     Occupation   Energy[a.u.]          Energy[eV]

                       1     0          1.000      -0.199015           -5.415480


 Total Electron Density at R=0:                                         0.242907
 PAO| Made initial guess for matrix_X with norm:   4.8989794855663558     

     Lanczos converged:  T threshold:   0.100E-02
     Est. extremal eigenvalues:    0.336E+01   0.114E+00
     Est. condition number :    0.296E+02
     NS sqrt iter    1 1.00000000   0.822E+00       0.002       34.252
     NS sqrt iter    2 1.00000000   0.440E+00       0.002       60.705
     NS sqrt iter    3 1.00000000   0.171E+00       0.002       50.083
     NS sqrt iter    4 1.00000000   0.208E-01       0.002       48.215
     NS sqrt iter    5 1.00000000   0.558E-04       0.002       39.159
     Final NS sqrt iter    5 1.00000000   0.363E-08

 PAO| Read restart DM 2H2O_ref_LS_DM_SPIN_1_RESTART.dm with checksum:    69.183007214575213     
 PAO| Quickstep energy from restart density:  -34.450682519554874     
 PAO| ======================= Iteration:         1 =============================

     Lanczos converged:  T threshold:   0.100E-02
     Est. extremal eigenvalues:    0.336E+01   0.114E+00
     Est. condition number :    0.296E+02
     NS sqrt iter    1 1.00000000   0.822E+00       0.012        5.605
     NS sqrt iter    2 1.00000000   0.440E+00       0.002       65.955
     NS sqrt iter    3 1.00000000   0.171E+00       0.004       25.693
     NS sqrt iter    4 1.00000000   0.208E-01       0.002       69.866
     NS sqrt iter    5 1.00000000   0.558E-04       0.002       61.108
     Final NS sqrt iter    5 1.00000000   0.363E-08

     Est. extremal eigenvalues     -0.91952     1.90451  converged:  T
     TRS4 it   1 1.00000000   0.890E+00       0.010        1.607   0.100E-07
     TRS4 it   2 1.00000000   0.697E+00       0.001       31.479   0.100E-07
     TRS4 it   3 1.00000000   0.501E+00       0.001       32.256   0.100E-07
     TRS4 it   4 1.00000000   0.314E+00       0.001       32.256   0.100E-07
     TRS4 it   5 1.00000000   0.156E+00       0.001       32.256   0.100E-07
     TRS4 it   6 1.00000000   0.488E-01       0.001       32.256   0.100E-07
     TRS4 it   7 1.00000000   0.664E-02       0.001       32.256   0.100E-07
     TRS4 it   8 1.00000000   0.174E-03       0.001       32.256   0.100E-07
     TRS4 it   9 1.00000000   0.134E-06       0.001       32.256   0.100E-07
     TRS4 it  10 1.00000000   0.810E-13       0.001       32.256   0.100E-07
     Final TRS4 iteration   10 1.00000000   0.810E-13
     Chemical potential (mu):      -0.06445
 
 PAO| energy:  -7.6206269246519316      penalty:   5.3001592069536744E-033
 PAO|CG| warming up with steepest descent
 PAO|CG| beta:    0.0000000000000000     
 PAO| norm of gradient:  0.78353295075817819     
 PAO|LS| adapt:  T F F
 PAO|LS| adapt: scan_steps:    0.0000000000000000        0.0000000000000000        0.0000000000000000     
 PAO|LS| adapt: energies:   -7.6206269246519316        0.0000000000000000        0.0000000000000000     
 PAO| ======================= Iteration:         2 =============================

     Lanczos converged:  T threshold:   0.100E-02
     Est. extremal eigenvalues:    0.328E+01   0.126E+00
     Est. condition number :    0.260E+02
     NS sqrt iter    1 1.00000000   0.805E+00       0.002       41.258
     NS sqrt iter    2 1.00000000   0.425E+00       0.002       67.300
     NS sqrt iter    3 1.00000000   0.153E+00       0.002       68.505
     NS sqrt iter    4 1.00000000   0.145E-01       0.002       67.573
     NS sqrt iter    5 1.00000000   0.183E-04       0.001       56.413
     Final NS sqrt iter    5 1.00000000   0.507E-09

     Est. extremal eigenvalues     -0.92318     1.85240  converged:  T
     TRS4 it   1 1.00000000   0.888E+00       0.001       16.128   0.100E-07
     TRS4 it   2 1.00000000   0.679E+00       0.001       32.256   0.100E-07
     TRS4 it   3 1.00000000   0.485E+00       0.001       32.256   0.100E-07
     TRS4 it   4 1.00000000   0.294E+00       0.001       32.256   0.100E-07
     TRS4 it   5 1.00000000   0.137E+00       0.001       32.256   0.100E-07
     TRS4 it   6 1.00000000   0.378E-01       0.001       32.256   0.100E-07
     TRS4 it   7 1.00000000   0.403E-02       0.001       29.580   0.100E-07
     TRS4 it   8 1.00000000   0.645E-04       0.001       32.256   0.100E-07
     TRS4 it   9 1.00000000   0.185E-07       0.001       32.256   0.100E-07
     Final TRS4 iteration    9 1.00000000   0.185E-07
     Chemical potential (mu):      -0.05249
 
 PAO| energy:  -7.6761378352714109      penalty:   2.2505870440410762E-008
 PAO|LS| adapt:  T T F
 PAO|LS| adapt: scan_steps:    0.0000000000000000       0.10000000000000001        0.0000000000000000     
 PAO|LS| adapt: energies:   -7.6206269246519316       -7.6761378352714109        0.0000000000000000     
 PAO| ======================= Iteration:         3 =============================

     Lanczos converged:  T threshold:   0.100E-02
     Est. extremal eigenvalues:    0.319E+01   0.137E+00
     Est. condition number :    0.233E+02
     NS sqrt iter    1 1.00000000   0.787E+00       0.002       42.816
     NS sqrt iter    2 1.00000000   0.408E+00       0.002       68.593
     NS sqrt iter    3 1.00000000   0.136E+00       0.002       68.421
     NS sqrt iter    4 1.00000000   0.100E-01       0.002       65.199
     NS sqrt iter    5 1.00000000   0.637E-05       0.002       43.810
     Final NS sqrt iter    5 1.00000000   0.628E-10

     Est. extremal eigenvalues     -0.92661     1.81029  converged:  T
     TRS4 it   1 1.00000000   0.886E+00       0.001       16.128   0.100E-07
     TRS4 it   2 1.00000000   0.663E+00       0.001       32.256   0.100E-07
     TRS4 it   3 1.00000000   0.471E+00       0.001       32.256   0.100E-07
     TRS4 it   4 1.00000000   0.275E+00       0.001       32.256   0.100E-07
     TRS4 it   5 1.00000000   0.119E+00       0.001       32.256   0.100E-07
     TRS4 it   6 1.00000000   0.284E-01       0.001       32.256   0.100E-07
     TRS4 it   7 1.00000000   0.227E-02       0.001       32.256   0.100E-07
     TRS4 it   8 1.00000000   0.206E-04       0.001       32.256   0.100E-07
     TRS4 it   9 1.00000000   0.188E-08       0.001       32.256   0.100E-07
     Final TRS4 iteration    9 1.00000000   0.188E-08
     Chemical potential (mu):      -0.03958
 
 PAO| energy:  -7.7192237673140749      penalty:   3.6009414775173528E-007
 PAO|LS| adapt:  T T F
 PAO|LS| adapt: scan_steps:    0.0000000000000000       0.20000000000000001        0.0000000000000000     
 PAO|LS| adapt: energies:   -7.6206269246519316       -7.7192237673140749        0.0000000000000000     
 PAO| ======================= Iteration:         4 =============================

     Lanczos converged:  T threshold:   0.100E-02
     Est. extremal eigenvalues:    0.299E+01   0.154E+00
     Est. condition number :    0.194E+02
     NS sqrt iter    1 1.00000000   0.750E+00       0.002       42.782
     NS sqrt iter    2 1.00000000   0.374E+00       0.002       67.975
     NS sqrt iter    3 1.00000000   0.107E+00       0.002       70.068
     NS sqrt iter    4 1.00000000   0.496E-02       0.002       68.524
     NS sqrt iter    5 1.00000000   0.965E-06       0.001       55.541
     Final NS sqrt iter    5 1.00000000   0.159E-11

     Est. extremal eigenvalues     -0.93195     1.74855  converged:  T
     TRS4 it   1 1.00000000   0.883E+00       0.001       16.128   0.100E-07
     TRS4 it   2 1.00000000   0.637E+00       0.001       32.256   0.100E-07
     TRS4 it   3 1.00000000   0.443E+00       0.001       32.256   0.100E-07
     TRS4 it   4 1.00000000   0.239E+00       0.001       32.256   0.100E-07
     TRS4 it   5 1.00000000   0.878E-01       0.001       32.256   0.100E-07
     TRS4 it   6 1.00000000   0.150E-01       0.001       32.256   0.100E-07
     TRS4 it   7 1.00000000   0.601E-03       0.001       32.256   0.100E-07
     TRS4 it   8 1.00000000   0.139E-05       0.001       32.256   0.100E-07
     TRS4 it   9 1.00000000   0.862E-11       0.001       32.256   0.100E-07
     Final TRS4 iteration    9 1.00000000   0.862E-11
     Chemical potential (mu):      -0.01111
 
 PAO| energy:  -7.7664993471466373      penalty:   5.7615081296833768E-006
 PAO|LS| Need extra step
 PAO|LS| adapt:  T T F
 PAO|LS| adapt: scan_steps:    0.0000000000000000       0.40000000000000002        0.0000000000000000     
 PAO|LS| adapt: energies:   -7.6206269246519316       -7.7664993471466373        0.0000000000000000     
 PAO| ======================= Iteration:         5 =============================

     Lanczos converged:  T threshold:   0.100E-02
     Est. extremal eigenvalues:    0.264E+01   0.181E+00
     Est. condition number :    0.145E+02
     NS sqrt iter    1 1.00000000   0.686E+00       0.002       41.086
     NS sqrt iter    2 1.00000000   0.312E+00       0.002       66.055
     NS sqrt iter    3 1.00000000   0.659E-01       0.002       56.682
     NS sqrt iter    4 1.00000000   0.139E-02       0.002       61.816
     NS sqrt iter    5 1.00000000   0.275E-07       0.002       38.398
     Final NS sqrt iter    5 1.00000000   0.299E-08

     Est. extremal eigenvalues     -0.93318     1.67791  converged:  T
     TRS4 it   1 1.00000000   0.880E+00       0.001       16.128   0.100E-07
     TRS4 it   2 1.00000000   0.601E+00       0.001       32.256   0.100E-07
     TRS4 it   3 1.00000000   0.396E+00       0.001       32.256   0.100E-07
     TRS4 it   4 1.00000000   0.184E+00       0.001       32.256   0.100E-07
     TRS4 it   5 1.00000000   0.481E-01       0.001       32.256   0.100E-07
     TRS4 it   6 1.00000000   0.409E-02       0.001       32.256   0.100E-07
     TRS4 it   7 1.00000000   0.379E-04       0.001       32.256   0.100E-07
     TRS4 it   8 1.00000000   0.413E-08       0.001       32.256   0.100E-07
     Final TRS4 iteration    8 1.00000000   0.413E-08
     Chemical potential (mu):       0.03757
 
 PAO| energy:  -7.7118182052804318      penalty:   9.2184144200238932E-005
 PAO|LS| Need extra step
 PAO|LS| adapt:  T T T
 PAO|LS| adapt: scan_steps:    0.0000000000000000       0.40000000000000002       0.80000000000000004     
 PAO|LS| adapt: energies:   -7.6206269246519316       -7.7664993471466373       -7.7118182052804318     
 PAO|LS| adapt: suggested step_size:   0.49093957608690997     
 PAO|LS| adapt: predicted energy  -7.7716824073986235     
 PAO| ======================= Iteration:         6 =============================

     Lanczos converged:  T threshold:   0.100E-02
     Est. extremal eigenvalues:    0.290E+01   0.161E+00
     Est. condition number :    0.180E+02
     NS sqrt iter    1 1.00000000   0.734E+00       0.002       39.218
     NS sqrt iter    2 1.00000000   0.359E+00       0.002       65.062
     NS sqrt iter    3 1.00000000   0.951E-01       0.002       63.339
     NS sqrt iter    4 1.00000000   0.366E-02       0.002       65.127
     NS sqrt iter    5 1.00000000   0.427E-06       0.002       52.244
     Final NS sqrt iter    5 1.00000000   0.817E-11

     Est. extremal eigenvalues     -0.93343     1.72769  converged:  T
     TRS4 it   1 1.00000000   0.882E+00       0.001       16.128   0.100E-07
     TRS4 it   2 1.00000000   0.627E+00       0.001       32.256   0.100E-07
     TRS4 it   3 1.00000000   0.431E+00       0.001       32.256   0.100E-07
     TRS4 it   4 1.00000000   0.225E+00       0.001       32.256   0.100E-07
     TRS4 it   5 1.00000000   0.761E-01       0.001       32.256   0.100E-07
     TRS4 it   6 1.00000000   0.110E-01       0.001       32.256   0.100E-07
     TRS4 it   7 1.00000000   0.310E-03       0.001       32.256   0.100E-07
     TRS4 it   8 1.00000000   0.354E-06       0.001       32.256   0.100E-07
     TRS4 it   9 1.00000000   0.551E-12       0.001       32.256   0.100E-07
     Final TRS4 iteration    9 1.00000000   0.551E-12
     Chemical potential (mu):       0.00264
 
 PAO| energy:  -7.7709540430704855      penalty:   1.3073997917314875E-005
 PAO|CG| warming up with steepest descent
 PAO|CG| beta:    0.0000000000000000     
 PAO| norm of gradient:  0.41745546775151454     
 PAO| energy improvement: -0.15032711841855395     
 PAO| step      6                   -7.770954043  0.261E-01  0.491E+00     0.127
 PAO|LS| adapt:  T F F
 PAO|LS| adapt: scan_steps:    0.0000000000000000        0.0000000000000000        0.0000000000000000     
 PAO|LS| adapt: energies:   -7.7709540430704855        0.0000000000000000        0.0000000000000000     
 PAO| ======================= Iteration:         7 =============================

     Lanczos converged:  T threshold:   0.100E-02
     Est. extremal eigenvalues:    0.282E+01   0.175E+00
     Est. condition number :    0.161E+02
     NS sqrt iter    1 1.00000000   0.716E+00       0.008        8.450
     NS sqrt iter    2 1.00000000   0.338E+00       0.002       65.096
     NS sqrt iter    3 1.00000000   0.796E-01       0.002       64.611
     NS sqrt iter    4 1.00000000   0.222E-02       0.002       65.942
     NS sqrt iter    5 1.00000000   0.106E-06       0.002       50.522
     Final NS sqrt iter    5 1.00000000   0.109E-08

     Est. extremal eigenvalues     -0.93514     1.71357  converged:  T
     TRS4 it   1 1.00000000   0.881E+00       0.001       16.128   0.100E-07
     TRS4 it   2 1.00000000   0.625E+00       0.001       32.256   0.100E-07
     TRS4 it   3 1.00000000   0.430E+00       0.001       32.256   0.100E-07
     TRS4 it   4 1.00000000   0.225E+00       0.001       32.256   0.100E-07
     TRS4 it   5 1.00000000   0.767E-01       0.001       28.937   0.100E-07
     TRS4 it   6 1.00000000   0.109E-01       0.001       32.256   0.100E-07
     TRS4 it   7 1.00000000   0.289E-03       0.001       32.256   0.100E-07
     TRS4 it   8 1.00000000   0.290E-06       0.001       32.256   0.100E-07
     TRS4 it   9 1.00000000   0.364E-12       0.001       32.256   0.100E-07
     Final TRS4 iteration    9 1.00000000   0.364E-12
     Chemical potential (mu):       0.00475
 
 PAO| energy:  -7.7649068692620400      penalty:   1.9800771473769396E-005
 PAO|LS| adapt:  T F T
 PAO|LS| adapt: scan_steps:    0.0000000000000000        0.0000000000000000       0.49093957608690997     
 PAO|LS| adapt: energies:   -7.7709540430704855        0.0000000000000000       -7.7649068692620400     
 PAO| ======================= Iteration:         8 =============================

     Lanczos converged:  T threshold:   0.100E-02
     Est. extremal eigenvalues:    0.286E+01   0.168E+00
     Est. condition number :    0.170E+02
     NS sqrt iter    1 1.00000000   0.725E+00       0.002       41.288
     NS sqrt iter    2 1.00000000   0.348E+00       0.002       66.804
     NS sqrt iter    3 1.00000000   0.872E-01       0.002       67.247
     NS sqrt iter    4 1.00000000   0.287E-02       0.002       68.031
     NS sqrt iter    5 1.00000000   0.217E-06       0.002       53.690
     Final NS sqrt iter    5 1.00000000   0.631E-09

     Est. extremal eigenvalues     -0.93525     1.72003  converged:  T
     TRS4 it   1 1.00000000   0.881E+00       0.001       16.128   0.100E-07
     TRS4 it   2 1.00000000   0.626E+00       0.001       32.256   0.100E-07
     TRS4 it   3 1.00000000   0.430E+00       0.001       32.256   0.100E-07
     TRS4 it   4 1.00000000   0.224E+00       0.001       32.256   0.100E-07
     TRS4 it   5 1.00000000   0.762E-01       0.001       32.256   0.100E-07
     TRS4 it   6 1.00000000   0.110E-01       0.001       32.256   0.100E-07
     TRS4 it   7 1.00000000   0.307E-03       0.001       32.256   0.100E-07
     TRS4 it   8 1.00000000   0.340E-06       0.001       32.256   0.100E-07
     TRS4 it   9 1.00000000   0.506E-12       0.001       32.256   0.100E-07
     Final TRS4 iteration    9 1.00000000   0.506E-12
     Chemical potential (mu):       0.00325
 
 PAO| energy:  -7.7905900745199022      penalty:   1.4178171635970672E-005
 PAO|LS| adapt:  T T T
 PAO|LS| adapt: scan_steps:    0.0000000000000000       0.24546978804345498       0.49093957608690997     
 PAO|LS| adapt: energies:   -7.7709540430704855       -7.7905900745199022       -7.7649068692620400     
 PAO|LS| adapt: suggested step_size:   0.22909265350995728     
 PAO|LS| adapt: predicted energy  -7.7906909376238689     
 PAO| ======================= Iteration:         9 =============================

     Lanczos converged:  T threshold:   0.100E-02
     Est. extremal eigenvalues:    0.286E+01   0.168E+00
     Est. condition number :    0.171E+02
     NS sqrt iter    1 1.00000000   0.725E+00       0.002       41.842
     NS sqrt iter    2 1.00000000   0.349E+00       0.002       67.372
     NS sqrt iter    3 1.00000000   0.877E-01       0.002       67.766
     NS sqrt iter    4 1.00000000   0.292E-02       0.002       67.331
     NS sqrt iter    5 1.00000000   0.228E-06       0.002       53.722
     Final NS sqrt iter    5 1.00000000   0.655E-09

     Est. extremal eigenvalues     -0.93519     1.72051  converged:  T
     TRS4 it   1 1.00000000   0.881E+00       0.001       16.128   0.100E-07
     TRS4 it   2 1.00000000   0.626E+00       0.001       32.256   0.100E-07
     TRS4 it   3 1.00000000   0.430E+00       0.001       32.256   0.100E-07
     TRS4 it   4 1.00000000   0.224E+00       0.001       32.256   0.100E-07
     TRS4 it   5 1.00000000   0.762E-01       0.001       32.256   0.100E-07
     TRS4 it   6 1.00000000   0.110E-01       0.001       32.256   0.100E-07
     TRS4 it   7 1.00000000   0.308E-03       0.001       32.256   0.100E-07
     TRS4 it   8 1.00000000   0.342E-06       0.001       32.256   0.100E-07
     TRS4 it   9 1.00000000   0.513E-12       0.001       32.256   0.100E-07
     Final TRS4 iteration    9 1.00000000   0.513E-12
     Chemical potential (mu):       0.00318
 
 PAO| energy:  -7.7907154874754525      penalty:   1.4002967782794976E-005
 PAO|CG| trace_G_new    3.6872077444356340E-002
 PAO|CG| trace_G_prev   0.17426906755563579     
 PAO|CG| trace_G_mix   -1.4501552907647945E-003
 PAO|CG| trace_D   0.17426906755563579     
 PAO|CG| trace_D_Gnew   1.4501552907647945E-003
 PAO|CG| beta:   0.21990266702314612     
 PAO| norm of gradient:  0.19202103385920080     
 PAO| energy improvement:  -1.9761444404966966E-002
 PAO| step      9                   -7.790715487  0.120E-01  0.229E+00     0.086
 PAO|LS| adapt:  T F F
 PAO|LS| adapt: scan_steps:    0.0000000000000000        0.0000000000000000        0.0000000000000000     
 PAO|LS| adapt: energies:   -7.7907154874754525        0.0000000000000000        0.0000000000000000     
 PAO| ======================= Iteration:        10 =============================

     Lanczos converged:  T threshold:   0.100E-02
     Est. extremal eigenvalues:    0.283E+01   0.173E+00
     Est. condition number :    0.163E+02
     NS sqrt iter    1 1.00000000   0.718E+00       0.002       41.622
     NS sqrt iter    2 1.00000000   0.341E+00       0.002       65.243
     NS sqrt iter    3 1.00000000   0.821E-01       0.002       66.804
     NS sqrt iter    4 1.00000000   0.240E-02       0.002       64.780
     NS sqrt iter    5 1.00000000   0.127E-06       0.002       49.942
     Final NS sqrt iter    5 1.00000000   0.116E-08

     Est. extremal eigenvalues     -0.93608     1.71677  converged:  T
     TRS4 it   1 1.00000000   0.880E+00       0.001       16.128   0.100E-07
     TRS4 it   2 1.00000000   0.625E+00       0.001       32.256   0.100E-07
     TRS4 it   3 1.00000000   0.428E+00       0.001       32.256   0.100E-07
     TRS4 it   4 1.00000000   0.222E+00       0.001       31.699   0.100E-07
     TRS4 it   5 1.00000000   0.743E-01       0.001       32.256   0.100E-07
     TRS4 it   6 1.00000000   0.104E-01       0.001       32.256   0.100E-07
     TRS4 it   7 1.00000000   0.270E-03       0.001       32.256   0.100E-07
     TRS4 it   8 1.00000000   0.257E-06       0.001       32.256   0.100E-07
     TRS4 it   9 1.00000000   0.286E-12       0.001       32.256   0.100E-07
     Final TRS4 iteration    9 1.00000000   0.286E-12
     Chemical potential (mu):       0.00629
 
 PAO| energy:  -7.7957514161329504      penalty:   1.4540565161255805E-005
 PAO|LS| adapt:  T T F
 PAO|LS| adapt: scan_steps:    0.0000000000000000       0.22909265350995728        0.0000000000000000     
 PAO|LS| adapt: energies:   -7.7907154874754525       -7.7957514161329504        0.0000000000000000     
 PAO| ======================= Iteration:        11 =============================

     Lanczos converged:  T threshold:   0.100E-02
     Est. extremal eigenvalues:    0.279E+01   0.179E+00
     Est. condition number :    0.156E+02
     NS sqrt iter    1 1.00000000   0.710E+00       0.001       56.954
     NS sqrt iter    2 1.00000000   0.332E+00       0.001       94.258
     NS sqrt iter    3 1.00000000   0.767E-01       0.001       86.678
     NS sqrt iter    4 1.00000000   0.197E-02       0.002       66.387
     NS sqrt iter    5 1.00000000   0.701E-07       0.001       62.673
     Final NS sqrt iter    5 1.00000000   0.630E-09

     Est. extremal eigenvalues     -0.93599     1.71427  converged:  T
     TRS4 it   1 1.00000000   0.878E+00       0.000       16.128   0.100E-07
     TRS4 it   2 1.00000000   0.624E+00       0.001       32.256   0.100E-07
     TRS4 it   3 1.00000000   0.427E+00       0.001       32.256   0.100E-07
     TRS4 it   4 1.00000000   0.220E+00       0.001       32.256   0.100E-07
     TRS4 it   5 1.00000000   0.724E-01       0.001       32.256   0.100E-07
     TRS4 it   6 1.00000000   0.982E-02       0.001       32.256   0.100E-07
     TRS4 it   7 1.00000000   0.237E-03       0.001       32.256   0.100E-07
     TRS4 it   8 1.00000000   0.191E-06       0.001       32.256   0.100E-07
     TRS4 it   9 1.00000000   0.156E-12       0.001       32.256   0.100E-07
     Final TRS4 iteration    9 1.00000000   0.156E-12
     Chemical potential (mu):       0.00951
 
 PAO| energy:  -7.7943536063741092      penalty:   1.5746556103614321E-005
 PAO|LS| adapt:  T T T
 PAO|LS| adapt: scan_steps:    0.0000000000000000       0.22909265350995728       0.45818530701991456     
 PAO|LS| adapt: energies:   -7.7907154874754525       -7.7957514161329504       -7.7943536063741092     
 PAO|LS| adapt: suggested step_size:   0.29386574951906180     
 PAO|LS| adapt: predicted energy  -7.7960085743406715     
 PAO| ======================= Iteration:        12 =============================

     Lanczos converged:  T threshold:   0.100E-02
     Est. extremal eigenvalues:    0.281E+01   0.175E+00
     Est. condition number :    0.161E+02
     NS sqrt iter    1 1.00000000   0.715E+00       0.002       42.835
     NS sqrt iter    2 1.00000000   0.338E+00       0.002       67.090
     NS sqrt iter    3 1.00000000   0.805E-01       0.002       66.761
     NS sqrt iter    4 1.00000000   0.227E-02       0.002       61.892
     NS sqrt iter    5 1.00000000   0.108E-06       0.002       48.189
     Final NS sqrt iter    5 1.00000000   0.109E-08

     Est. extremal eigenvalues     -0.93615     1.71594  converged:  T
     TRS4 it   1 1.00000000   0.879E+00       0.001       16.128   0.100E-07
     TRS4 it   2 1.00000000   0.624E+00       0.001       32.256   0.100E-07
     TRS4 it   3 1.00000000   0.428E+00       0.001       32.256   0.100E-07
     TRS4 it   4 1.00000000   0.221E+00       0.001       32.256   0.100E-07
     TRS4 it   5 1.00000000   0.737E-01       0.001       32.256   0.100E-07
     TRS4 it   6 1.00000000   0.102E-01       0.001       32.256   0.100E-07
     TRS4 it   7 1.00000000   0.260E-03       0.001       32.256   0.100E-07
     TRS4 it   8 1.00000000   0.236E-06       0.001       32.256   0.100E-07
     TRS4 it   9 1.00000000   0.241E-12       0.001       32.256   0.100E-07
     Final TRS4 iteration    9 1.00000000   0.241E-12
     Chemical potential (mu):       0.00719
 
 PAO| energy:  -7.7959923788084033      penalty:   1.4806111831423748E-005
 PAO|CG| trace_G_new    1.1821255956883547E-002
 PAO|CG| trace_G_prev    3.6872077444356340E-002
 PAO|CG| trace_G_mix   -4.5587558630574864E-004
 PAO|CG| trace_D    4.4661452597017370E-002
 PAO|CG| trace_D_Gnew   2.0779377439698985E-004
 PAO|CG| beta:   0.33296554992641025     
 PAO| norm of gradient:  0.10872559936318377     
 PAO| energy improvement:  -5.2768913329508393E-003
 PAO| step     12                   -7.795992379  0.680E-02  0.294E+00     0.079
 PAO|LS| adapt:  T F F
 PAO|LS| adapt: scan_steps:    0.0000000000000000        0.0000000000000000        0.0000000000000000     
 PAO|LS| adapt: energies:   -7.7959923788084033        0.0000000000000000        0.0000000000000000     
 PAO| ======================= Iteration:        13 =============================

     Lanczos converged:  T threshold:   0.100E-02
     Est. extremal eigenvalues:    0.278E+01   0.179E+00
     Est. condition number :    0.155E+02
     NS sqrt iter    1 1.00000000   0.708E+00       0.002       39.525
     NS sqrt iter    2 1.00000000   0.331E+00       0.002       58.574
     NS sqrt iter    3 1.00000000   0.762E-01       0.002       62.682
     NS sqrt iter    4 1.00000000   0.194E-02       0.002       63.651
     NS sqrt iter    5 1.00000000   0.677E-07       0.002       46.019
     Final NS sqrt iter    5 1.00000000   0.647E-09

     Est. extremal eigenvalues     -0.93663     1.70986  converged:  T
     TRS4 it   1 1.00000000   0.879E+00       0.001       16.128   0.100E-07
     TRS4 it   2 1.00000000   0.621E+00       0.001       32.256   0.100E-07
     TRS4 it   3 1.00000000   0.424E+00       0.001       24.767   0.100E-07
     TRS4 it   4 1.00000000   0.217E+00       0.001       29.152   0.100E-07
     TRS4 it   5 1.00000000   0.702E-01       0.001       32.256   0.100E-07
     TRS4 it   6 1.00000000   0.923E-02       0.001       32.256   0.100E-07
     TRS4 it   7 1.00000000   0.209E-03       0.001       32.256   0.100E-07
     TRS4 it   8 1.00000000   0.148E-06       0.001       32.256   0.100E-07
     TRS4 it   9 1.00000000   0.935E-13       0.001       32.256   0.100E-07
     Final TRS4 iteration    9 1.00000000   0.935E-13
     Chemical potential (mu):       0.01170
 
 PAO| energy:  -7.7980624482999454      penalty:   1.5113611643924279E-005
 PAO|LS| adapt:  T T F
 PAO|LS| adapt: scan_steps:    0.0000000000000000       0.29386574951906180        0.0000000000000000     
 PAO|LS| adapt: energies:   -7.7959923788084033       -7.7980624482999454        0.0000000000000000     
 PAO| ======================= Iteration:        14 =============================

     Lanczos converged:  T threshold:   0.100E-02
     Est. extremal eigenvalues:    0.275E+01   0.183E+00
     Est. condition number :    0.150E+02
     NS sqrt iter    1 1.00000000   0.701E+00       0.002       42.184
     NS sqrt iter    2 1.00000000   0.324E+00       0.002       67.421
     NS sqrt iter    3 1.00000000   0.721E-01       0.002       63.040
     NS sqrt iter    4 1.00000000   0.165E-02       0.002       66.182
     NS sqrt iter    5 1.00000000   0.424E-07       0.002       44.753
     Final NS sqrt iter    5 1.00000000   0.353E-09

     Est. extremal eigenvalues     -0.93661     1.70405  converged:  T
     TRS4 it   1 1.00000000   0.878E+00       0.001       16.128   0.100E-07
     TRS4 it   2 1.00000000   0.619E+00       0.001       32.256   0.100E-07
     TRS4 it   3 1.00000000   0.420E+00       0.001       32.256   0.100E-07
     TRS4 it   4 1.00000000   0.212E+00       0.001       32.256   0.100E-07
     TRS4 it   5 1.00000000   0.669E-01       0.001       32.256   0.100E-07
     TRS4 it   6 1.00000000   0.832E-02       0.001       32.256   0.100E-07
     TRS4 it   7 1.00000000   0.168E-03       0.001       32.256   0.100E-07
     TRS4 it   8 1.00000000   0.931E-07       0.001       32.256   0.100E-07
     TRS4 it   9 1.00000000   0.364E-13       0.001       32.256   0.100E-07
     Final TRS4 iteration    9 1.00000000   0.364E-13
     Chemical potential (mu):       0.01610
 
 PAO| energy:  -7.7974154544047112      penalty:   1.5902343289698857E-005
 PAO|LS| adapt:  T T T
 PAO|LS| adapt: scan_steps:    0.0000000000000000       0.29386574951906180       0.58773149903812361     
 PAO|LS| adapt: energies:   -7.7959923788084033       -7.7980624482999454       -7.7974154544047112     
 PAO|LS| adapt: suggested step_size:   0.37082258070058427     
 PAO|LS| adapt: predicted energy  -7.7981556161738839     
 PAO| ======================= Iteration:        15 =============================

     Lanczos converged:  T threshold:   0.100E-02
     Est. extremal eigenvalues:    0.277E+01   0.180E+00
     Est. condition number :    0.154E+02
     NS sqrt iter    1 1.00000000   0.706E+00       0.001       43.470
     NS sqrt iter    2 1.00000000   0.329E+00       0.002       67.896
     NS sqrt iter    3 1.00000000   0.751E-01       0.002       68.363
     NS sqrt iter    4 1.00000000   0.186E-02       0.002       68.643
     NS sqrt iter    5 1.00000000   0.599E-07       0.001       48.756
     Final NS sqrt iter    5 1.00000000   0.566E-09

     Est. extremal eigenvalues     -0.93667     1.70831  converged:  T
     TRS4 it   1 1.00000000   0.879E+00       0.001       16.128   0.100E-07
     TRS4 it   2 1.00000000   0.621E+00       0.001       32.256   0.100E-07
     TRS4 it   3 1.00000000   0.423E+00       0.001       32.256   0.100E-07
     TRS4 it   4 1.00000000   0.215E+00       0.001       32.256   0.100E-07
     TRS4 it   5 1.00000000   0.694E-01       0.001       32.256   0.100E-07
     TRS4 it   6 1.00000000   0.898E-02       0.001       32.256   0.100E-07
     TRS4 it   7 1.00000000   0.197E-03       0.001       32.256   0.100E-07
     TRS4 it   8 1.00000000   0.131E-06       0.001       32.256   0.100E-07
     TRS4 it   9 1.00000000   0.732E-13       0.001       32.191   0.100E-07
     Final TRS4 iteration    9 1.00000000   0.732E-13
     Chemical potential (mu):       0.01287
 
 PAO| energy:  -7.7981525483667502      penalty:   1.5270597736131948E-005
 PAO|CG| trace_G_new    2.6305858097156955E-003
 PAO|CG| trace_G_prev    1.1821255956883547E-002
 PAO|CG| trace_G_mix    6.3041454600988494E-005
 PAO|CG| trace_D    1.6634318789033157E-002
 PAO|CG| trace_D_Gnew   3.4073705984552201E-005
 PAO|CG| beta:   0.21719725589899094     
 PAO| norm of gradient:   5.1289236782347383E-002
 PAO| energy improvement:  -2.1601695583468583E-003
 PAO| step     15                   -7.798152548  0.321E-02  0.371E+00     0.079
 PAO|LS| adapt:  T F F
 PAO|LS| adapt: scan_steps:    0.0000000000000000        0.0000000000000000        0.0000000000000000     
 PAO|LS| adapt: energies:   -7.7981525483667502        0.0000000000000000        0.0000000000000000     
 PAO| ======================= Iteration:        16 =============================

     Lanczos converged:  T threshold:   0.100E-02
     Est. extremal eigenvalues:    0.276E+01   0.181E+00
     Est. condition number :    0.153E+02
     NS sqrt iter    1 1.00000000   0.705E+00       0.001       43.220
     NS sqrt iter    2 1.00000000   0.328E+00       0.001       91.414
     NS sqrt iter    3 1.00000000   0.744E-01       0.001       85.253
     NS sqrt iter    4 1.00000000   0.180E-02       0.002       67.641
     NS sqrt iter    5 1.00000000   0.543E-07       0.001       64.317
     Final NS sqrt iter    5 1.00000000   0.487E-09

     Est. extremal eigenvalues     -0.93670     1.70762  converged:  T
     TRS4 it   1 1.00000000   0.879E+00       0.001       16.128   0.100E-07
     TRS4 it   2 1.00000000   0.620E+00       0.001       32.256   0.100E-07
     TRS4 it   3 1.00000000   0.422E+00       0.001       32.256   0.100E-07
     TRS4 it   4 1.00000000   0.214E+00       0.001       32.256   0.100E-07
     TRS4 it   5 1.00000000   0.682E-01       0.001       32.256   0.100E-07
     TRS4 it   6 1.00000000   0.869E-02       0.001       32.256   0.100E-07
     TRS4 it   7 1.00000000   0.185E-03       0.001       32.256   0.100E-07
     TRS4 it   8 1.00000000   0.118E-06       0.001       32.256   0.100E-07
     TRS4 it   9 1.00000000   0.584E-13       0.001       32.256   0.100E-07
     Final TRS4 iteration    9 1.00000000   0.584E-13
     Chemical potential (mu):       0.01371
 
 PAO| energy:  -7.7982775972441365      penalty:   1.5052292270961027E-005
 PAO|LS| adapt:  T T F
 PAO|LS| adapt: scan_steps:    0.0000000000000000       0.37082258070058427        0.0000000000000000     
 PAO|LS| adapt: energies:   -7.7981525483667502       -7.7982775972441365        0.0000000000000000     
 PAO| ======================= Iteration:        17 =============================

     Lanczos converged:  T threshold:   0.100E-02
     Est. extremal eigenvalues:    0.275E+01   0.182E+00
     Est. condition number :    0.152E+02
     NS sqrt iter    1 1.00000000   0.703E+00       0.001       56.128
     NS sqrt iter    2 1.00000000   0.327E+00       0.002       62.999
     NS sqrt iter    3 1.00000000   0.737E-01       0.002       67.942
     NS sqrt iter    4 1.00000000   0.175E-02       0.001       96.446
     NS sqrt iter    5 1.00000000   0.493E-07       0.001       67.057
     Final NS sqrt iter    5 1.00000000   0.446E-09

     Est. extremal eigenvalues     -0.93660     1.70701  converged:  T
     TRS4 it   1 1.00000000   0.879E+00       0.001       16.128   0.100E-07
     TRS4 it   2 1.00000000   0.619E+00       0.001       32.256   0.100E-07
     TRS4 it   3 1.00000000   0.420E+00       0.001       32.256   0.100E-07
     TRS4 it   4 1.00000000   0.212E+00       0.001       32.256   0.100E-07
     TRS4 it   5 1.00000000   0.671E-01       0.001       32.256   0.100E-07
     TRS4 it   6 1.00000000   0.841E-02       0.001       32.256   0.100E-07
     TRS4 it   7 1.00000000   0.175E-03       0.001       32.256   0.100E-07
     TRS4 it   8 1.00000000   0.105E-06       0.001       32.256   0.100E-07
     TRS4 it   9 1.00000000   0.472E-13       0.001       32.256   0.100E-07
     Final TRS4 iteration    9 1.00000000   0.472E-13
     Chemical potential (mu):       0.01452
 
 PAO| energy:  -7.7967016248769854      penalty:   1.4960893780617987E-005
 PAO|LS| adapt:  T T T
 PAO|LS| adapt: scan_steps:    0.0000000000000000       0.37082258070058427       0.74164516140116854     
 PAO|LS| adapt: energies:   -7.7981525483667502       -7.7982775972441365       -7.7967016248769854     
 PAO|LS| adapt: suggested step_size:   0.21267194190006500     
 PAO|LS| adapt: predicted energy  -7.7984322968826572     
 PAO| ======================= Iteration:        18 =============================

     Lanczos converged:  T threshold:   0.100E-02
     Est. extremal eigenvalues:    0.277E+01   0.181E+00
     Est. condition number :    0.153E+02
     NS sqrt iter    1 1.00000000   0.705E+00       0.002       40.310
     NS sqrt iter    2 1.00000000   0.329E+00       0.002       63.406
     NS sqrt iter    3 1.00000000   0.747E-01       0.002       63.390
     NS sqrt iter    4 1.00000000   0.182E-02       0.002       62.775
     NS sqrt iter    5 1.00000000   0.566E-07       0.002       44.889
     Final NS sqrt iter    5 1.00000000   0.550E-09

     Est. extremal eigenvalues     -0.93670     1.70791  converged:  T
     TRS4 it   1 1.00000000   0.879E+00       0.001       16.128   0.100E-07
     TRS4 it   2 1.00000000   0.620E+00       0.001       32.256   0.100E-07
     TRS4 it   3 1.00000000   0.422E+00       0.001       32.256   0.100E-07
     TRS4 it   4 1.00000000   0.214E+00       0.001       32.256   0.100E-07
     TRS4 it   5 1.00000000   0.687E-01       0.001       32.256   0.100E-07
     TRS4 it   6 1.00000000   0.881E-02       0.001       32.256   0.100E-07
     TRS4 it   7 1.00000000   0.190E-03       0.001       32.256   0.100E-07
     TRS4 it   8 1.00000000   0.123E-06       0.001       32.256   0.100E-07
     TRS4 it   9 1.00000000   0.646E-13       0.001       32.256   0.100E-07
     Final TRS4 iteration    9 1.00000000   0.646E-13
     Chemical potential (mu):       0.01335
 
 PAO| energy:  -7.7984318327590474      penalty:   1.5130155431813920E-005
 PAO|CG| trace_G_new    7.2852429593104945E-004
 PAO|CG| trace_G_prev    2.6305858097156955E-003
 PAO|CG| trace_G_mix    1.5803906750861406E-006
 PAO|CG| trace_D    3.4005025119336445E-003
 PAO|CG| trace_D_Gnew  -1.7621583996700058E-006
 PAO|CG| beta:   0.27634297370992389     
 PAO| norm of gradient:   2.6991189227802644E-002
 PAO| energy improvement:  -2.7928439229718549E-004
 PAO| step     18                   -7.798431833  0.169E-02  0.213E+00     0.075
 PAO|LS| adapt:  T F F
 PAO|LS| adapt: scan_steps:    0.0000000000000000        0.0000000000000000        0.0000000000000000     
 PAO|LS| adapt: energies:   -7.7984318327590474        0.0000000000000000        0.0000000000000000     
 PAO| ======================= Iteration:        19 =============================

     Lanczos converged:  T threshold:   0.100E-02
     Est. extremal eigenvalues:    0.277E+01   0.180E+00
     Est. condition number :    0.153E+02
     NS sqrt iter    1 1.00000000   0.705E+00       0.002       41.133
     NS sqrt iter    2 1.00000000   0.329E+00       0.002       63.892
     NS sqrt iter    3 1.00000000   0.749E-01       0.002       65.000
     NS sqrt iter    4 1.00000000   0.183E-02       0.002       65.657
     NS sqrt iter    5 1.00000000   0.571E-07       0.002       46.062
     Final NS sqrt iter    5 1.00000000   0.548E-09

     Est. extremal eigenvalues     -0.93670     1.70813  converged:  T
     TRS4 it   1 1.00000000   0.879E+00       0.001       16.128   0.100E-07
     TRS4 it   2 1.00000000   0.620E+00       0.001       32.256   0.100E-07
     TRS4 it   3 1.00000000   0.422E+00       0.001       32.256   0.100E-07
     TRS4 it   4 1.00000000   0.214E+00       0.001       32.256   0.100E-07
     TRS4 it   5 1.00000000   0.686E-01       0.001       32.256   0.100E-07
     TRS4 it   6 1.00000000   0.880E-02       0.001       32.256   0.100E-07
     TRS4 it   7 1.00000000   0.191E-03       0.001       32.256   0.100E-07
     TRS4 it   8 1.00000000   0.125E-06       0.001       32.256   0.100E-07
     TRS4 it   9 1.00000000   0.670E-13       0.001       32.256   0.100E-07
     Final TRS4 iteration    9 1.00000000   0.670E-13
     Chemical potential (mu):       0.01308
 
 PAO| energy:  -7.7985501225906244      penalty:   1.4840646436307476E-005
 PAO|LS| adapt:  T T F
 PAO|LS| adapt: scan_steps:    0.0000000000000000       0.21267194190006500        0.0000000000000000     
 PAO|LS| adapt: energies:   -7.7984318327590474       -7.7985501225906244        0.0000000000000000     
 PAO| ======================= Iteration:        20 =============================

     Lanczos converged:  T threshold:   0.100E-02
     Est. extremal eigenvalues:    0.277E+01   0.180E+00
     Est. condition number :    0.153E+02
     NS sqrt iter    1 1.00000000   0.705E+00       0.002       42.176
     NS sqrt iter    2 1.00000000   0.329E+00       0.002       65.155
     NS sqrt iter    3 1.00000000   0.751E-01       0.002       65.535
     NS sqrt iter    4 1.00000000   0.184E-02       0.002       64.955
     NS sqrt iter    5 1.00000000   0.576E-07       0.002       46.110
     Final NS sqrt iter    5 1.00000000   0.558E-09

     Est. extremal eigenvalues     -0.93670     1.70836  converged:  T
     TRS4 it   1 1.00000000   0.879E+00       0.001       16.128   0.100E-07
     TRS4 it   2 1.00000000   0.620E+00       0.001       32.256   0.100E-07
     TRS4 it   3 1.00000000   0.422E+00       0.001       32.256   0.100E-07
     TRS4 it   4 1.00000000   0.214E+00       0.001       32.256   0.100E-07
     TRS4 it   5 1.00000000   0.685E-01       0.001       32.256   0.100E-07
     TRS4 it   6 1.00000000   0.879E-02       0.001       32.256   0.100E-07
     TRS4 it   7 1.00000000   0.191E-03       0.001       32.256   0.100E-07
     TRS4 it   8 1.00000000   0.127E-06       0.001       32.256   0.100E-07
     TRS4 it   9 1.00000000   0.693E-13       0.001       32.256   0.100E-07
     Final TRS4 iteration    9 1.00000000   0.693E-13
     Chemical potential (mu):       0.01280
 
 PAO| energy:  -7.7985945102112630      penalty:   1.4563587463105078E-005
 PAO|LS| adapt:  T T F
 PAO|LS| adapt: scan_steps:    0.0000000000000000       0.42534388380013000        0.0000000000000000     
 PAO|LS| adapt: energies:   -7.7984318327590474       -7.7985945102112630        0.0000000000000000     
 PAO| ======================= Iteration:        21 =============================

     Lanczos converged:  T threshold:   0.100E-02
     Est. extremal eigenvalues:    0.277E+01   0.180E+00
     Est. condition number :    0.154E+02
     NS sqrt iter    1 1.00000000   0.705E+00       0.002       42.287
     NS sqrt iter    2 1.00000000   0.330E+00       0.002       65.272
     NS sqrt iter    3 1.00000000   0.756E-01       0.002       65.473
     NS sqrt iter    4 1.00000000   0.186E-02       0.002       65.799
     NS sqrt iter    5 1.00000000   0.588E-07       0.002       46.008
     Final NS sqrt iter    5 1.00000000   0.590E-09

     Est. extremal eigenvalues     -0.93669     1.70882  converged:  T
     TRS4 it   1 1.00000000   0.879E+00       0.001       16.128   0.100E-07
     TRS4 it   2 1.00000000   0.620E+00       0.001       32.256   0.100E-07
     TRS4 it   3 1.00000000   0.422E+00       0.001       32.256   0.100E-07
     TRS4 it   4 1.00000000   0.214E+00       0.001       32.256   0.100E-07
     TRS4 it   5 1.00000000   0.683E-01       0.001       32.256   0.100E-07
     TRS4 it   6 1.00000000   0.878E-02       0.001       32.256   0.100E-07
     TRS4 it   7 1.00000000   0.193E-03       0.001       32.256   0.100E-07
     TRS4 it   8 1.00000000   0.131E-06       0.001       32.256   0.100E-07
     TRS4 it   9 1.00000000   0.738E-13       0.001       32.256   0.100E-07
     Final TRS4 iteration    9 1.00000000   0.738E-13
     Chemical potential (mu):       0.01225
 
 PAO| energy:  -7.7984591839054049      penalty:   1.4046244298182480E-005
 PAO|LS| Need extra step
 PAO|LS| adapt:  T T T
 PAO|LS| adapt: scan_steps:    0.0000000000000000       0.42534388380013000       0.85068776760025999     
 PAO|LS| adapt: energies:   -7.7984318327590474       -7.7985945102112630       -7.7984591839054049     
 PAO|LS| adapt: suggested step_size:   0.44486317257236224     
 PAO|LS| adapt: predicted energy  -7.7985948240014364     
 PAO| ======================= Iteration:        22 =============================

     Lanczos converged:  T threshold:   0.100E-02
     Est. extremal eigenvalues:    0.277E+01   0.180E+00
     Est. condition number :    0.153E+02
     NS sqrt iter    1 1.00000000   0.705E+00       0.002       42.127
     NS sqrt iter    2 1.00000000   0.329E+00       0.002       65.432
     NS sqrt iter    3 1.00000000   0.751E-01       0.002       64.624
     NS sqrt iter    4 1.00000000   0.184E-02       0.002       65.601
     NS sqrt iter    5 1.00000000   0.577E-07       0.002       45.805
     Final NS sqrt iter    5 1.00000000   0.559E-09

     Est. extremal eigenvalues     -0.93670     1.70838  converged:  T
     TRS4 it   1 1.00000000   0.879E+00       0.001       16.128   0.100E-07
     TRS4 it   2 1.00000000   0.620E+00       0.001       32.256   0.100E-07
     TRS4 it   3 1.00000000   0.422E+00       0.001       32.256   0.100E-07
     TRS4 it   4 1.00000000   0.214E+00       0.001       31.283   0.100E-07
     TRS4 it   5 1.00000000   0.685E-01       0.001       29.837   0.100E-07
     TRS4 it   6 1.00000000   0.879E-02       0.001       32.256   0.100E-07
     TRS4 it   7 1.00000000   0.191E-03       0.001       32.256   0.100E-07
     TRS4 it   8 1.00000000   0.127E-06       0.001       32.256   0.100E-07
     TRS4 it   9 1.00000000   0.693E-13       0.001       32.256   0.100E-07
     Final TRS4 iteration    9 1.00000000   0.693E-13
     Chemical potential (mu):       0.01278
 
 PAO| energy:  -7.7985948606026101      penalty:   1.4538776270375112E-005
 PAO|CG| trace_G_new    2.2307975759423514E-004
 PAO|CG| trace_G_prev    7.2852429593104945E-004
 PAO|CG| trace_G_mix    3.0355423601598452E-006
 PAO|CG| trace_D    9.8917908366421875E-004
 PAO|CG| trace_D_Gnew  -1.8677231948241859E-006
 PAO|CG| beta:   0.30204101148453832     
 PAO| norm of gradient:   1.4935854766106798E-002
 PAO| energy improvement:  -1.6302784356270195E-004
 PAO| step     22                   -7.798594861  0.933E-03  0.445E+00     0.105
 PAO|LS| adapt:  T F F
 PAO|LS| adapt: scan_steps:    0.0000000000000000        0.0000000000000000        0.0000000000000000     
 PAO|LS| adapt: energies:   -7.7985948606026101        0.0000000000000000        0.0000000000000000     
 PAO| ======================= Iteration:        23 =============================

     Lanczos converged:  T threshold:   0.100E-02
     Est. extremal eigenvalues:    0.277E+01   0.180E+00
     Est. condition number :    0.153E+02
     NS sqrt iter    1 1.00000000   0.705E+00       0.002       41.738
     NS sqrt iter    2 1.00000000   0.329E+00       0.002       64.879
     NS sqrt iter    3 1.00000000   0.752E-01       0.002       65.348
     NS sqrt iter    4 1.00000000   0.184E-02       0.002       65.466
     NS sqrt iter    5 1.00000000   0.577E-07       0.002       46.183
     Final NS sqrt iter    5 1.00000000   0.563E-09

     Est. extremal eigenvalues     -0.93670     1.70816  converged:  T
     TRS4 it   1 1.00000000   0.879E+00       0.001       16.128   0.100E-07
     TRS4 it   2 1.00000000   0.620E+00       0.001       32.256   0.100E-07
     TRS4 it   3 1.00000000   0.422E+00       0.001       32.256   0.100E-07
     TRS4 it   4 1.00000000   0.214E+00       0.001       32.256   0.100E-07
     TRS4 it   5 1.00000000   0.686E-01       0.001       32.256   0.100E-07
     TRS4 it   6 1.00000000   0.883E-02       0.001       32.256   0.100E-07
     TRS4 it   7 1.00000000   0.193E-03       0.001       32.256   0.100E-07
     TRS4 it   8 1.00000000   0.130E-06       0.001       32.256   0.100E-07
     TRS4 it   9 1.00000000   0.724E-13       0.001       32.256   0.100E-07
     Final TRS4 iteration    9 1.00000000   0.724E-13
     Chemical potential (mu):       0.01247
 
 PAO| energy:  -7.7986443257911642      penalty:   1.3855110650947391E-005
 PAO|LS| adapt:  T T F
 PAO|LS| adapt: scan_steps:    0.0000000000000000       0.44486317257236224        0.0000000000000000     
 PAO|LS| adapt: energies:   -7.7985948606026101       -7.7986443257911642        0.0000000000000000     
 PAO| ======================= Iteration:        24 =============================

     Lanczos converged:  T threshold:   0.100E-02
     Est. extremal eigenvalues:    0.277E+01   0.180E+00
     Est. condition number :    0.153E+02
     NS sqrt iter    1 1.00000000   0.705E+00       0.002       41.937
     NS sqrt iter    2 1.00000000   0.329E+00       0.002       64.978
     NS sqrt iter    3 1.00000000   0.752E-01       0.002       65.457
     NS sqrt iter    4 1.00000000   0.185E-02       0.002       63.400
     NS sqrt iter    5 1.00000000   0.578E-07       0.002       46.734
     Final NS sqrt iter    5 1.00000000   0.569E-09

     Est. extremal eigenvalues     -0.93670     1.70795  converged:  T
     TRS4 it   1 1.00000000   0.879E+00       0.001       16.128   0.100E-07
     TRS4 it   2 1.00000000   0.620E+00       0.001       32.256   0.100E-07
     TRS4 it   3 1.00000000   0.422E+00       0.001       32.256   0.100E-07
     TRS4 it   4 1.00000000   0.214E+00       0.001       32.256   0.100E-07
     TRS4 it   5 1.00000000   0.687E-01       0.001       32.256   0.100E-07
     TRS4 it   6 1.00000000   0.887E-02       0.001       32.256   0.100E-07
     TRS4 it   7 1.00000000   0.195E-03       0.001       32.256   0.100E-07
     TRS4 it   8 1.00000000   0.133E-06       0.001       32.256   0.100E-07
     TRS4 it   9 1.00000000   0.764E-13       0.001       32.256   0.100E-07
     Final TRS4 iteration    9 1.00000000   0.764E-13
     Chemical potential (mu):       0.01216
 
 PAO| energy:  -7.7985930977183280      penalty:   1.3199896859033467E-005
 PAO|LS| adapt:  T T T
 PAO|LS| adapt: scan_steps:    0.0000000000000000       0.44486317257236224       0.88972634514472448     
 PAO|LS| adapt: energies:   -7.7985948606026101       -7.7986443257911642       -7.7985930977183280     
 PAO|LS| adapt: suggested step_size:   0.44096895818408782     
 PAO|LS| adapt: predicted energy  -7.7986443296491199     
 PAO| ======================= Iteration:        25 =============================

     Lanczos converged:  T threshold:   0.100E-02
     Est. extremal eigenvalues:    0.277E+01   0.180E+00
     Est. condition number :    0.153E+02
     NS sqrt iter    1 1.00000000   0.705E+00       0.002       42.029
     NS sqrt iter    2 1.00000000   0.329E+00       0.002       64.889
     NS sqrt iter    3 1.00000000   0.752E-01       0.002       64.641
     NS sqrt iter    4 1.00000000   0.184E-02       0.002       64.874
     NS sqrt iter    5 1.00000000   0.577E-07       0.002       45.605
     Final NS sqrt iter    5 1.00000000   0.563E-09

     Est. extremal eigenvalues     -0.93670     1.70817  converged:  T
     TRS4 it   1 1.00000000   0.879E+00       0.001       16.128   0.100E-07
     TRS4 it   2 1.00000000   0.620E+00       0.001       32.256   0.100E-07
     TRS4 it   3 1.00000000   0.422E+00       0.001       32.256   0.100E-07
     TRS4 it   4 1.00000000   0.214E+00       0.001       32.256   0.100E-07
     TRS4 it   5 1.00000000   0.686E-01       0.001       32.256   0.100E-07
     TRS4 it   6 1.00000000   0.883E-02       0.001       32.256   0.100E-07
     TRS4 it   7 1.00000000   0.193E-03       0.001       32.256   0.100E-07
     TRS4 it   8 1.00000000   0.130E-06       0.001       32.256   0.100E-07
     TRS4 it   9 1.00000000   0.730E-13       0.001       23.022   0.100E-07
     Final TRS4 iteration    9 1.00000000   0.730E-13
     Chemical potential (mu):       0.01247
 
 PAO| energy:  -7.7986443282411342      penalty:   1.3860970945782809E-005
 PAO|CG| trace_G_new    7.9991043185066959E-005
 PAO|CG| trace_G_prev    2.2307975759423514E-004
 PAO|CG| trace_G_mix    7.1271846266403764E-007
 PAO|CG| trace_D    3.1444960930279199E-004
 PAO|CG| trace_D_Gnew  -3.6151917261024609E-007
 PAO|CG| beta:   0.35538107794882973     
 PAO| norm of gradient:   8.9437711948074216E-003
 PAO| energy improvement:  -4.9467638524092195E-005
 PAO| step     25                   -7.798644328  0.559E-03  0.441E+00     0.081
 PAO|LS| adapt:  T F F
 PAO|LS| adapt: scan_steps:    0.0000000000000000        0.0000000000000000        0.0000000000000000     
 PAO|LS| adapt: energies:   -7.7986443282411342        0.0000000000000000        0.0000000000000000     
 PAO| ======================= Iteration:        26 =============================

     Lanczos converged:  T threshold:   0.100E-02
     Est. extremal eigenvalues:    0.277E+01   0.180E+00
     Est. condition number :    0.153E+02
     NS sqrt iter    1 1.00000000   0.705E+00       0.002       39.344
     NS sqrt iter    2 1.00000000   0.329E+00       0.002       64.358
     NS sqrt iter    3 1.00000000   0.751E-01       0.002       65.077
     NS sqrt iter    4 1.00000000   0.184E-02       0.002       64.402
     NS sqrt iter    5 1.00000000   0.573E-07       0.002       45.680
     Final NS sqrt iter    5 1.00000000   0.558E-09

     Est. extremal eigenvalues     -0.93670     1.70779  converged:  T
     TRS4 it   1 1.00000000   0.879E+00       0.001       16.128   0.100E-07
     TRS4 it   2 1.00000000   0.620E+00       0.001       32.256   0.100E-07
     TRS4 it   3 1.00000000   0.422E+00       0.001       32.256   0.100E-07
     TRS4 it   4 1.00000000   0.214E+00       0.001       32.256   0.100E-07
     TRS4 it   5 1.00000000   0.685E-01       0.001       32.256   0.100E-07
     TRS4 it   6 1.00000000   0.881E-02       0.001       32.256   0.100E-07
     TRS4 it   7 1.00000000   0.192E-03       0.001       32.256   0.100E-07
     TRS4 it   8 1.00000000   0.128E-06       0.001       32.256   0.100E-07
     TRS4 it   9 1.00000000   0.707E-13       0.001       32.256   0.100E-07
     Final TRS4 iteration    9 1.00000000   0.707E-13
     Chemical potential (mu):       0.01259
 
 PAO| energy:  -7.7986484006511940      penalty:   1.3138590872960047E-005
 PAO|LS| adapt:  T T F
 PAO|LS| adapt: scan_steps:    0.0000000000000000       0.44096895818408782        0.0000000000000000     
 PAO|LS| adapt: energies:   -7.7986443282411342       -7.7986484006511940        0.0000000000000000     
 PAO| ======================= Iteration:        27 =============================

     Lanczos converged:  T threshold:   0.100E-02
     Est. extremal eigenvalues:    0.277E+01   0.181E+00
     Est. condition number :    0.153E+02
     NS sqrt iter    1 1.00000000   0.705E+00       0.002       38.933
     NS sqrt iter    2 1.00000000   0.329E+00       0.002       63.124
     NS sqrt iter    3 1.00000000   0.750E-01       0.002       63.710
     NS sqrt iter    4 1.00000000   0.183E-02       0.002       64.760
     NS sqrt iter    5 1.00000000   0.569E-07       0.002       45.725
     Final NS sqrt iter    5 1.00000000   0.568E-09

     Est. extremal eigenvalues     -0.93671     1.70742  converged:  T
     TRS4 it   1 1.00000000   0.879E+00       0.001       16.128   0.100E-07
     TRS4 it   2 1.00000000   0.620E+00       0.001       32.256   0.100E-07
     TRS4 it   3 1.00000000   0.422E+00       0.001       32.256   0.100E-07
     TRS4 it   4 1.00000000   0.214E+00       0.001       32.256   0.100E-07
     TRS4 it   5 1.00000000   0.684E-01       0.001       32.256   0.100E-07
     TRS4 it   6 1.00000000   0.879E-02       0.001       32.256   0.100E-07
     TRS4 it   7 1.00000000   0.191E-03       0.001       32.256   0.100E-07
     TRS4 it   8 1.00000000   0.127E-06       0.001       32.256   0.100E-07
     TRS4 it   9 1.00000000   0.692E-13       0.001       32.256   0.100E-07
     Final TRS4 iteration    9 1.00000000   0.692E-13
     Chemical potential (mu):       0.01272
 
 PAO| energy:  -7.7985898517543015      penalty:   1.2439829570202685E-005
 PAO|LS| adapt:  T T T
 PAO|LS| adapt: scan_steps:    0.0000000000000000       0.44096895818408782       0.88193791636817565     
 PAO|LS| adapt: energies:   -7.7986443282411342       -7.7986484006511940       -7.7985898517543015     
 PAO|LS| adapt: suggested step_size:   0.24916172185149860     
 PAO|LS| adapt: predicted energy  -7.7986543245287079     
 PAO| ======================= Iteration:        28 =============================

     Lanczos converged:  T threshold:   0.100E-02
     Est. extremal eigenvalues:    0.277E+01   0.180E+00
     Est. condition number :    0.153E+02
     NS sqrt iter    1 1.00000000   0.705E+00       0.002       40.661
     NS sqrt iter    2 1.00000000   0.329E+00       0.002       63.628
     NS sqrt iter    3 1.00000000   0.751E-01       0.002       62.863
     NS sqrt iter    4 1.00000000   0.184E-02       0.002       65.236
     NS sqrt iter    5 1.00000000   0.575E-07       0.002       45.573
     Final NS sqrt iter    5 1.00000000   0.560E-09

     Est. extremal eigenvalues     -0.93670     1.70796  converged:  T
     TRS4 it   1 1.00000000   0.879E+00       0.001       16.128   0.100E-07
     TRS4 it   2 1.00000000   0.620E+00       0.001       32.256   0.100E-07
     TRS4 it   3 1.00000000   0.422E+00       0.001       32.256   0.100E-07
     TRS4 it   4 1.00000000   0.214E+00       0.001       32.256   0.100E-07
     TRS4 it   5 1.00000000   0.685E-01       0.001       32.256   0.100E-07
     TRS4 it   6 1.00000000   0.882E-02       0.001       32.256   0.100E-07
     TRS4 it   7 1.00000000   0.193E-03       0.001       32.256   0.100E-07
     TRS4 it   8 1.00000000   0.129E-06       0.001       32.256   0.100E-07
     TRS4 it   9 1.00000000   0.713E-13       0.001       32.256   0.100E-07
     Final TRS4 iteration    9 1.00000000   0.713E-13
     Chemical potential (mu):       0.01254
 
 PAO| energy:  -7.7986543152442325      penalty:   1.3449881493991169E-005
 PAO|CG| trace_G_new    3.1647868360038352E-005
 PAO|CG| trace_G_prev    7.9991043185066959E-005
 PAO|CG| trace_G_mix    4.9907832455792425E-008
 PAO|CG| trace_D    1.1996163417508075E-004
 PAO|CG| trace_D_Gnew  -2.5729094096842443E-008
 PAO|CG| beta:   0.39501873296586021     
 PAO| norm of gradient:   5.6256438173811138E-003
 PAO| energy improvement:  -9.9870030982884828E-006
 PAO| step     28                   -7.798654315  0.352E-03  0.249E+00     0.081
 PAO|LS| adapt:  T F F
 PAO|LS| adapt: scan_steps:    0.0000000000000000        0.0000000000000000        0.0000000000000000     
 PAO|LS| adapt: energies:   -7.7986543152442325        0.0000000000000000        0.0000000000000000     
 PAO| ======================= Iteration:        29 =============================

     Lanczos converged:  T threshold:   0.100E-02
     Est. extremal eigenvalues:    0.277E+01   0.180E+00
     Est. condition number :    0.153E+02
     NS sqrt iter    1 1.00000000   0.705E+00       0.002       38.852
     NS sqrt iter    2 1.00000000   0.329E+00       0.002       64.951
     NS sqrt iter    3 1.00000000   0.751E-01       0.002       65.796
     NS sqrt iter    4 1.00000000   0.184E-02       0.002       70.264
     NS sqrt iter    5 1.00000000   0.573E-07       0.001       50.309
     Final NS sqrt iter    5 1.00000000   0.558E-09

     Est. extremal eigenvalues     -0.93671     1.70786  converged:  T
     TRS4 it   1 1.00000000   0.879E+00       0.001       16.128   0.100E-07
     TRS4 it   2 1.00000000   0.620E+00       0.001       32.256   0.100E-07
     TRS4 it   3 1.00000000   0.422E+00       0.001       32.256   0.100E-07
     TRS4 it   4 1.00000000   0.214E+00       0.001       32.256   0.100E-07
     TRS4 it   5 1.00000000   0.684E-01       0.001       32.256   0.100E-07
     TRS4 it   6 1.00000000   0.879E-02       0.001       32.256   0.100E-07
     TRS4 it   7 1.00000000   0.192E-03       0.001       32.256   0.100E-07
     TRS4 it   8 1.00000000   0.127E-06       0.001       32.256   0.100E-07
     TRS4 it   9 1.00000000   0.691E-13       0.001       32.256   0.100E-07
     Final TRS4 iteration    9 1.00000000   0.691E-13
     Chemical potential (mu):       0.01267
 
 PAO| energy:  -7.7986612638268920      penalty:   1.3019714915630253E-005
 PAO|LS| adapt:  T T F
 PAO|LS| adapt: scan_steps:    0.0000000000000000       0.24916172185149860        0.0000000000000000     
 PAO|LS| adapt: energies:   -7.7986543152442325       -7.7986612638268920        0.0000000000000000     
 PAO| ======================= Iteration:        30 =============================

     Lanczos converged:  T threshold:   0.100E-02
     Est. extremal eigenvalues:    0.277E+01   0.180E+00
     Est. condition number :    0.153E+02
     NS sqrt iter    1 1.00000000   0.705E+00       0.001       43.318
     NS sqrt iter    2 1.00000000   0.329E+00       0.002       69.229
     NS sqrt iter    3 1.00000000   0.750E-01       0.002       64.737
     NS sqrt iter    4 1.00000000   0.184E-02       0.002       68.393
     NS sqrt iter    5 1.00000000   0.572E-07       0.001       48.854
     Final NS sqrt iter    5 1.00000000   0.571E-09

     Est. extremal eigenvalues     -0.93671     1.70777  converged:  T
     TRS4 it   1 1.00000000   0.879E+00       0.001       16.128   0.100E-07
     TRS4 it   2 1.00000000   0.620E+00       0.001       32.256   0.100E-07
     TRS4 it   3 1.00000000   0.422E+00       0.001       32.256   0.100E-07
     TRS4 it   4 1.00000000   0.214E+00       0.001       32.256   0.100E-07
     TRS4 it   5 1.00000000   0.683E-01       0.001       32.256   0.100E-07
     TRS4 it   6 1.00000000   0.877E-02       0.001       32.256   0.100E-07
     TRS4 it   7 1.00000000   0.191E-03       0.001       32.256   0.100E-07
     TRS4 it   8 1.00000000   0.126E-06       0.001       32.256   0.100E-07
     TRS4 it   9 1.00000000   0.677E-13       0.001       32.256   0.100E-07
     Final TRS4 iteration    9 1.00000000   0.677E-13
     Chemical potential (mu):       0.01281
 
 PAO| energy:  -7.7986663338288027      penalty:   1.2597346155304427E-005
 PAO|LS| adapt:  T T F
 PAO|LS| adapt: scan_steps:    0.0000000000000000       0.49832344370299719        0.0000000000000000     
 PAO|LS| adapt: energies:   -7.7986543152442325       -7.7986663338288027        0.0000000000000000     
 PAO| ======================= Iteration:        31 =============================

     Lanczos converged:  T threshold:   0.100E-02
     Est. extremal eigenvalues:    0.276E+01   0.180E+00
     Est. condition number :    0.153E+02
     NS sqrt iter    1 1.00000000   0.704E+00       0.001       43.644
     NS sqrt iter    2 1.00000000   0.329E+00       0.002       69.304
     NS sqrt iter    3 1.00000000   0.749E-01       0.002       66.824
     NS sqrt iter    4 1.00000000   0.183E-02       0.002       64.531
     NS sqrt iter    5 1.00000000   0.570E-07       0.002       46.023
     Final NS sqrt iter    5 1.00000000   0.515E-09

     Est. extremal eigenvalues     -0.93671     1.70757  converged:  T
     TRS4 it   1 1.00000000   0.879E+00       0.001       16.128   0.100E-07
     TRS4 it   2 1.00000000   0.620E+00       0.001       32.256   0.100E-07
     TRS4 it   3 1.00000000   0.422E+00       0.001       32.256   0.100E-07
     TRS4 it   4 1.00000000   0.213E+00       0.001       32.256   0.100E-07
     TRS4 it   5 1.00000000   0.682E-01       0.001       32.256   0.100E-07
     TRS4 it   6 1.00000000   0.873E-02       0.001       32.256   0.100E-07
     TRS4 it   7 1.00000000   0.188E-03       0.001       32.256   0.100E-07
     TRS4 it   8 1.00000000   0.123E-06       0.001       32.256   0.100E-07
     TRS4 it   9 1.00000000   0.647E-13       0.001       32.256   0.100E-07
     Final TRS4 iteration    9 1.00000000   0.647E-13
     Chemical potential (mu):       0.01307
 
 PAO| energy:  -7.7986708371784896      penalty:   1.1775844212455904E-005
 PAO|LS| Need extra step
 PAO|LS| adapt:  T T F
 PAO|LS| adapt: scan_steps:    0.0000000000000000       0.99664688740599439        0.0000000000000000     
 PAO|LS| adapt: energies:   -7.7986543152442325       -7.7986708371784896        0.0000000000000000     
 PAO| ======================= Iteration:        32 =============================

     Lanczos converged:  T threshold:   0.100E-02
     Est. extremal eigenvalues:    0.276E+01   0.180E+00
     Est. condition number :    0.153E+02
     NS sqrt iter    1 1.00000000   0.703E+00       0.002       42.520
     NS sqrt iter    2 1.00000000   0.328E+00       0.002       64.473
     NS sqrt iter    3 1.00000000   0.746E-01       0.002       65.367
     NS sqrt iter    4 1.00000000   0.182E-02       0.002       64.495
     NS sqrt iter    5 1.00000000   0.567E-07       0.002       46.219
     Final NS sqrt iter    5 1.00000000   0.511E-09

     Est. extremal eigenvalues     -0.93672     1.70716  converged:  T
     TRS4 it   1 1.00000000   0.879E+00       0.001       16.128   0.100E-07
     TRS4 it   2 1.00000000   0.619E+00       0.001       32.256   0.100E-07
     TRS4 it   3 1.00000000   0.421E+00       0.001       32.256   0.100E-07
     TRS4 it   4 1.00000000   0.213E+00       0.001       32.256   0.100E-07
     TRS4 it   5 1.00000000   0.678E-01       0.001       32.256   0.100E-07
     TRS4 it   6 1.00000000   0.864E-02       0.001       32.256   0.100E-07
     TRS4 it   7 1.00000000   0.184E-03       0.001       32.256   0.100E-07
     TRS4 it   8 1.00000000   0.117E-06       0.001       32.256   0.100E-07
     TRS4 it   9 1.00000000   0.578E-13       0.001       32.256   0.100E-07
     Final TRS4 iteration    9 1.00000000   0.578E-13
     Chemical potential (mu):       0.01360
 
 PAO| energy:  -7.7986573105620360      penalty:   1.0224687831515981E-005
 PAO|LS| Need extra step
 PAO|LS| adapt:  T T T
 PAO|LS| adapt: scan_steps:    0.0000000000000000       0.99664688740599439        1.9932937748119888     
 PAO|LS| adapt: energies:   -7.7986543152442325       -7.7986708371784896       -7.7986573105620360     
 PAO|LS| adapt: suggested step_size:    1.0463210662782512     
 PAO|LS| adapt: predicted energy  -7.7986708745011244     
 PAO| ======================= Iteration:        33 =============================

     Lanczos converged:  T threshold:   0.100E-02
     Est. extremal eigenvalues:    0.276E+01   0.180E+00
     Est. condition number :    0.153E+02
     NS sqrt iter    1 1.00000000   0.704E+00       0.002       41.120
     NS sqrt iter    2 1.00000000   0.329E+00       0.002       64.259
     NS sqrt iter    3 1.00000000   0.749E-01       0.002       65.355
     NS sqrt iter    4 1.00000000   0.183E-02       0.002       65.564
     NS sqrt iter    5 1.00000000   0.570E-07       0.002       46.155
     Final NS sqrt iter    5 1.00000000   0.514E-09

     Est. extremal eigenvalues     -0.93671     1.70755  converged:  T
     TRS4 it   1 1.00000000   0.879E+00       0.001       16.128   0.100E-07
     TRS4 it   2 1.00000000   0.620E+00       0.001       32.256   0.100E-07
     TRS4 it   3 1.00000000   0.422E+00       0.001       32.256   0.100E-07
     TRS4 it   4 1.00000000   0.213E+00       0.001       32.256   0.100E-07
     TRS4 it   5 1.00000000   0.681E-01       0.001       32.256   0.100E-07
     TRS4 it   6 1.00000000   0.872E-02       0.001       32.256   0.100E-07
[...]

     Lanczos converged:  T threshold:   0.100E-02
     Est. extremal eigenvalues:    0.250E+01   0.191E+00
     Est. condition number :    0.131E+02
     NS sqrt iter    1 1.00000000   0.633E+00       0.002       39.966
     NS sqrt iter    2 1.00000000   0.275E+00       0.002       65.028
     NS sqrt iter    3 1.00000000   0.486E-01       0.002       64.128
     NS sqrt iter    4 1.00000000   0.762E-03       0.002       65.252
     NS sqrt iter    5 1.00000000   0.581E-08       0.001       28.651
     Final NS sqrt iter    5 1.00000000   0.343E-09

     Est. extremal eigenvalues     -0.93639     1.63089  converged:  T
     TRS4 it   1 1.00000000   0.880E+00       0.001       16.128   0.100E-07
     TRS4 it   2 1.00000000   0.633E+00       0.001       32.256   0.100E-07
     TRS4 it   3 1.00000000   0.454E+00       0.001       32.256   0.100E-07
     TRS4 it   4 1.00000000   0.277E+00       0.001       32.256   0.100E-07
     TRS4 it   5 1.00000000   0.136E+00       0.001       32.256   0.100E-07
     TRS4 it   6 1.00000000   0.419E-01       0.001       32.256   0.100E-07
     TRS4 it   7 1.00000000   0.551E-02       0.001       32.256   0.100E-07
     TRS4 it   8 1.00000000   0.128E-03       0.001       32.256   0.100E-07
     TRS4 it   9 1.00000000   0.733E-07       0.001       32.256   0.100E-07
     Final TRS4 iteration    9 1.00000000   0.733E-07
     Chemical potential (mu):      -0.07356
 
 PAO| energy:  -7.7977322965842299      penalty:   2.6320137117816732E-008
 PAO|LS| Need extra step
 PAO|LS| adapt:  T T T
 PAO|LS| adapt: scan_steps:    0.0000000000000000       0.20000000000000001       0.40000000000000002     
 PAO|LS| adapt: energies:   -7.7977322928160868       -7.7977322978062746       -7.7977322965842299     
 PAO|LS| adapt: suggested step_size:   0.26065682710850124     
 PAO|LS| adapt: predicted energy  -7.7977322980919794     
 PAO| ======================= Iteration:       411 =============================

     Lanczos converged:  T threshold:   0.100E-02
     Est. extremal eigenvalues:    0.250E+01   0.191E+00
     Est. condition number :    0.131E+02
     NS sqrt iter    1 1.00000000   0.633E+00       0.002       41.604
     NS sqrt iter    2 1.00000000   0.275E+00       0.002       67.100
     NS sqrt iter    3 1.00000000   0.486E-01       0.002       67.777
     NS sqrt iter    4 1.00000000   0.762E-03       0.002       68.852
     NS sqrt iter    5 1.00000000   0.581E-08       0.001       28.855
     Final NS sqrt iter    5 1.00000000   0.343E-09

     Est. extremal eigenvalues     -0.93639     1.63089  converged:  T
     TRS4 it   1 1.00000000   0.880E+00       0.001       16.128   0.100E-07
     TRS4 it   2 1.00000000   0.633E+00       0.001       32.256   0.100E-07
     TRS4 it   3 1.00000000   0.454E+00       0.001       32.256   0.100E-07
     TRS4 it   4 1.00000000   0.277E+00       0.001       32.256   0.100E-07
     TRS4 it   5 1.00000000   0.136E+00       0.001       32.256   0.100E-07
     TRS4 it   6 1.00000000   0.419E-01       0.001       32.256   0.100E-07
     TRS4 it   7 1.00000000   0.551E-02       0.001       32.256   0.100E-07
     TRS4 it   8 1.00000000   0.128E-03       0.001       32.256   0.100E-07
     TRS4 it   9 1.00000000   0.733E-07       0.001       32.256   0.100E-07
     Final TRS4 iteration    9 1.00000000   0.733E-07
     Chemical potential (mu):      -0.07356
 
 PAO| energy:  -7.7977322980919874      penalty:   2.6618974600668663E-008
 PAO|CG| warming up with steepest descent
 PAO|CG| beta:    0.0000000000000000     
 PAO| norm of gradient:   1.2349350234163416E-004
 PAO| energy improvement:  -5.2759006052838231E-009
 PAO| step    411                   -7.797732298  0.772E-05  0.261E+00     0.103
 PAO| converged after          411  steps :-)
 PAO| Recalculating energy after mixing.

     Lanczos converged:  T threshold:   0.100E-02
     Est. extremal eigenvalues:    0.250E+01   0.191E+00
     Est. condition number :    0.131E+02
     NS sqrt iter    1 1.00000000   0.633E+00       0.002       42.717
     NS sqrt iter    2 1.00000000   0.275E+00       0.002       68.080
     NS sqrt iter    3 1.00000000   0.486E-01       0.002       68.706
     NS sqrt iter    4 1.00000000   0.762E-03       0.002       69.145
     NS sqrt iter    5 1.00000000   0.581E-08       0.001       29.020
     Final NS sqrt iter    5 1.00000000   0.343E-09

     Est. extremal eigenvalues     -0.93639     1.63089  converged:  T
     TRS4 it   1 1.00000000   0.880E+00       0.001       16.128   0.100E-07
     TRS4 it   2 1.00000000   0.633E+00       0.001       32.256   0.100E-07
     TRS4 it   3 1.00000000   0.454E+00       0.001       32.256   0.100E-07
     TRS4 it   4 1.00000000   0.277E+00       0.001       32.256   0.100E-07
     TRS4 it   5 1.00000000   0.136E+00       0.001       32.256   0.100E-07
     TRS4 it   6 1.00000000   0.419E-01       0.001       32.256   0.100E-07
     TRS4 it   7 1.00000000   0.551E-02       0.001       32.256   0.100E-07
     TRS4 it   8 1.00000000   0.128E-03       0.001       32.256   0.100E-07
     TRS4 it   9 1.00000000   0.733E-07       0.001       32.256   0.100E-07
     Final TRS4 iteration    9 1.00000000   0.733E-07
     Chemical potential (mu):      -0.07356
 
 PAO| energy:  -7.7977322967729963      penalty:   2.6900001333436260E-008
 PAO| Writing restart file.
     Est. extremal eigenvalues     -0.93639     1.63089  converged:  T
     TRS4 it   1 1.00000000   0.880E+00       0.001       16.128   0.100E-07
     TRS4 it   2 1.00000000   0.633E+00       0.001       32.256   0.100E-07
     TRS4 it   3 1.00000000   0.454E+00       0.001       32.256   0.100E-07
     TRS4 it   4 1.00000000   0.277E+00       0.001       32.256   0.100E-07
     TRS4 it   5 1.00000000   0.136E+00       0.001       32.256   0.100E-07
     TRS4 it   6 1.00000000   0.419E-01       0.001       32.256   0.100E-07
     TRS4 it   7 1.00000000   0.551E-02       0.001       32.256   0.100E-07
     TRS4 it   8 1.00000000   0.128E-03       0.001       32.256   0.100E-07
     TRS4 it   9 1.00000000   0.733E-07       0.001       32.256   0.100E-07
     Final TRS4 iteration    9 1.00000000   0.733E-07
     Chemical potential (mu):      -0.07356

 SCF     1       -34.450143110       -34.450143110    2.260558

*********************************************************
 Using MIXING_FRACTION=0.450 to mix KS matrix:  iscf=  2
 KS_nw=0.450*KS + 0.550*KS_old
*********************************************************
     Est. extremal eigenvalues     -0.93640     1.63089  converged:  T
     TRS4 it   1 1.00000000   0.880E+00       0.000       16.128   0.100E-07
     TRS4 it   2 1.00000000   0.633E+00       0.001       32.256   0.100E-07
     TRS4 it   3 1.00000000   0.454E+00       0.001       32.256   0.100E-07
     TRS4 it   4 1.00000000   0.277E+00       0.001       32.256   0.100E-07
     TRS4 it   5 1.00000000   0.136E+00       0.001       32.256   0.100E-07
     TRS4 it   6 1.00000000   0.419E-01       0.001       32.256   0.100E-07
     TRS4 it   7 1.00000000   0.551E-02       0.001       32.256   0.100E-07
     TRS4 it   8 1.00000000   0.128E-03       0.001       32.256   0.100E-07
     TRS4 it   9 1.00000000   0.734E-07       0.001       32.256   0.100E-07
     Final TRS4 iteration    9 1.00000000   0.734E-07
     Chemical potential (mu):      -0.07356

 SCF     2       -34.450143110        -0.000000000    1.718125

 PAO| Storing density matrix for ASPC guess in slot:           1

 ENERGY| Total FORCE_EVAL ( QS ) energy (a.u.):              -34.450143110054682


 -------------------------------------------------------------------------------
 -                                                                             -
 -                                DBCSR STATISTICS                             -
 -                                                                             -
 -------------------------------------------------------------------------------
 COUNTER                                    TOTAL       BLAS       SMM       ACC
 flops     5 x     5 x     4                20000     100.0%      0.0%      0.0%
 flops    13 x     5 x     4                20800     100.0%      0.0%      0.0%
 flops     5 x    13 x     4                20800     100.0%      0.0%      0.0%
 flops    13 x    13 x     4                40560     100.0%      0.0%      0.0%
 flops     4 x     4 x     5              3229440     100.0%      0.0%      0.0%
 flops     5 x     4 x     5              3948800     100.0%      0.0%      0.0%
 flops     4 x     4 x    13              4198272     100.0%      0.0%      0.0%
 flops    13 x     4 x     5              5133440     100.0%      0.0%      0.0%
 flops     5 x     4 x    13              5133440     100.0%      0.0%      0.0%
 flops     5 x     4 x     4              6570880     100.0%      0.0%      0.0%
 flops    13 x     4 x    13              6673472     100.0%      0.0%      0.0%
 flops    13 x     4 x     4              8847072     100.0%      0.0%      0.0%
 flops     4 x     4 x     4            411744896     100.0%      0.0%      0.0%
 flops inhomo. stacks                           0       0.0%      0.0%      0.0%
 flops total                       455.581872E+06     100.0%      0.0%      0.0%
 flops max/rank                    455.581872E+06     100.0%      0.0%      0.0%
 matmuls inhomo. stacks                         0       0.0%      0.0%      0.0%
 matmuls total                            3354002     100.0%      0.0%      0.0%
 number of processed stacks                 26792     100.0%      0.0%      0.0%
 average stack size                                   125.2       0.0       0.0
 marketing flops                   739.205376E+06
 -------------------------------------------------------------------------------
 # multiplications                          22270
 max memory usage/rank             327.933952E+06
 # max total images/rank                        1
 # max 3D layers                                1
 # MPI messages exchanged                       0
 MPI messages size (bytes):
  total size                         0.000000E+00
  min size                           0.000000E+00
  max size                           0.000000E+00
  average size                       0.000000E+00
 MPI breakdown and total messages size (bytes):
             size <=      128                   0                        0
       128 < size <=     8192                   0                        0
      8192 < size <=    32768                   0                        0
     32768 < size <=   131072                   0                        0
    131072 < size <=  4194304                   0                        0
   4194304 < size <= 16777216                   0                        0
  16777216 < size                               0                        0
 -------------------------------------------------------------------------------

 MEMORY| Estimated peak process memory [MiB]                                 313

 -------------------------------------------------------------------------------
 -                                                                             -
 -                           R E F E R E N C E S                               -
 -                                                                             -
 -------------------------------------------------------------------------------
 
 CP2K version 7.0 (Development Version), the CP2K developers group (2018).
 CP2K is freely available from https://www.cp2k.org/ .

 Schuett, O; VandeVondele, J. 
 Journal of Chemical Theory and Computation, 14, (2018). 
 Machine Learning Adaptive Basis Sets for Efficient Large Scale Density Functional Theory Simulation.
 https://dx.doi.org/10.1021/acs.jctc.8b00378


 Schuett, Ole; Messmer, Peter; Hutter, Juerg; VandeVondele, Joost. 
 Electronic Structure Calculations on Graphics Processing Units, John Wiley & Sons, Ltd, 173-190 (2016). 
 GPU-Accelerated Sparse Matrix-Matrix Multiplication for Linear Scaling Density Functional Theory.
 https://dx.doi.org/10.1002/9781118670712.ch8


 Borstnik, U; VandeVondele, J; Weber, V; Hutter, J. 
 PARALLEL COMPUTING, 40 (5-6), 47-58 (2014). 
 Sparse matrix multiplication: The distributed block-compressed sparse
 row library.
 https://dx.doi.org/10.1016/j.parco.2014.03.012


 Hutter, J; Iannuzzi, M; Schiffmann, F; VandeVondele, J. 
 WILEY INTERDISCIPLINARY REVIEWS-COMPUTATIONAL MOLECULAR SCIENCE, 4 (1), 15-25 (2014). 
 CP2K: atomistic simulations of condensed matter systems.
 https://dx.doi.org/10.1002/wcms.1159


 VandeVondele, J; Borstnik, U; Hutter, J. 
 JOURNAL OF CHEMICAL THEORY AND COMPUTATION, 8 (10), 3565-3573 (2012). 
 Linear Scaling Self-Consistent Field Calculations with Millions of Atoms
 in the Condensed Phase.
 https://dx.doi.org/10.1021/ct200897x


 VandeVondele, J; Hutter, J. 
 JOURNAL OF CHEMICAL PHYSICS, 127 (11), 114105 (2007). 
 Gaussian basis sets for accurate calculations on molecular systems in
 gas and condensed phases.
 https://dx.doi.org/10.1063/1.2770708


 Krack, M. 
 THEORETICAL CHEMISTRY ACCOUNTS, 114 (1-3), 145-152 (2005). 
 Pseudopotentials for H to Kr optimized for gradient-corrected
 exchange-correlation functionals.
 https://dx.doi.org/10.1007/s00214-005-0655-y


 VandeVondele, J; Krack, M; Mohamed, F; Parrinello, M; Chassaing, T;
 Hutter, J. COMPUTER PHYSICS COMMUNICATIONS, 167 (2), 103-128 (2005). 
 QUICKSTEP: Fast and accurate density functional calculations using a
 mixed Gaussian and plane waves approach.
 https://dx.doi.org/10.1016/j.cpc.2004.12.014


 Frigo, M; Johnson, SG. 
 PROCEEDINGS OF THE IEEE, 93 (2), 216-231 (2005). 
 The design and implementation of FFTW3.
 https://dx.doi.org/10.1109/JPROC.2004.840301


 Niklasson, AMN; Tymczak, CJ; Challacombe, M. 
 JOURNAL OF CHEMICAL PHYSICS, 118 (19), 8611-8620 (2003). 
 Trace resetting density matrix purification in O(N)
 self-consistent-field theory.
 https://dx.doi.org/10.1063/1.1559913


 Hartwigsen, C; Goedecker, S; Hutter, J. 
 PHYSICAL REVIEW B, 58 (7), 3641-3662 (1998). 
 Relativistic separable dual-space Gaussian pseudopotentials from H to Rn.
 https://dx.doi.org/10.1103/PhysRevB.58.3641


 Lippert, G; Hutter, J; Parrinello, M. 
 MOLECULAR PHYSICS, 92 (3), 477-487 (1997). 
 A hybrid Gaussian and plane wave density functional scheme.
 https://dx.doi.org/10.1080/002689797170220


 Perdew, JP; Burke, K; Ernzerhof, M. 
 PHYSICAL REVIEW LETTERS, 77 (18), 3865-3868 (1996). 
 Generalized gradient approximation made simple.
 https://dx.doi.org/10.1103/PhysRevLett.77.3865


 Goedecker, S; Teter, M; Hutter, J. 
 PHYSICAL REVIEW B, 54 (3), 1703-1710 (1996). 
 Separable dual-space Gaussian pseudopotentials.
 https://dx.doi.org/10.1103/PhysRevB.54.1703


 -------------------------------------------------------------------------------
 -                                                                             -
 -                                T I M I N G                                  -
 -                                                                             -
 -------------------------------------------------------------------------------
 SUBROUTINE                       CALLS  ASD         SELF TIME        TOTAL TIME
                                MAXIMUM       AVERAGE  MAXIMUM  AVERAGE  MAXIMUM
 CP2K                                 1  1.0    0.012    0.012   34.653   34.653
 qs_energies                          1  2.0    0.000    0.000   34.155   34.155
 ls_scf                               1  3.0    0.000    0.000   33.971   33.971
 ls_scf_main                          4  4.0    0.001    0.001   20.190   20.190
 ls_scf_dm_to_ks                      9  5.0    0.000    0.000   20.082   20.082
 qs_ks_update_qs_env                 10  6.0    0.000    0.000   16.083   16.083
 rebuild_ks_matrix                   10  7.0    0.000    0.000   16.082   16.082
 qs_ks_build_kohn_sham_matrix        10  8.0    0.001    0.001   16.082   16.082
 pao_update                           4  4.0    0.012    0.012   11.200   11.200
 pao_calc_energy                    414  5.0    0.005    0.005   10.061   10.061
 qs_vxc_create                       10  9.0    0.000    0.000    9.513    9.513
 xc_vxc_pw_create                    10 10.0    0.117    0.117    9.513    9.513
 dbcsr_multiply_generic           22270  8.4    0.514    0.514    8.634    8.634
 xc_rho_set_and_dset_create          10 11.0    0.031    0.031    6.918    6.918
 pw_transfer                        191 10.6    0.013    0.013    6.645    6.645
 fft_wrap_pw1pw2                    171 11.7    0.002    0.002    6.550    6.550
 qs_rho_update_rho                   10  6.0    0.000    0.000    6.501    6.501
 calculate_rho_elec                  10  7.0    5.054    5.054    6.501    6.501
 fft_wrap_pw1pw2_200                111 12.8    0.339    0.339    6.259    6.259
 sum_up_and_integrate                10  9.0    0.020    0.020    5.619    5.619
 integrate_v_rspace                  10 10.0    4.742    4.742    5.599    5.599
 pao_dm_trs4                        414  6.0    0.003    0.003    5.153    5.153
 density_matrix_trs4                423  7.0    0.180    0.180    4.959    4.959
 xc_functional_eval                  10 12.0    0.000    0.000    4.952    4.952
 pbe_lda_eval                        10 13.0    4.952    4.952    4.952    4.952
 ls_scf_init_matrix_S               418  7.0    0.004    0.004    4.906    4.906
 pao_rebuild_S                      414  6.0    0.003    0.003    4.861    4.861
 matrix_sqrt_Newton_Schulz          418  8.0    0.116    0.116    4.433    4.433
 multiply_cannon                  22270  9.4    1.366    1.366    4.069    4.069
 fft3d_s                            172 13.6    3.443    3.443    3.460    3.460
 make_m2s                         44540  9.4    0.202    0.202    2.757    2.757
 pao_guess_initial_P                  1  4.0    0.000    0.000    2.508    2.508
 pao_read_preopt_dm                   1  5.0    0.000    0.000    2.508    2.508
 make_images                      44540 10.4    0.654    0.654    2.424    2.424
 pw_gather_s                         81 13.1    1.629    1.629    1.629    1.629
 multiply_cannon_multrec          22270 10.4    1.452    1.452    1.585    1.585
 density_rs2pw                       10  8.0    0.001    0.001    1.433    1.433
 arnoldi_extremal                   841  8.5    0.004    0.004    1.244    1.244
 arnoldi_normal_ev                  841  9.5    0.014    0.014    1.240    1.240
 pao_calc_AB                        546  5.8    0.001    0.001    1.116    1.116
 pao_calc_AB_direct                 546  6.8    0.031    0.031    1.115    1.115
 pw_scatter_s                        90 14.2    1.106    1.106    1.106    1.106
 pao_calc_grad_lnv_wrt_AB           131  7.0    0.008    0.008    1.053    1.053
 build_subspace                     841 10.5    0.062    0.062    0.903    0.903
 potential_pw2rs                     10 11.0    0.003    0.003    0.856    0.856
 dbcsr_finalize                   52640  9.6    0.138    0.138    0.815    0.815
 dbcsr_matrix_vector_mult         20171 11.5    0.123    0.123    0.814    0.814
 dbcsr_create_new                170366 10.7    0.383    0.383    0.736    0.736
 -------------------------------------------------------------------------------

 The number of warnings for this run is : 0
 
 -------------------------------------------------------------------------------
  **** **** ******  **  PROGRAM ENDED AT                 2019-03-28 17:34:34.414
 ***** ** ***  *** **   PROGRAM RAN ON            oleschuett.zrh.corp.google.com
 **    ****   ******    PROGRAM RAN BY                                oleschuett
 ***** **    ** ** **   PROGRAM PROCESS ID                                 35541
  **** **  *******  **  PROGRAM STOPPED IN /usr/local/google/home/oleschuett/git
                                           /pao_ml_equivar/2H2O_rotations/rand_0
                                           7
