6
Properties=species:S:1:pos:R:3 i=0 time=0.0 E=-34.4504806384 pbc="F F F"
O       4.51080319      -1.22490019       4.58118820 
H       4.85872245      -0.51724213       4.02850270 
H       3.56229465      -1.23504397       4.41883779 
O       5.68763060      -3.83826190       3.69545924 
H       6.14647260      -4.26953461       4.42181512 
H       5.34230398      -3.01043004       4.06406870 
