 DBCSR| CPU Multiplication driver                                           XSMM
 DBCSR| Multrec recursion limit                                              512
 DBCSR| Multiplication stack size                                           1000
 DBCSR| Maximum elements for images                                    UNLIMITED
 DBCSR| Multiplicative factor virtual images                                   1
 DBCSR| Use multiplication densification                                       T
 DBCSR| Multiplication size stacks                                             3


  **** **** ******  **  PROGRAM STARTED AT               2019-02-14 00:27:58.454
 ***** ** ***  *** **   PROGRAM STARTED ON                                  otto
 **    ****   ******    PROGRAM STARTED BY                                   ole
 ***** **    ** ** **   PROGRAM PROCESS ID                                  5172
  **** **  *******  **  PROGRAM STARTED IN /home/ole/git/pao_ml_equivar/2H2O_MD/
                                           frame_0525

 CP2K| version string:                    CP2K version 7.0 (Development Version)
 CP2K| source code revision number:                                git:8bf305913
 CP2K| cp2kflags: libint fftw3 libxc xsmm libderiv_max_am1=5 libint_max_am=6    
 CP2K| is freely available from                            https://www.cp2k.org/
 CP2K| Program compiled at                           So Jan 13 00:02:37 CET 2019
 CP2K| Program compiled on                                                  otto
 CP2K| Program compiled for                                                local
 CP2K| Data directory path                               /home/ole/git/cp2k/data
 CP2K| Input file name                                              2H2O_ref.inp

 GLOBAL| Force Environment number                                              1
 GLOBAL| Basis set file name                                        BASIS_MOLOPT
 GLOBAL| Potential file name                                      GTH_POTENTIALS
 GLOBAL| MM Potential file name                                     MM_POTENTIAL
 GLOBAL| Coordinate file name                                         coords.xyz
 GLOBAL| Method name                                                        CP2K
 GLOBAL| Project name                                                   2H2O_ref
 GLOBAL| Preferred FFT library                                             FFTW3
 GLOBAL| Preferred diagonalization lib.                                       SL
 GLOBAL| Run type                                                         ENERGY
 GLOBAL| All-to-all communication in single precision                          F
 GLOBAL| FFTs using library dependent lengths                                  F
 GLOBAL| Global print level                                                  LOW
 GLOBAL| MPI I/O enabled                                                       T
 GLOBAL| Total number of message passing processes                             1
 GLOBAL| Number of threads for this process                                    1
 GLOBAL| This output is from process                                           0
 GLOBAL| CPU model name :  Intel(R) Core(TM) i5-3320M CPU @ 2.60GHz

 MEMORY| system memory details [Kb]
 MEMORY|                        rank 0           min           max       average
 MEMORY| MemTotal              7860772       7860772       7860772       7860772
 MEMORY| MemFree               2704464       2704464       2704464       2704464
 MEMORY| Buffers                272836        272836        272836        272836
 MEMORY| Cached                1677524       1677524       1677524       1677524
 MEMORY| Slab                   244572        244572        244572        244572
 MEMORY| SReclaimable           124060        124060        124060        124060
 MEMORY| MemLikelyFree         4778884       4778884       4778884       4778884


 GENERATE|  Preliminary Number of Bonds generated:                             0
 GENERATE|  Achieved consistency in connectivity generation.

 *******************************************************************************
 *******************************************************************************
 **                                                                           **
 **     #####                         ##              ##                      **
 **    ##   ##            ##          ##              ##                      **
 **   ##     ##                       ##            ######                    **
 **   ##     ##  ##   ##  ##   #####  ##  ##   ####   ##    #####    #####    **
 **   ##     ##  ##   ##  ##  ##      ## ##   ##      ##   ##   ##  ##   ##   **
 **   ##  ## ##  ##   ##  ##  ##      ####     ###    ##   ######   ######    **
 **    ##  ###   ##   ##  ##  ##      ## ##      ##   ##   ##       ##        **
 **     #######   #####   ##   #####  ##  ##  ####    ##    #####   ##        **
 **           ##                                                    ##        **
 **                                                                           **
 **                                                ... make the atoms dance   **
 **                                                                           **
 **            Copyright (C) by CP2K developers group (2000 - 2018)           **
 **                                                                           **
 *******************************************************************************


 TOTAL NUMBERS AND MAXIMUM NUMBERS

  Total number of            - Atomic kinds:                                   2
                             - Atoms:                                          6
                             - Shell sets:                                     6
                             - Shells:                                        22
                             - Primitive Cartesian functions:                 42
                             - Cartesian basis functions:                     48
                             - Spherical basis functions:                     46

  Maximum angular momentum of- Orbital basis functions:                        2
                             - Local part of the GTH pseudopotential:          2
                             - Non-local part of the GTH pseudopotential:      0

 ------------------------------ Linear scaling SCF -----------------------------
 eps_scf:                                       0.100E-07
 eps_filter:                                    0.100E-07
 mixing_fraction:                               0.450E+00
 max_scf:                                              25
 fixed chemical potential (mu)                          F
 has unit metric:                                       F
 Computing inv(S):                                      T
 Computing sqrt(S):                                     T
 Computing s preconditioner                             F
 sign sqrt order:                                       3
 Extrapolation order:                                   4
 Use single precision matrices                          F
 S preconditioner type                               NONE
 Polarized Atomic Orbitals (PAO)                        F
 Purification method                      Trace resetting 4th order
 Cluster type                                      ATOMIC
 Computing Chebyshev                                FALSE
 Using PAO                                              F
 -------------------------------------------------------------------------------


     Lanczos converged:  T threshold:   0.100E-02
     Est. extremal eigenvalues:    0.413E+01   0.104E-01
     Est. condition number :    0.396E+03
     NS sqrt iter    1 1.00000000   0.107E+01       0.002      213.852
     NS sqrt iter    2 1.00000000   0.622E+00       0.001      677.694
     NS sqrt iter    3 1.00000000   0.346E+00       0.001      688.427
     NS sqrt iter    4 1.00000000   0.235E+00       0.001      665.696
     NS sqrt iter    5 1.00000000   0.120E+00       0.001      743.623
     NS sqrt iter    6 1.00000000   0.162E-01       0.001      758.280
     NS sqrt iter    7 1.00000000   0.594E-04       0.001      721.138
     Final NS sqrt iter    7 1.00000000   0.843E-08



 Guess for atomic kind: O

 Electronic structure
    Total number of core electrons                                          2.00
    Total number of valence electrons                                       6.00
    Total number of electrons                                               8.00
    Multiplicity                                                   not specified
    S   [  2.00] 2.00
    P      4.00


 *******************************************************************************
                  Iteration          Convergence                     Energy [au]
 *******************************************************************************
                          1        0.708315                     -15.576645311500
                          2        0.608879                     -15.587933561584
                          3        0.102828E-01                 -15.656849565404
                          4        0.113889E-02                 -15.656866888140
                          5        0.434197E-03                 -15.656867072159
                          6        0.263771E-03                 -15.656867091904
                          7        0.478536E-06                 -15.656867103452

 Energy components [Hartree]           Total Energy ::          -15.656867103452
                                        Band Energy ::           -3.000198112285
                                     Kinetic Energy ::           11.759971203220
                                   Potential Energy ::          -27.416838306672
                                      Virial (-V/T) ::            2.331369510426
                                        Core Energy ::          -26.140716385623
                                          XC Energy ::           -3.154051012914
                                     Coulomb Energy ::           13.637900295084
                       Total Pseudopotential Energy ::          -37.935781716540
                       Local Pseudopotential Energy ::          -39.218907440693
                    Nonlocal Pseudopotential Energy ::            1.283125724153
                                        Confinement ::            0.350941276976

 Orbital energies  State     L     Occupation   Energy[a.u.]          Energy[eV]

                       1     0          2.000      -0.864471          -23.523463

                       1     1          4.000      -0.317814           -8.648154


 Total Electron Density at R=0:                                         0.000068

 Guess for atomic kind: H

 Electronic structure
    Total number of core electrons                                          0.00
    Total number of valence electrons                                       1.00
    Total number of electrons                                               1.00
    Multiplicity                                                   not specified
    S      1.00


 *******************************************************************************
                  Iteration          Convergence                     Energy [au]
 *******************************************************************************
                          1        0.437545E-02                  -0.424159432110
                          2        0.531356E-03                  -0.424178438213
                          3        0.259176E-06                  -0.424178722480

 Energy components [Hartree]           Total Energy ::           -0.424178722480
                                        Band Energy ::           -0.199015229016
                                     Kinetic Energy ::            0.464007633961
                                   Potential Energy ::           -0.888186356441
                                      Virial (-V/T) ::            1.914163240935
                                        Core Energy ::           -0.479160803564
                                          XC Energy ::           -0.244352904054
                                     Coulomb Energy ::            0.299334985138
                       Total Pseudopotential Energy ::           -0.962295316385
                       Local Pseudopotential Energy ::           -0.962295316385
                    Nonlocal Pseudopotential Energy ::            0.000000000000
                                        Confinement ::            0.191268788606

 Orbital energies  State     L     Occupation   Energy[a.u.]          Energy[eV]

                       1     0          1.000      -0.199015           -5.415480


 Total Electron Density at R=0:                                         0.242907
 Re-scaling the density matrix to get the right number of electrons
                  # Electrons              Trace(P)               Scaling factor
                           16                15.990                        1.001
 Energy with the initial guess:       -34.134771104

     Est. extremal eigenvalues     -1.06626     3.79099  converged:  T
     TRS4 it   1 1.00000000   0.179E+01       0.000      117.484   0.100E-07
     TRS4 it   2 1.00000000   0.157E+01       0.000      117.484   0.100E-07
     TRS4 it   3 1.00000000   0.902E+00       0.001      234.968   0.100E-07
     TRS4 it   4 1.00000000   0.560E+00       0.001      234.968   0.100E-07
     TRS4 it   5 1.00000000   0.336E+00       0.001      234.968   0.100E-07
     TRS4 it   6 1.00000000   0.155E+00       0.001      234.968   0.100E-07
     TRS4 it   7 1.00000000   0.444E-01       0.001      234.968   0.100E-07
     TRS4 it   8 1.00000000   0.467E-02       0.001      234.968   0.100E-07
     TRS4 it   9 1.00000000   0.647E-04       0.001      234.968   0.100E-07
     TRS4 it  10 1.00000000   0.134E-07       0.001      234.968   0.100E-07
     Final TRS4 iteration   10 1.00000000   0.134E-07
     Chemical potential (mu):      -0.22473

 SCF     1       -34.252773038       -34.252773038    2.166319

*********************************************************
 Using MIXING_FRACTION=0.450 to mix KS matrix:  iscf=  2
 KS_nw=0.450*KS + 0.550*KS_old
*********************************************************
     Est. extremal eigenvalues     -0.92958     3.90400  converged:  T
     TRS4 it   1 1.00000000   0.176E+01       0.000      117.484   0.100E-07
     TRS4 it   2 1.00000000   0.160E+01       0.000      117.484   0.100E-07
     TRS4 it   3 1.00000000   0.960E+00       0.001      234.968   0.100E-07
     TRS4 it   4 1.00000000   0.597E+00       0.001      234.968   0.100E-07
     TRS4 it   5 1.00000000   0.400E+00       0.001      234.968   0.100E-07
     TRS4 it   6 1.00000000   0.233E+00       0.001      234.968   0.100E-07
     TRS4 it   7 1.00000000   0.110E+00       0.001      234.968   0.100E-07
     TRS4 it   8 1.00000000   0.333E-01       0.001      234.968   0.100E-07
     TRS4 it   9 1.00000000   0.433E-02       0.001      234.968   0.100E-07
     TRS4 it  10 1.00000000   0.873E-04       0.001      220.516   0.100E-07
     TRS4 it  11 1.00000000   0.348E-07       0.001      194.862   0.100E-07
     Final TRS4 iteration   11 1.00000000   0.348E-07
     Chemical potential (mu):      -0.10901

 SCF     2       -34.438986058        -0.186213020    2.174569

*********************************************************
 Using MIXING_FRACTION=0.450 to mix KS matrix:  iscf=  3
 KS_nw=0.450*KS + 0.550*KS_old
*********************************************************
     Est. extremal eigenvalues     -0.95176     3.89083  converged:  T
     TRS4 it   1 1.00000000   0.177E+01       0.000      117.484   0.100E-07
     TRS4 it   2 1.00000000   0.159E+01       0.000      117.484   0.100E-07
     TRS4 it   3 1.00000000   0.949E+00       0.001      234.968   0.100E-07
     TRS4 it   4 1.00000000   0.593E+00       0.001      234.968   0.100E-07
     TRS4 it   5 1.00000000   0.393E+00       0.001      234.968   0.100E-07
     TRS4 it   6 1.00000000   0.223E+00       0.001      234.968   0.100E-07
     TRS4 it   7 1.00000000   0.100E+00       0.001      234.968   0.100E-07
     TRS4 it   8 1.00000000   0.274E-01       0.001      234.968   0.100E-07
     TRS4 it   9 1.00000000   0.298E-02       0.001      234.968   0.100E-07
     TRS4 it  10 1.00000000   0.416E-04       0.001      234.968   0.100E-07
     TRS4 it  11 1.00000000   0.787E-08       0.001      234.968   0.100E-07
     Final TRS4 iteration   11 1.00000000   0.787E-08
     Chemical potential (mu):      -0.12126

 SCF     3       -34.449152758        -0.010166700    2.169810

*********************************************************
 Using MIXING_FRACTION=0.450 to mix KS matrix:  iscf=  4
 KS_nw=0.450*KS + 0.550*KS_old
*********************************************************
     Est. extremal eigenvalues     -0.94067     3.90241  converged:  T
     TRS4 it   1 1.00000000   0.176E+01       0.000      117.484   0.100E-07
     TRS4 it   2 1.00000000   0.159E+01       0.000      117.484   0.100E-07
     TRS4 it   3 1.00000000   0.953E+00       0.001      234.968   0.100E-07
     TRS4 it   4 1.00000000   0.597E+00       0.001      234.968   0.100E-07
     TRS4 it   5 1.00000000   0.398E+00       0.001      189.880   0.100E-07
     TRS4 it   6 1.00000000   0.230E+00       0.001      211.558   0.100E-07
     TRS4 it   7 1.00000000   0.108E+00       0.001      234.968   0.100E-07
     TRS4 it   8 1.00000000   0.323E-01       0.001      234.968   0.100E-07
     TRS4 it   9 1.00000000   0.432E-02       0.001      234.968   0.100E-07
     TRS4 it  10 1.00000000   0.900E-04       0.001      234.968   0.100E-07
     TRS4 it  11 1.00000000   0.371E-07       0.001      234.968   0.100E-07
     Final TRS4 iteration   11 1.00000000   0.371E-07
     Chemical potential (mu):      -0.10997

 SCF     4       -34.449960761        -0.000808002    2.164574

*********************************************************
 Using MIXING_FRACTION=0.450 to mix KS matrix:  iscf=  5
 KS_nw=0.450*KS + 0.550*KS_old
*********************************************************
     Est. extremal eigenvalues     -0.94088     3.90339  converged:  T
     TRS4 it   1 1.00000000   0.177E+01       0.001      117.484   0.100E-07
     TRS4 it   2 1.00000000   0.159E+01       0.001      117.484   0.100E-07
     TRS4 it   3 1.00000000   0.953E+00       0.001      234.968   0.100E-07
     TRS4 it   4 1.00000000   0.597E+00       0.001      214.828   0.100E-07
     TRS4 it   5 1.00000000   0.399E+00       0.001      234.968   0.100E-07
     TRS4 it   6 1.00000000   0.231E+00       0.001      234.968   0.100E-07
     TRS4 it   7 1.00000000   0.108E+00       0.001      234.968   0.100E-07
     TRS4 it   8 1.00000000   0.327E-01       0.001      234.968   0.100E-07
     TRS4 it   9 1.00000000   0.445E-02       0.001      234.968   0.100E-07
     TRS4 it  10 1.00000000   0.963E-04       0.001      234.968   0.100E-07
     TRS4 it  11 1.00000000   0.424E-07       0.001      234.968   0.100E-07
     Final TRS4 iteration   11 1.00000000   0.424E-07
     Chemical potential (mu):      -0.10904

 SCF     5       -34.450030315        -0.000069555    2.160114

*********************************************************
 Using MIXING_FRACTION=0.450 to mix KS matrix:  iscf=  6
 KS_nw=0.450*KS + 0.550*KS_old
*********************************************************
     Est. extremal eigenvalues     -0.93936     3.90533  converged:  T
     TRS4 it   1 1.00000000   0.176E+01       0.000      117.484   0.100E-07
     TRS4 it   2 1.00000000   0.159E+01       0.000      117.484   0.100E-07
     TRS4 it   3 1.00000000   0.953E+00       0.001      234.968   0.100E-07
     TRS4 it   4 1.00000000   0.597E+00       0.001      234.968   0.100E-07
     TRS4 it   5 1.00000000   0.400E+00       0.001      234.968   0.100E-07
     TRS4 it   6 1.00000000   0.232E+00       0.001      192.608   0.100E-07
     TRS4 it   7 1.00000000   0.109E+00       0.001      201.573   0.100E-07
     TRS4 it   8 1.00000000   0.336E-01       0.001      234.968   0.100E-07
     TRS4 it   9 1.00000000   0.474E-02       0.001      234.968   0.100E-07
     TRS4 it  10 1.00000000   0.110E-03       0.001      234.968   0.100E-07
     TRS4 it  11 1.00000000   0.551E-07       0.001      234.968   0.100E-07
     Final TRS4 iteration   11 1.00000000   0.551E-07
     Chemical potential (mu):      -0.10715

 SCF     6       -34.450038118        -0.000007802    2.147059

*********************************************************
 Using MIXING_FRACTION=0.450 to mix KS matrix:  iscf=  7
 KS_nw=0.450*KS + 0.550*KS_old
*********************************************************
     Est. extremal eigenvalues     -0.93898     3.90595  converged:  T
     TRS4 it   1 1.00000000   0.176E+01       0.000      117.484   0.100E-07
     TRS4 it   2 1.00000000   0.159E+01       0.001      117.484   0.100E-07
     TRS4 it   3 1.00000000   0.953E+00       0.001      234.968   0.100E-07
     TRS4 it   4 1.00000000   0.598E+00       0.001      234.968   0.100E-07
     TRS4 it   5 1.00000000   0.400E+00       0.001      234.968   0.100E-07
     TRS4 it   6 1.00000000   0.232E+00       0.001      234.968   0.100E-07
     TRS4 it   7 1.00000000   0.110E+00       0.001      234.968   0.100E-07
     TRS4 it   8 1.00000000   0.338E-01       0.001      234.968   0.100E-07
     TRS4 it   9 1.00000000   0.483E-02       0.001      234.968   0.100E-07
     TRS4 it  10 1.00000000   0.114E-03       0.001      234.968   0.100E-07
     TRS4 it  11 1.00000000   0.597E-07       0.001      234.968   0.100E-07
     Final TRS4 iteration   11 1.00000000   0.597E-07
     Chemical potential (mu):      -0.10657

 SCF     7       -34.450039390        -0.000001272    2.177357

*********************************************************
 Using MIXING_FRACTION=0.450 to mix KS matrix:  iscf=  8
 KS_nw=0.450*KS + 0.550*KS_old
*********************************************************
     Est. extremal eigenvalues     -0.93866     3.90639  converged:  T
     TRS4 it   1 1.00000000   0.176E+01       0.000      117.484   0.100E-07
     TRS4 it   2 1.00000000   0.159E+01       0.000      117.484   0.100E-07
     TRS4 it   3 1.00000000   0.953E+00       0.001      234.968   0.100E-07
     TRS4 it   4 1.00000000   0.598E+00       0.001      234.968   0.100E-07
     TRS4 it   5 1.00000000   0.400E+00       0.001      234.968   0.100E-07
     TRS4 it   6 1.00000000   0.232E+00       0.001      234.968   0.100E-07
     TRS4 it   7 1.00000000   0.110E+00       0.001      173.840   0.100E-07
     TRS4 it   8 1.00000000   0.340E-01       0.001      193.507   0.100E-07
     TRS4 it   9 1.00000000   0.490E-02       0.001      174.011   0.100E-07
     TRS4 it  10 1.00000000   0.117E-03       0.001      234.968   0.100E-07
     TRS4 it  11 1.00000000   0.633E-07       0.001      234.968   0.100E-07
     Final TRS4 iteration   11 1.00000000   0.633E-07
     Chemical potential (mu):      -0.10614

 SCF     8       -34.450039674        -0.000000284    2.160078

*********************************************************
 Using MIXING_FRACTION=0.450 to mix KS matrix:  iscf=  9
 KS_nw=0.450*KS + 0.550*KS_old
*********************************************************
     Est. extremal eigenvalues     -0.93852     3.90658  converged:  T
     TRS4 it   1 1.00000000   0.176E+01       0.000      117.484   0.100E-07
     TRS4 it   2 1.00000000   0.159E+01       0.000      117.484   0.100E-07
     TRS4 it   3 1.00000000   0.953E+00       0.001      234.968   0.100E-07
     TRS4 it   4 1.00000000   0.598E+00       0.001      234.968   0.100E-07
     TRS4 it   5 1.00000000   0.400E+00       0.001      234.968   0.100E-07
     TRS4 it   6 1.00000000   0.233E+00       0.001      234.968   0.100E-07
     TRS4 it   7 1.00000000   0.110E+00       0.001      234.968   0.100E-07
     TRS4 it   8 1.00000000   0.341E-01       0.001      234.968   0.100E-07
     TRS4 it   9 1.00000000   0.493E-02       0.001      194.204   0.100E-07
     TRS4 it  10 1.00000000   0.119E-03       0.001      202.198   0.100E-07
     TRS4 it  11 1.00000000   0.650E-07       0.001      234.968   0.100E-07
     Final TRS4 iteration   11 1.00000000   0.650E-07
     Chemical potential (mu):      -0.10595

 SCF     9       -34.450039748        -0.000000074    2.180128

 Writing restart DM 2H2O_ref_LS_DM_SPIN_1_RESTART.dm with checksum:       0.56723436E+02

 ENERGY| Total FORCE_EVAL ( QS ) energy (a.u.):              -34.450039747609502


 -------------------------------------------------------------------------------
 -                                                                             -
 -                                DBCSR STATISTICS                             -
 -                                                                             -
 -------------------------------------------------------------------------------
 COUNTER                                    TOTAL       BLAS       SMM       ACC
 flops     5 x     5 x     5              2783000       0.0%    100.0%      0.0%
 flops     5 x    13 x     5              3128450       0.0%    100.0%      0.0%
 flops    13 x     5 x     5              3128450       0.0%    100.0%      0.0%
 flops     5 x     5 x    13              3610100       0.0%    100.0%      0.0%
 flops    13 x     5 x    13              4079660       0.0%    100.0%      0.0%
 flops     5 x    13 x    13              4079660       0.0%    100.0%      0.0%
 flops    13 x    13 x     5              5326880       0.0%    100.0%      0.0%
 flops    13 x    13 x    13              6968884       0.0%    100.0%      0.0%
 flops inhomo. stacks                           0       0.0%      0.0%      0.0%
 flops total                        33.105084E+06       0.0%    100.0%      0.0%
 flops max/rank                     33.105084E+06       0.0%    100.0%      0.0%
 matmuls inhomo. stacks                         0       0.0%      0.0%      0.0%
 matmuls total                              35878       0.0%    100.0%      0.0%
 number of processed stacks                  1960       0.0%    100.0%      0.0%
 average stack size                                     0.0      18.3       0.0
 marketing flops                    47.889312E+06
 -------------------------------------------------------------------------------
 # multiplications                            246
 max memory usage/rank             321.122304E+06
 # max total images/rank                        1
 # max 3D layers                                1
 # MPI messages exchanged                       0
 MPI messages size (bytes):
  total size                         0.000000E+00
  min size                           0.000000E+00
  max size                           0.000000E+00
  average size                       0.000000E+00
 MPI breakdown and total messages size (bytes):
             size <=      128                   0                        0
       128 < size <=     8192                   0                        0
      8192 < size <=    32768                   0                        0
     32768 < size <=   131072                   0                        0
    131072 < size <=  4194304                   0                        0
   4194304 < size <= 16777216                   0                        0
  16777216 < size                               0                        0
 -------------------------------------------------------------------------------

 MEMORY| Estimated peak process memory [MiB]                                 307

 -------------------------------------------------------------------------------
 -                                                                             -
 -                           R E F E R E N C E S                               -
 -                                                                             -
 -------------------------------------------------------------------------------
 
 CP2K version 7.0 (Development Version), the CP2K developers group (2018).
 CP2K is freely available from https://www.cp2k.org/ .

 Schuett, Ole; Messmer, Peter; Hutter, Juerg; VandeVondele, Joost. 
 Electronic Structure Calculations on Graphics Processing Units, John Wiley & Sons, Ltd, 173-190 (2016). 
 GPU-Accelerated Sparse Matrix-Matrix Multiplication for Linear Scaling Density Functional Theory.
 https://dx.doi.org/10.1002/9781118670712.ch8


 Borstnik, U; VandeVondele, J; Weber, V; Hutter, J. 
 PARALLEL COMPUTING, 40 (5-6), 47-58 (2014). 
 Sparse matrix multiplication: The distributed block-compressed sparse
 row library.
 https://dx.doi.org/10.1016/j.parco.2014.03.012


 Hutter, J; Iannuzzi, M; Schiffmann, F; VandeVondele, J. 
 WILEY INTERDISCIPLINARY REVIEWS-COMPUTATIONAL MOLECULAR SCIENCE, 4 (1), 15-25 (2014). 
 CP2K: atomistic simulations of condensed matter systems.
 https://dx.doi.org/10.1002/wcms.1159


 VandeVondele, J; Borstnik, U; Hutter, J. 
 JOURNAL OF CHEMICAL THEORY AND COMPUTATION, 8 (10), 3565-3573 (2012). 
 Linear Scaling Self-Consistent Field Calculations with Millions of Atoms
 in the Condensed Phase.
 https://dx.doi.org/10.1021/ct200897x


 VandeVondele, J; Hutter, J. 
 JOURNAL OF CHEMICAL PHYSICS, 127 (11), 114105 (2007). 
 Gaussian basis sets for accurate calculations on molecular systems in
 gas and condensed phases.
 https://dx.doi.org/10.1063/1.2770708


 Krack, M. 
 THEORETICAL CHEMISTRY ACCOUNTS, 114 (1-3), 145-152 (2005). 
 Pseudopotentials for H to Kr optimized for gradient-corrected
 exchange-correlation functionals.
 https://dx.doi.org/10.1007/s00214-005-0655-y


 VandeVondele, J; Krack, M; Mohamed, F; Parrinello, M; Chassaing, T;
 Hutter, J. COMPUTER PHYSICS COMMUNICATIONS, 167 (2), 103-128 (2005). 
 QUICKSTEP: Fast and accurate density functional calculations using a
 mixed Gaussian and plane waves approach.
 https://dx.doi.org/10.1016/j.cpc.2004.12.014


 Frigo, M; Johnson, SG. 
 PROCEEDINGS OF THE IEEE, 93 (2), 216-231 (2005). 
 The design and implementation of FFTW3.
 https://dx.doi.org/10.1109/JPROC.2004.840301


 Niklasson, AMN; Tymczak, CJ; Challacombe, M. 
 JOURNAL OF CHEMICAL PHYSICS, 118 (19), 8611-8620 (2003). 
 Trace resetting density matrix purification in O(N)
 self-consistent-field theory.
 https://dx.doi.org/10.1063/1.1559913


 Hartwigsen, C; Goedecker, S; Hutter, J. 
 PHYSICAL REVIEW B, 58 (7), 3641-3662 (1998). 
 Relativistic separable dual-space Gaussian pseudopotentials from H to Rn.
 https://dx.doi.org/10.1103/PhysRevB.58.3641


 Lippert, G; Hutter, J; Parrinello, M. 
 MOLECULAR PHYSICS, 92 (3), 477-487 (1997). 
 A hybrid Gaussian and plane wave density functional scheme.
 https://dx.doi.org/10.1080/002689797170220


 Perdew, JP; Burke, K; Ernzerhof, M. 
 PHYSICAL REVIEW LETTERS, 77 (18), 3865-3868 (1996). 
 Generalized gradient approximation made simple.
 https://dx.doi.org/10.1103/PhysRevLett.77.3865


 Goedecker, S; Teter, M; Hutter, J. 
 PHYSICAL REVIEW B, 54 (3), 1703-1710 (1996). 
 Separable dual-space Gaussian pseudopotentials.
 https://dx.doi.org/10.1103/PhysRevB.54.1703


 -------------------------------------------------------------------------------
 -                                                                             -
 -                                T I M I N G                                  -
 -                                                                             -
 -------------------------------------------------------------------------------
 SUBROUTINE                       CALLS  ASD         SELF TIME        TOTAL TIME
                                MAXIMUM       AVERAGE  MAXIMUM  AVERAGE  MAXIMUM
 CP2K                                 1  1.0    0.032    0.032   22.282   22.282
 qs_energies                          1  2.0    0.000    0.000   21.845   21.845
 ls_scf                               1  3.0    0.000    0.000   21.726   21.726
 ls_scf_main                          1  4.0    0.001    0.001   19.501   19.501
 ls_scf_dm_to_ks                      9  5.0    0.000    0.000   19.399   19.399
 qs_ks_update_qs_env                 10  6.1    0.000    0.000   15.343   15.343
 rebuild_ks_matrix                   10  7.1    0.000    0.000   15.343   15.343
 qs_ks_build_kohn_sham_matrix        10  8.1    0.002    0.002   15.343   15.343
 qs_vxc_create                       10  9.1    0.000    0.000    8.743    8.743
 xc_vxc_pw_create                    10 10.1    0.141    0.141    8.743    8.743
 xc_rho_set_and_dset_create          10 11.1    0.056    0.056    6.259    6.259
 qs_rho_update_rho                   10  6.1    0.000    0.000    6.257    6.257
 calculate_rho_elec                  10  7.1    5.005    5.005    6.257    6.257
 pw_transfer                        191 10.7    0.017    0.017    5.780    5.780
 fft_wrap_pw1pw2                    171 11.8    0.002    0.002    5.652    5.652
 sum_up_and_integrate                10  9.1    0.024    0.024    5.602    5.602
 integrate_v_rspace                  10 10.1    4.904    4.904    5.578    5.578
 fft_wrap_pw1pw2_200                111 12.9    0.466    0.466    5.402    5.402
 xc_functional_eval                  10 12.1    0.000    0.000    4.180    4.180
 pbe_lda_eval                        10 13.1    4.180    4.180    4.180    4.180
 fft3d_s                            172 13.7    3.058    3.058    3.069    3.069
 ls_scf_init_scf                      1  4.0    0.000    0.000    2.224    2.224
 ls_scf_initial_guess                 1  5.0    0.000    0.000    2.204    2.204
 ls_scf_qs_atomic_guess               1  6.0    0.000    0.000    2.204    2.204
 density_rs2pw                       10  8.1    0.001    0.001    1.231    1.231
 pw_scatter_s                        90 14.3    1.077    1.077    1.077    1.077
 pw_gather_s                         81 13.2    1.019    1.019    1.019    1.019
 potential_pw2rs                     10 11.1    0.005    0.005    0.672    0.672
 pw_derive                           60 11.6    0.622    0.622    0.622    0.622
 -------------------------------------------------------------------------------

 The number of warnings for this run is : 0
 
 -------------------------------------------------------------------------------
  **** **** ******  **  PROGRAM ENDED AT                 2019-02-14 00:28:20.790
 ***** ** ***  *** **   PROGRAM RAN ON                                      otto
 **    ****   ******    PROGRAM RAN BY                                       ole
 ***** **    ** ** **   PROGRAM PROCESS ID                                  5172
  **** **  *******  **  PROGRAM STOPPED IN /home/ole/git/pao_ml_equivar/2H2O_MD/
                                           frame_0525
