6
Properties=species:S:1:pos:R:3 i=0 time=0.0 E=-34.4504806384 pbc="F F F"
O      -2.89210201      -3.94312785       4.35000000 
H      -2.44914329      -4.51011689       3.71000000 
H      -2.47994647      -3.07859282       4.25600000 
O      -5.79767781      -3.72981531       3.63500000 
H      -6.35104168      -4.02138593       4.36500000 
H      -4.88507656      -3.83102770       3.94700000 
