 DBCSR| CPU Multiplication driver                                           XSMM
 DBCSR| Multrec recursion limit                                              512
 DBCSR| Multiplication stack size                                           1000
 DBCSR| Maximum elements for images                                    UNLIMITED
 DBCSR| Multiplicative factor virtual images                                   1
 DBCSR| Use multiplication densification                                       T
 DBCSR| Multiplication size stacks                                             3


  **** **** ******  **  PROGRAM STARTED AT               2019-02-14 11:10:07.667
 ***** ** ***  *** **   PROGRAM STARTED ON                                  otto
 **    ****   ******    PROGRAM STARTED BY                                   ole
 ***** **    ** ** **   PROGRAM PROCESS ID                                  7772
  **** **  *******  **  PROGRAM STARTED IN /home/ole/git/pao_ml_equivar/2H2O_MD/
                                           frame_1550

 CP2K| version string:                    CP2K version 7.0 (Development Version)
 CP2K| source code revision number:                                git:8bf305913
 CP2K| cp2kflags: libint fftw3 libxc xsmm libderiv_max_am1=5 libint_max_am=6    
 CP2K| is freely available from                            https://www.cp2k.org/
 CP2K| Program compiled at                           So Jan 13 00:02:37 CET 2019
 CP2K| Program compiled on                                                  otto
 CP2K| Program compiled for                                                local
 CP2K| Data directory path                               /home/ole/git/cp2k/data
 CP2K| Input file name                                            2H2O_pao44.inp

 GLOBAL| Force Environment number                                              1
 GLOBAL| Basis set file name                                        BASIS_MOLOPT
 GLOBAL| Potential file name                                      GTH_POTENTIALS
 GLOBAL| MM Potential file name                                     MM_POTENTIAL
 GLOBAL| Coordinate file name                                         coords.xyz
 GLOBAL| Method name                                                        CP2K
 GLOBAL| Project name                                                 2H2O_pao44
 GLOBAL| Preferred FFT library                                             FFTW3
 GLOBAL| Preferred diagonalization lib.                                       SL
 GLOBAL| Run type                                                         ENERGY
 GLOBAL| All-to-all communication in single precision                          F
 GLOBAL| FFTs using library dependent lengths                                  F
 GLOBAL| Global print level                                                  LOW
 GLOBAL| MPI I/O enabled                                                       T
 GLOBAL| Total number of message passing processes                             1
 GLOBAL| Number of threads for this process                                    1
 GLOBAL| This output is from process                                           0
 GLOBAL| CPU model name :  Intel(R) Core(TM) i5-3320M CPU @ 2.60GHz

 MEMORY| system memory details [Kb]
 MEMORY|                        rank 0           min           max       average
 MEMORY| MemTotal              7860772       7860772       7860772       7860772
 MEMORY| MemFree                621792        621792        621792        621792
 MEMORY| Buffers               1048044       1048044       1048044       1048044
 MEMORY| Cached                2080592       2080592       2080592       2080592
 MEMORY| Slab                   280240        280240        280240        280240
 MEMORY| SReclaimable           155756        155756        155756        155756
 MEMORY| MemLikelyFree         3906184       3906184       3906184       3906184


 GENERATE|  Preliminary Number of Bonds generated:                             0
 GENERATE|  Achieved consistency in connectivity generation.

 *******************************************************************************
 *******************************************************************************
 **                                                                           **
 **     #####                         ##              ##                      **
 **    ##   ##            ##          ##              ##                      **
 **   ##     ##                       ##            ######                    **
 **   ##     ##  ##   ##  ##   #####  ##  ##   ####   ##    #####    #####    **
 **   ##     ##  ##   ##  ##  ##      ## ##   ##      ##   ##   ##  ##   ##   **
 **   ##  ## ##  ##   ##  ##  ##      ####     ###    ##   ######   ######    **
 **    ##  ###   ##   ##  ##  ##      ## ##      ##   ##   ##       ##        **
 **     #######   #####   ##   #####  ##  ##  ####    ##    #####   ##        **
 **           ##                                                    ##        **
 **                                                                           **
 **                                                ... make the atoms dance   **
 **                                                                           **
 **            Copyright (C) by CP2K developers group (2000 - 2018)           **
 **                                                                           **
 *******************************************************************************


 TOTAL NUMBERS AND MAXIMUM NUMBERS

  Total number of            - Atomic kinds:                                   2
                             - Atoms:                                          6
                             - Shell sets:                                     6
                             - Shells:                                        22
                             - Primitive Cartesian functions:                 42
                             - Cartesian basis functions:                     48
                             - Spherical basis functions:                     46

  Maximum angular momentum of- Orbital basis functions:                        2
                             - Local part of the GTH pseudopotential:          2
                             - Non-local part of the GTH pseudopotential:      0

 ------------------------------ Linear scaling SCF -----------------------------
 eps_scf:                                       0.100E-07
 eps_filter:                                    0.100E-07
 mixing_fraction:                               0.450E+00
 max_scf:                                              25
 fixed chemical potential (mu)                          F
 has unit metric:                                       F
 Computing inv(S):                                      T
 Computing sqrt(S):                                     T
 Computing s preconditioner                             F
 sign sqrt order:                                       3
 Extrapolation order:                                   1
 Use single precision matrices                          F
 S preconditioner type                               NONE
 Polarized Atomic Orbitals (PAO)                        T
 Purification method                      Trace resetting 4th order
 Cluster type                                      ATOMIC
 Computing Chebyshev                                FALSE
 Using PAO                                              T
 -------------------------------------------------------------------------------

 
 PAO|                                  EPS_PAO                           0.5E-06
 PAO|                                  MIXING                            0.5E+00
 PAO|                                  MAX_PAO                              1000
 PAO|                                  MAX_CYCLES                           1000
 PAO|                                  PARAMETERIZATION                   DIRECT
 PAO|                                  PRECONDITION                            F
 PAO|                                  REGULARIZATION                    0.0E+00
 PAO|                                  EPS_PGF                           0.1E-09
 PAO|                                  PENALTY_DISTANCE                  0.1E+00
 PAO|                                  PENALTY_STRENGTH                  0.5E-02
 PAO|                                  LINPOT_PRECONDITION_DELTA         0.0E+00
 PAO|                                  LINPOT_INITGUESS_DELT             0.0E+00
 PAO|                                  LINPOT_REGULARIZATION_DELTA       0.0E+00
 PAO|                                  LINPOT_REGULARIZATION_STRENGTH    0.0E+00
 PAO|                                  OPTIMIZER                              CG
 PAO|                                  CG_INIT_STEPS                           2
 PAO|                                  CG_RESET_LIMIT                    0.1E+00
 PAO|                                  CHECK_UNITARY_TOL                -0.1E+01
 PAO|                                  CHECK_GRADIENT_TOL               -0.1E+01
 PAO|                                  NUM_GRADIENT_ORDER                      2
 PAO|                                  NUM_GRADIENT_EPS                  0.1E-07
 PAO|                                  PRINT%RESTART%WRITE_CYCLES            100
 PAO|                                  RESTART_FILE 
 PAO|                                  PREOPT_DM_FILE 2H2O_ref_LS_DM_SPIN_1_RESTART.dm
 PAO|                                  MACHINE_LEARNING%METHOD        GAUSSIAN_P
 PAO|                                  MACHINE_LEARNING%PRIOR               ZERO
 PAO|                                  MACHINE_LEARNING%DESCRIPTOR     POTENTIAL
 PAO|                                  MACHINE_LEARNING%TOLERANCE        0.1E-01
 PAO|                                  MACHINE_LEARNING%GP_NOISE_VAR     0.1E+00
 PAO|                                  MACHINE_LEARNING%GP_SCALE         0.5E-01
 

 Calculating atomic Fock matrix for atomic kind: O

 Electronic structure
    Total number of core electrons                                          2.00
    Total number of valence electrons                                       6.00
    Total number of electrons                                               8.00
    Multiplicity                                                   not specified
    S   [  2.00] 2.00
    P      4.00


 *******************************************************************************
                  Iteration          Convergence                     Energy [au]
 *******************************************************************************
                          1        0.708315                     -15.576645311500
                          2        0.608879                     -15.587933561584
                          3        0.102828E-01                 -15.656849565404
                          4        0.113889E-02                 -15.656866888140
                          5        0.434197E-03                 -15.656867072159
                          6        0.263771E-03                 -15.656867091904
                          7        0.478536E-06                 -15.656867103452

 Energy components [Hartree]           Total Energy ::          -15.656867103452
                                        Band Energy ::           -3.000198112285
                                     Kinetic Energy ::           11.759971203220
                                   Potential Energy ::          -27.416838306672
                                      Virial (-V/T) ::            2.331369510426
                                        Core Energy ::          -26.140716385623
                                          XC Energy ::           -3.154051012914
                                     Coulomb Energy ::           13.637900295084
                       Total Pseudopotential Energy ::          -37.935781716540
                       Local Pseudopotential Energy ::          -39.218907440693
                    Nonlocal Pseudopotential Energy ::            1.283125724153
                                        Confinement ::            0.350941276976

 Orbital energies  State     L     Occupation   Energy[a.u.]          Energy[eV]

                       1     0          2.000      -0.864471          -23.523463

                       1     1          4.000      -0.317814           -8.648154


 Total Electron Density at R=0:                                         0.000068

 Calculating atomic Fock matrix for atomic kind: H

 Electronic structure
    Total number of core electrons                                          0.00
    Total number of valence electrons                                       1.00
    Total number of electrons                                               1.00
    Multiplicity                                                   not specified
    S      1.00


 *******************************************************************************
                  Iteration          Convergence                     Energy [au]
 *******************************************************************************
                          1        0.437545E-02                  -0.424159432110
                          2        0.531356E-03                  -0.424178438213
                          3        0.259176E-06                  -0.424178722480

 Energy components [Hartree]           Total Energy ::           -0.424178722480
                                        Band Energy ::           -0.199015229016
                                     Kinetic Energy ::            0.464007633961
                                   Potential Energy ::           -0.888186356441
                                      Virial (-V/T) ::            1.914163240935
                                        Core Energy ::           -0.479160803564
                                          XC Energy ::           -0.244352904054
                                     Coulomb Energy ::            0.299334985138
                       Total Pseudopotential Energy ::           -0.962295316385
                       Local Pseudopotential Energy ::           -0.962295316385
                    Nonlocal Pseudopotential Energy ::            0.000000000000
                                        Confinement ::            0.191268788606

 Orbital energies  State     L     Occupation   Energy[a.u.]          Energy[eV]

                       1     0          1.000      -0.199015           -5.415480


 Total Electron Density at R=0:                                         0.242907
 PAO| Made initial guess for matrix_X with norm:   4.8989794855663558     

     Lanczos converged:  T threshold:   0.100E-02
     Est. extremal eigenvalues:    0.321E+01   0.116E+00
     Est. condition number :    0.277E+02
     NS sqrt iter    1 1.00000000   0.784E+00       0.001       47.624
     NS sqrt iter    2 1.00000000   0.418E+00       0.001       84.768
     NS sqrt iter    3 1.00000000   0.156E+00       0.001       84.725
     NS sqrt iter    4 1.00000000   0.166E-01       0.001       85.415
     NS sqrt iter    5 1.00000000   0.310E-04       0.001       67.641
     Final NS sqrt iter    5 1.00000000   0.167E-08

 PAO| Read restart DM 2H2O_ref_LS_DM_SPIN_1_RESTART.dm with checksum:    69.864275073363885     
 PAO| Quickstep energy from restart density:  -34.445535386092878     
 PAO| ======================= Iteration:         1 =============================

     Lanczos converged:  T threshold:   0.100E-02
     Est. extremal eigenvalues:    0.321E+01   0.116E+00
     Est. condition number :    0.277E+02
     NS sqrt iter    1 1.00000000   0.784E+00       0.001       64.512
     NS sqrt iter    2 1.00000000   0.418E+00       0.001      110.592
     NS sqrt iter    3 1.00000000   0.156E+00       0.001      110.592
     NS sqrt iter    4 1.00000000   0.166E-01       0.001      110.592
     NS sqrt iter    5 1.00000000   0.310E-04       0.001       84.992
     Final NS sqrt iter    5 1.00000000   0.167E-08

     Est. extremal eigenvalues     -0.89886     1.69555  converged:  T
     TRS4 it   1 1.00000000   0.850E+00       0.000       16.128   0.100E-07
     TRS4 it   2 1.00000000   0.650E+00       0.001       32.256   0.100E-07
     TRS4 it   3 1.00000000   0.476E+00       0.001       32.256   0.100E-07
     TRS4 it   4 1.00000000   0.296E+00       0.001       32.256   0.100E-07
     TRS4 it   5 1.00000000   0.142E+00       0.001       32.256   0.100E-07
     TRS4 it   6 1.00000000   0.391E-01       0.001       32.256   0.100E-07
     TRS4 it   7 1.00000000   0.388E-02       0.001       32.256   0.100E-07
     TRS4 it   8 1.00000000   0.492E-04       0.001       32.256   0.100E-07
     TRS4 it   9 1.00000000   0.916E-08       0.001       32.256   0.100E-07
     Final TRS4 iteration    9 1.00000000   0.916E-08
     Chemical potential (mu):      -0.06893
 
 PAO| energy:  -7.5546050263405018      penalty:   6.0397163055983722E-033
 PAO|CG| warming up with steepest descent
 PAO|CG| beta:    0.0000000000000000     
 PAO| norm of gradient:  0.78897875978436438     
 PAO|LS| adapt:  T F F
 PAO|LS| adapt: scan_steps:    0.0000000000000000        0.0000000000000000        0.0000000000000000     
 PAO|LS| adapt: energies:   -7.5546050263405018        0.0000000000000000        0.0000000000000000     
 PAO| ======================= Iteration:         2 =============================

     Lanczos converged:  T threshold:   0.100E-02
     Est. extremal eigenvalues:    0.315E+01   0.132E+00
     Est. condition number :    0.238E+02
     NS sqrt iter    1 1.00000000   0.773E+00       0.001       64.512
     NS sqrt iter    2 1.00000000   0.404E+00       0.001      110.592
     NS sqrt iter    3 1.00000000   0.139E+00       0.001      110.592
     NS sqrt iter    4 1.00000000   0.110E-01       0.001      110.592
     NS sqrt iter    5 1.00000000   0.829E-05       0.001       82.944
     Final NS sqrt iter    5 1.00000000   0.120E-09

     Est. extremal eigenvalues     -0.90237     1.63870  converged:  T
     TRS4 it   1 1.00000000   0.842E+00       0.000       16.128   0.100E-07
     TRS4 it   2 1.00000000   0.629E+00       0.001       32.256   0.100E-07
     TRS4 it   3 1.00000000   0.454E+00       0.001       32.256   0.100E-07
     TRS4 it   4 1.00000000   0.270E+00       0.001       32.256   0.100E-07
     TRS4 it   5 1.00000000   0.119E+00       0.001       32.256   0.100E-07
     TRS4 it   6 1.00000000   0.277E-01       0.001       32.256   0.100E-07
     TRS4 it   7 1.00000000   0.196E-02       0.001       32.256   0.100E-07
     TRS4 it   8 1.00000000   0.128E-04       0.001       32.256   0.100E-07
     TRS4 it   9 1.00000000   0.625E-09       0.001       32.256   0.100E-07
     Final TRS4 iteration    9 1.00000000   0.625E-09
     Chemical potential (mu):      -0.05734
 
 PAO| energy:  -7.6106490443896684      penalty:   2.3102259690365310E-008
 PAO|LS| adapt:  T T F
 PAO|LS| adapt: scan_steps:    0.0000000000000000       0.10000000000000001        0.0000000000000000     
 PAO|LS| adapt: energies:   -7.5546050263405018       -7.6106490443896684        0.0000000000000000     
 PAO| ======================= Iteration:         3 =============================

     Lanczos converged:  T threshold:   0.100E-02
     Est. extremal eigenvalues:    0.307E+01   0.148E+00
     Est. condition number :    0.207E+02
     NS sqrt iter    1 1.00000000   0.760E+00       0.001       64.512
     NS sqrt iter    2 1.00000000   0.389E+00       0.001      110.592
     NS sqrt iter    3 1.00000000   0.123E+00       0.001      110.592
     NS sqrt iter    4 1.00000000   0.728E-02       0.001      110.592
     NS sqrt iter    5 1.00000000   0.216E-05       0.001       82.688
     Final NS sqrt iter    5 1.00000000   0.168E-09

     Est. extremal eigenvalues     -0.90562     1.59839  converged:  T
     TRS4 it   1 1.00000000   0.837E+00       0.000       16.128   0.100E-07
     TRS4 it   2 1.00000000   0.612E+00       0.001       32.256   0.100E-07
     TRS4 it   3 1.00000000   0.433E+00       0.001       32.256   0.100E-07
     TRS4 it   4 1.00000000   0.246E+00       0.001       32.256   0.100E-07
     TRS4 it   5 1.00000000   0.982E-01       0.001       32.256   0.100E-07
     TRS4 it   6 1.00000000   0.189E-01       0.001       32.256   0.100E-07
     TRS4 it   7 1.00000000   0.914E-03       0.001       32.256   0.100E-07
     TRS4 it   8 1.00000000   0.280E-05       0.001       32.256   0.100E-07
     TRS4 it   9 1.00000000   0.305E-10       0.001       32.256   0.100E-07
     Final TRS4 iteration    9 1.00000000   0.305E-10
     Chemical potential (mu):      -0.04472
 
 PAO| energy:  -7.6536790315090704      penalty:   3.6963596598790765E-007
 PAO|LS| adapt:  T T F
 PAO|LS| adapt: scan_steps:    0.0000000000000000       0.20000000000000001        0.0000000000000000     
 PAO|LS| adapt: energies:   -7.5546050263405018       -7.6536790315090704        0.0000000000000000     
 PAO| ======================= Iteration:         4 =============================

     Lanczos converged:  T threshold:   0.100E-02
     Est. extremal eigenvalues:    0.291E+01   0.172E+00
     Est. condition number :    0.169E+02
     NS sqrt iter    1 1.00000000   0.731E+00       0.001       64.512
     NS sqrt iter    2 1.00000000   0.357E+00       0.001      110.592
     NS sqrt iter    3 1.00000000   0.956E-01       0.001      110.592
     NS sqrt iter    4 1.00000000   0.336E-02       0.001      110.592
     NS sqrt iter    5 1.00000000   0.210E-06       0.001       77.440
     Final NS sqrt iter    5 1.00000000   0.831E-09

     Est. extremal eigenvalues     -0.91060     1.55166  converged:  T
     TRS4 it   1 1.00000000   0.833E+00       0.000       16.128   0.100E-07
     TRS4 it   2 1.00000000   0.587E+00       0.001       32.256   0.100E-07
     TRS4 it   3 1.00000000   0.398E+00       0.001       32.256   0.100E-07
     TRS4 it   4 1.00000000   0.204E+00       0.001       32.256   0.100E-07
     TRS4 it   5 1.00000000   0.666E-01       0.001       32.256   0.100E-07
     TRS4 it   6 1.00000000   0.837E-02       0.001       32.256   0.100E-07
     TRS4 it   7 1.00000000   0.168E-03       0.001       32.256   0.100E-07
     TRS4 it   8 1.00000000   0.945E-07       0.001       32.256   0.100E-07
     TRS4 it   9 1.00000000   0.355E-13       0.001       32.256   0.100E-07
     Final TRS4 iteration    9 1.00000000   0.355E-13
     Chemical potential (mu):      -0.01723
 
 PAO| energy:  -7.6993498730902736      penalty:   5.9141739434801246E-006
 PAO|LS| Need extra step
 PAO|LS| adapt:  T T F
 PAO|LS| adapt: scan_steps:    0.0000000000000000       0.40000000000000002        0.0000000000000000     
 PAO|LS| adapt: energies:   -7.5546050263405018       -7.6993498730902736        0.0000000000000000     
 PAO| ======================= Iteration:         5 =============================

     Lanczos converged:  T threshold:   0.100E-02
     Est. extremal eigenvalues:    0.258E+01   0.197E+00
     Est. condition number :    0.131E+02
     NS sqrt iter    1 1.00000000   0.673E+00       0.001       64.512
     NS sqrt iter    2 1.00000000   0.297E+00       0.001      110.592
     NS sqrt iter    3 1.00000000   0.581E-01       0.001      110.592
     NS sqrt iter    4 1.00000000   0.896E-03       0.001      110.592
     NS sqrt iter    5 1.00000000   0.350E-08       0.001       36.864
     Final NS sqrt iter    5 1.00000000   0.212E-08

     Est. extremal eigenvalues     -0.91154     1.52007  converged:  T
     TRS4 it   1 1.00000000   0.839E+00       0.000       16.128   0.100E-07
     TRS4 it   2 1.00000000   0.559E+00       0.001       32.256   0.100E-07
     TRS4 it   3 1.00000000   0.348E+00       0.001       32.256   0.100E-07
     TRS4 it   4 1.00000000   0.149E+00       0.001       32.256   0.100E-07
     TRS4 it   5 1.00000000   0.330E-01       0.001       32.256   0.100E-07
     TRS4 it   6 1.00000000   0.189E-02       0.001       32.256   0.100E-07
     TRS4 it   7 1.00000000   0.769E-05       0.001       32.256   0.100E-07
     TRS4 it   8 1.00000000   0.182E-09       0.001       32.256   0.100E-07
     Final TRS4 iteration    8 1.00000000   0.182E-09
     Chemical potential (mu):       0.02825
 
 PAO| energy:  -7.6367341565588802      penalty:   9.4626770997615102E-005
 PAO|LS| Need extra step
 PAO|LS| adapt:  T T T
 PAO|LS| adapt: scan_steps:    0.0000000000000000       0.40000000000000002       0.80000000000000004     
 PAO|LS| adapt: energies:   -7.5546050263405018       -7.6993498730902736       -7.6367341565588802     
 PAO|LS| adapt: suggested step_size:   0.47921383788586414     
 PAO|LS| adapt: predicted energy  -7.7034159753445390     
 PAO| ======================= Iteration:         6 =============================

     Lanczos converged:  T threshold:   0.100E-02
     Est. extremal eigenvalues:    0.284E+01   0.178E+00
     Est. condition number :    0.160E+02
     NS sqrt iter    1 1.00000000   0.718E+00       0.001       43.323
     NS sqrt iter    2 1.00000000   0.345E+00       0.001       88.184
     NS sqrt iter    3 1.00000000   0.863E-01       0.001      110.592
     NS sqrt iter    4 1.00000000   0.253E-02       0.001      110.592
     NS sqrt iter    5 1.00000000   0.101E-06       0.001       71.296
     Final NS sqrt iter    5 1.00000000   0.489E-09

     Est. extremal eigenvalues     -0.91182     1.54112  converged:  T
     TRS4 it   1 1.00000000   0.834E+00       0.000       16.128   0.100E-07
     TRS4 it   2 1.00000000   0.579E+00       0.001       32.256   0.100E-07
     TRS4 it   3 1.00000000   0.386E+00       0.001       32.256   0.100E-07
     TRS4 it   4 1.00000000   0.190E+00       0.001       32.256   0.100E-07
     TRS4 it   5 1.00000000   0.572E-01       0.001       32.256   0.100E-07
     TRS4 it   6 1.00000000   0.604E-02       0.001       32.256   0.100E-07
     TRS4 it   7 1.00000000   0.839E-04       0.001       32.256   0.100E-07
     TRS4 it   8 1.00000000   0.229E-07       0.001       32.256   0.100E-07
     Final TRS4 iteration    8 1.00000000   0.229E-07
     Chemical potential (mu):      -0.00418
 
 PAO| energy:  -7.7026990935824173      penalty:   1.2183484391657853E-005
 PAO|CG| warming up with steepest descent
 PAO|CG| beta:    0.0000000000000000     
 PAO| norm of gradient:  0.41753000162714676     
 PAO| energy improvement: -0.14809406724191554     
 PAO| step      6                   -7.702699094  0.261E-01  0.479E+00     0.078
 PAO|LS| adapt:  T F F
 PAO|LS| adapt: scan_steps:    0.0000000000000000        0.0000000000000000        0.0000000000000000     
 PAO|LS| adapt: energies:   -7.7026990935824173        0.0000000000000000        0.0000000000000000     
 PAO| ======================= Iteration:         7 =============================

     Lanczos converged:  T threshold:   0.100E-02
     Est. extremal eigenvalues:    0.276E+01   0.194E+00
     Est. condition number :    0.142E+02
     NS sqrt iter    1 1.00000000   0.702E+00       0.001       64.512
     NS sqrt iter    2 1.00000000   0.324E+00       0.001      110.592
     NS sqrt iter    3 1.00000000   0.713E-01       0.001      110.592
     NS sqrt iter    4 1.00000000   0.145E-02       0.001      110.592
     NS sqrt iter    5 1.00000000   0.203E-07       0.001       51.200
     Final NS sqrt iter    5 1.00000000   0.245E-08

     Est. extremal eigenvalues     -0.91362     1.53407  converged:  T
     TRS4 it   1 1.00000000   0.834E+00       0.000       16.128   0.100E-07
     TRS4 it   2 1.00000000   0.579E+00       0.001       32.256   0.100E-07
     TRS4 it   3 1.00000000   0.386E+00       0.001       32.256   0.100E-07
     TRS4 it   4 1.00000000   0.191E+00       0.001       32.256   0.100E-07
     TRS4 it   5 1.00000000   0.578E-01       0.001       32.256   0.100E-07
     TRS4 it   6 1.00000000   0.609E-02       0.001       32.256   0.100E-07
     TRS4 it   7 1.00000000   0.832E-04       0.001       32.256   0.100E-07
     TRS4 it   8 1.00000000   0.220E-07       0.001       32.256   0.100E-07
     Final TRS4 iteration    8 1.00000000   0.220E-07
     Chemical potential (mu):      -0.00444
 
 PAO| energy:  -7.7005745482728578      penalty:   1.8388515633689180E-005
 PAO|LS| adapt:  T F T
 PAO|LS| adapt: scan_steps:    0.0000000000000000        0.0000000000000000       0.47921383788586414     
 PAO|LS| adapt: energies:   -7.7026990935824173        0.0000000000000000       -7.7005745482728578     
 PAO| ======================= Iteration:         8 =============================

     Lanczos converged:  T threshold:   0.100E-02
     Est. extremal eigenvalues:    0.280E+01   0.186E+00
     Est. condition number :    0.151E+02
     NS sqrt iter    1 1.00000000   0.710E+00       0.001       64.512
     NS sqrt iter    2 1.00000000   0.334E+00       0.001      110.592
     NS sqrt iter    3 1.00000000   0.787E-01       0.001      110.592
     NS sqrt iter    4 1.00000000   0.193E-02       0.001      110.592
     NS sqrt iter    5 1.00000000   0.465E-07       0.001       61.312
     Final NS sqrt iter    5 1.00000000   0.308E-08

     Est. extremal eigenvalues     -0.91355     1.53695  converged:  T
     TRS4 it   1 1.00000000   0.833E+00       0.000       16.128   0.100E-07
     TRS4 it   2 1.00000000   0.579E+00       0.001       32.256   0.100E-07
     TRS4 it   3 1.00000000   0.385E+00       0.001       32.256   0.100E-07
     TRS4 it   4 1.00000000   0.191E+00       0.001       32.256   0.100E-07
     TRS4 it   5 1.00000000   0.575E-01       0.001       32.256   0.100E-07
     TRS4 it   6 1.00000000   0.615E-02       0.001       32.256   0.100E-07
     TRS4 it   7 1.00000000   0.871E-04       0.001       32.256   0.100E-07
     TRS4 it   8 1.00000000   0.244E-07       0.001       32.256   0.100E-07
     Final TRS4 iteration    8 1.00000000   0.244E-07
     Chemical potential (mu):      -0.00489
 
 PAO| energy:  -7.7228208816151627      penalty:   1.3221850913665132E-005
 PAO|LS| adapt:  T T T
 PAO|LS| adapt: scan_steps:    0.0000000000000000       0.23960691894293207       0.47921383788586414     
 PAO|LS| adapt: energies:   -7.7026990935824173       -7.7228208816151627       -7.7005745482728578     
 PAO|LS| adapt: suggested step_size:   0.23359938616525752     
 PAO|LS| adapt: predicted energy  -7.7228341985048008     
 PAO| ======================= Iteration:         9 =============================

     Lanczos converged:  T threshold:   0.100E-02
     Est. extremal eigenvalues:    0.280E+01   0.186E+00
     Est. condition number :    0.151E+02
     NS sqrt iter    1 1.00000000   0.710E+00       0.001       64.512
     NS sqrt iter    2 1.00000000   0.335E+00       0.001      110.592
     NS sqrt iter    3 1.00000000   0.789E-01       0.001      110.592
     NS sqrt iter    4 1.00000000   0.194E-02       0.001      110.592
     NS sqrt iter    5 1.00000000   0.474E-07       0.001       61.568
     Final NS sqrt iter    5 1.00000000   0.315E-08

     Est. extremal eigenvalues     -0.91353     1.53703  converged:  T
     TRS4 it   1 1.00000000   0.833E+00       0.000       16.128   0.100E-07
     TRS4 it   2 1.00000000   0.579E+00       0.001       32.256   0.100E-07
     TRS4 it   3 1.00000000   0.385E+00       0.001       32.256   0.100E-07
     TRS4 it   4 1.00000000   0.191E+00       0.001       32.256   0.100E-07
     TRS4 it   5 1.00000000   0.575E-01       0.001       32.256   0.100E-07
     TRS4 it   6 1.00000000   0.615E-02       0.001       32.256   0.100E-07
     TRS4 it   7 1.00000000   0.871E-04       0.001       32.256   0.100E-07
     TRS4 it   8 1.00000000   0.245E-07       0.001       32.256   0.100E-07
     Final TRS4 iteration    8 1.00000000   0.245E-07
     Chemical potential (mu):      -0.00488
 
 PAO| energy:  -7.7228430194087725      penalty:   1.3158526943544902E-005
 PAO|CG| trace_G_new    4.0755317892353926E-002
 PAO|CG| trace_G_prev   0.17433130225876520     
 PAO|CG| trace_G_mix   -1.4543350196921183E-003
 PAO|CG| trace_D   0.17433130225876520     
 PAO|CG| trace_D_Gnew   1.4543350196921183E-003
 PAO|CG| beta:   0.24212320085461753     
 PAO| norm of gradient:  0.20187946377072119     
 PAO| energy improvement:  -2.0143925826355158E-002
 PAO| step      9                   -7.722843019  0.126E-01  0.234E+00     0.046
 PAO|LS| adapt:  T F F
 PAO|LS| adapt: scan_steps:    0.0000000000000000        0.0000000000000000        0.0000000000000000     
 PAO|LS| adapt: energies:   -7.7228430194087725        0.0000000000000000        0.0000000000000000     
 PAO| ======================= Iteration:        10 =============================

     Lanczos converged:  T threshold:   0.100E-02
     Est. extremal eigenvalues:    0.276E+01   0.191E+00
     Est. condition number :    0.145E+02
     NS sqrt iter    1 1.00000000   0.702E+00       0.001       64.512
     NS sqrt iter    2 1.00000000   0.326E+00       0.001      110.592
     NS sqrt iter    3 1.00000000   0.732E-01       0.001      110.592
     NS sqrt iter    4 1.00000000   0.157E-02       0.001       96.772
     NS sqrt iter    5 1.00000000   0.258E-07       0.001       53.376
     Final NS sqrt iter    5 1.00000000   0.321E-08

     Est. extremal eigenvalues     -0.91450     1.54129  converged:  T
     TRS4 it   1 1.00000000   0.835E+00       0.000       16.128   0.100E-07
     TRS4 it   2 1.00000000   0.579E+00       0.001       32.256   0.100E-07
     TRS4 it   3 1.00000000   0.385E+00       0.001       32.256   0.100E-07
     TRS4 it   4 1.00000000   0.189E+00       0.001       32.256   0.100E-07
     TRS4 it   5 1.00000000   0.565E-01       0.001       32.256   0.100E-07
     TRS4 it   6 1.00000000   0.589E-02       0.001       32.256   0.100E-07
     TRS4 it   7 1.00000000   0.786E-04       0.001       32.256   0.100E-07
     TRS4 it   8 1.00000000   0.196E-07       0.001       32.256   0.100E-07
     Final TRS4 iteration    8 1.00000000   0.196E-07
     Chemical potential (mu):      -0.00234
 
 PAO| energy:  -7.7283687767654987      penalty:   1.3829037100716582E-005
 PAO|LS| adapt:  T T F
 PAO|LS| adapt: scan_steps:    0.0000000000000000       0.23359938616525752        0.0000000000000000     
 PAO|LS| adapt: energies:   -7.7228430194087725       -7.7283687767654987        0.0000000000000000     
 PAO| ======================= Iteration:        11 =============================

     Lanczos converged:  T threshold:   0.100E-02
     Est. extremal eigenvalues:    0.272E+01   0.196E+00
     Est. condition number :    0.138E+02
     NS sqrt iter    1 1.00000000   0.694E+00       0.001       64.512
     NS sqrt iter    2 1.00000000   0.317E+00       0.001      110.592
     NS sqrt iter    3 1.00000000   0.678E-01       0.001      110.592
     NS sqrt iter    4 1.00000000   0.126E-02       0.001      110.592
     NS sqrt iter    5 1.00000000   0.129E-07       0.001       45.952
     Final NS sqrt iter    5 1.00000000   0.537E-08

     Est. extremal eigenvalues     -0.91413     1.54769  converged:  T
     TRS4 it   1 1.00000000   0.838E+00       0.000       16.128   0.100E-07
     TRS4 it   2 1.00000000   0.581E+00       0.001       32.256   0.100E-07
     TRS4 it   3 1.00000000   0.385E+00       0.001       32.256   0.100E-07
     TRS4 it   4 1.00000000   0.189E+00       0.001       32.256   0.100E-07
     TRS4 it   5 1.00000000   0.557E-01       0.001       32.256   0.100E-07
     TRS4 it   6 1.00000000   0.567E-02       0.001       32.256   0.100E-07
     TRS4 it   7 1.00000000   0.716E-04       0.001       32.256   0.100E-07
     TRS4 it   8 1.00000000   0.160E-07       0.001       32.256   0.100E-07
     Final TRS4 iteration    8 1.00000000   0.160E-07
     Chemical potential (mu):       0.00029
 
 PAO| energy:  -7.7263762426416811      penalty:   1.5299712871070392E-005
 PAO|LS| adapt:  T T T
 PAO|LS| adapt: scan_steps:    0.0000000000000000       0.23359938616525752       0.46719877233051504     
 PAO|LS| adapt: energies:   -7.7228430194087725       -7.7283687767654987       -7.7263762426416811     
 PAO|LS| adapt: suggested step_size:   0.28848943535583349     
 PAO|LS| adapt: predicted energy  -7.7285763316741827     
 PAO| ======================= Iteration:        12 =============================

     Lanczos converged:  T threshold:   0.100E-02
     Est. extremal eigenvalues:    0.275E+01   0.192E+00
     Est. condition number :    0.143E+02
     NS sqrt iter    1 1.00000000   0.700E+00       0.001       64.512
     NS sqrt iter    2 1.00000000   0.324E+00       0.001      110.592
     NS sqrt iter    3 1.00000000   0.719E-01       0.001      100.915
     NS sqrt iter    4 1.00000000   0.149E-02       0.001      110.592
     NS sqrt iter    5 1.00000000   0.223E-07       0.001       52.864
     Final NS sqrt iter    5 1.00000000   0.862E-09

     Est. extremal eigenvalues     -0.91454     1.54262  converged:  T
     TRS4 it   1 1.00000000   0.836E+00       0.000       16.128   0.100E-07
     TRS4 it   2 1.00000000   0.580E+00       0.001       32.256   0.100E-07
     TRS4 it   3 1.00000000   0.385E+00       0.001       32.256   0.100E-07
     TRS4 it   4 1.00000000   0.189E+00       0.001       32.256   0.100E-07
     TRS4 it   5 1.00000000   0.563E-01       0.001       32.256   0.100E-07
     TRS4 it   6 1.00000000   0.584E-02       0.001       32.256   0.100E-07
     TRS4 it   7 1.00000000   0.768E-04       0.001       32.256   0.100E-07
     TRS4 it   8 1.00000000   0.186E-07       0.001       32.256   0.100E-07
     Final TRS4 iteration    8 1.00000000   0.186E-07
     Chemical potential (mu):      -0.00172
 
 PAO| energy:  -7.7285589457577153      penalty:   1.4093744041774893E-005
 PAO|CG| trace_G_new    1.3962577124786414E-002
 PAO|CG| trace_G_prev    4.0755317892353926E-002
 PAO|CG| trace_G_mix   -6.3627094309712143E-004
 PAO|CG| trace_D    5.0270997662215315E-002
 PAO|CG| trace_D_Gnew   2.8075084838508741E-004
 PAO|CG| beta:   0.35820719412477980     
 PAO| norm of gradient:  0.11816334932958872     
 PAO| energy improvement:  -5.7159263489428014E-003
 PAO| step     12                   -7.728558946  0.739E-02  0.288E+00     0.047
 PAO|LS| adapt:  T F F
 PAO|LS| adapt: scan_steps:    0.0000000000000000        0.0000000000000000        0.0000000000000000     
 PAO|LS| adapt: energies:   -7.7285589457577153        0.0000000000000000        0.0000000000000000     
 PAO| ======================= Iteration:        13 =============================

     Lanczos converged:  T threshold:   0.100E-02
     Est. extremal eigenvalues:    0.272E+01   0.196E+00
     Est. condition number :    0.138E+02
     NS sqrt iter    1 1.00000000   0.693E+00       0.001       64.512
     NS sqrt iter    2 1.00000000   0.316E+00       0.001      110.592
     NS sqrt iter    3 1.00000000   0.675E-01       0.001      110.592
     NS sqrt iter    4 1.00000000   0.125E-02       0.001      110.592
     NS sqrt iter    5 1.00000000   0.128E-07       0.001       45.952
     Final NS sqrt iter    5 1.00000000   0.543E-08

     Est. extremal eigenvalues     -0.91517     1.54408  converged:  T
     TRS4 it   1 1.00000000   0.838E+00       0.000       16.128   0.100E-07
     TRS4 it   2 1.00000000   0.579E+00       0.001       32.256   0.100E-07
     TRS4 it   3 1.00000000   0.382E+00       0.001       32.256   0.100E-07
     TRS4 it   4 1.00000000   0.185E+00       0.001       32.256   0.100E-07
     TRS4 it   5 1.00000000   0.536E-01       0.001       32.256   0.100E-07
     TRS4 it   6 1.00000000   0.527E-02       0.001       32.256   0.100E-07
     TRS4 it   7 1.00000000   0.617E-04       0.001       32.256   0.100E-07
     TRS4 it   8 1.00000000   0.118E-07       0.001       32.256   0.100E-07
     Final TRS4 iteration    8 1.00000000   0.118E-07
     Chemical potential (mu):       0.00220
 
 PAO| energy:  -7.7309897771043126      penalty:   1.4560354599665138E-005
 PAO|LS| adapt:  T T F
 PAO|LS| adapt: scan_steps:    0.0000000000000000       0.28848943535583349        0.0000000000000000     
 PAO|LS| adapt: energies:   -7.7285589457577153       -7.7309897771043126        0.0000000000000000     
 PAO| ======================= Iteration:        14 =============================

     Lanczos converged:  T threshold:   0.100E-02
     Est. extremal eigenvalues:    0.268E+01   0.200E+00
     Est. condition number :    0.134E+02
     NS sqrt iter    1 1.00000000   0.685E+00       0.001       64.512
     NS sqrt iter    2 1.00000000   0.309E+00       0.001      110.592
     NS sqrt iter    3 1.00000000   0.634E-01       0.001      110.592
     NS sqrt iter    4 1.00000000   0.105E-02       0.001      110.592
     NS sqrt iter    5 1.00000000   0.589E-08       0.001       38.272
     Final NS sqrt iter    5 1.00000000   0.395E-09

     Est. extremal eigenvalues     -0.91511     1.54577  converged:  T
     TRS4 it   1 1.00000000   0.840E+00       0.000       16.128   0.100E-07
     TRS4 it   2 1.00000000   0.578E+00       0.001       32.256   0.100E-07
     TRS4 it   3 1.00000000   0.379E+00       0.001       32.256   0.100E-07
     TRS4 it   4 1.00000000   0.181E+00       0.001       32.256   0.100E-07
     TRS4 it   5 1.00000000   0.512E-01       0.001       32.256   0.100E-07
     TRS4 it   6 1.00000000   0.476E-02       0.001       32.256   0.100E-07
     TRS4 it   7 1.00000000   0.499E-04       0.001       32.256   0.100E-07
     TRS4 it   8 1.00000000   0.763E-08       0.001       32.256   0.100E-07
     Final TRS4 iteration    8 1.00000000   0.763E-08
     Chemical potential (mu):       0.00597
 
 PAO| energy:  -7.7303442853754145      penalty:   1.5600996907875433E-005
 PAO|LS| adapt:  T T T
 PAO|LS| adapt: scan_steps:    0.0000000000000000       0.28848943535583349       0.57697887071166698     
 PAO|LS| adapt: energies:   -7.7285589457577153       -7.7309897771043126       -7.7303442853754145     
 PAO|LS| adapt: suggested step_size:   0.37220164723811749     
 PAO|LS| adapt: predicted energy  -7.7311192920102689     
 PAO| ======================= Iteration:        15 =============================

     Lanczos converged:  T threshold:   0.100E-02
     Est. extremal eigenvalues:    0.270E+01   0.197E+00
     Est. condition number :    0.137E+02
     NS sqrt iter    1 1.00000000   0.690E+00       0.001       64.512
     NS sqrt iter    2 1.00000000   0.314E+00       0.001      110.592
     NS sqrt iter    3 1.00000000   0.663E-01       0.001      110.592
     NS sqrt iter    4 1.00000000   0.119E-02       0.001      110.592
     NS sqrt iter    5 1.00000000   0.105E-07       0.001       42.752
     Final NS sqrt iter    5 1.00000000   0.642E-08

     Est. extremal eigenvalues     -0.91522     1.54455  converged:  T
     TRS4 it   1 1.00000000   0.838E+00       0.000       16.128   0.100E-07
     TRS4 it   2 1.00000000   0.578E+00       0.001       32.256   0.100E-07
     TRS4 it   3 1.00000000   0.381E+00       0.001       32.256   0.100E-07
     TRS4 it   4 1.00000000   0.184E+00       0.001       32.256   0.100E-07
     TRS4 it   5 1.00000000   0.529E-01       0.001       32.256   0.100E-07
     TRS4 it   6 1.00000000   0.511E-02       0.001       32.256   0.100E-07
     TRS4 it   7 1.00000000   0.579E-04       0.001       32.256   0.100E-07
     TRS4 it   8 1.00000000   0.104E-07       0.001       32.256   0.100E-07
     Final TRS4 iteration    8 1.00000000   0.104E-07
     Chemical potential (mu):       0.00331
 
 PAO| energy:  -7.7311152739443036      penalty:   1.4798463195234929E-005
 PAO|CG| trace_G_new    3.0136225461382393E-003
 PAO|CG| trace_G_prev    1.3962577124786414E-002
 PAO|CG| trace_G_mix    1.0369636352681887E-004
 PAO|CG| trace_D    2.0211835232413766E-002
 PAO|CG| trace_D_Gnew   3.9269762526990971E-005
 PAO|CG| beta:   0.20840896036632878     
 PAO| norm of gradient:   5.4896471162892056E-002
 PAO| energy improvement:  -2.5563281865883525E-003
 PAO| step     15                   -7.731115274  0.343E-02  0.372E+00     0.048
 PAO|LS| adapt:  T F F
 PAO|LS| adapt: scan_steps:    0.0000000000000000        0.0000000000000000        0.0000000000000000     
 PAO|LS| adapt: energies:   -7.7311152739443036        0.0000000000000000        0.0000000000000000     
 PAO| ======================= Iteration:        16 =============================

     Lanczos converged:  T threshold:   0.100E-02
     Est. extremal eigenvalues:    0.269E+01   0.198E+00
     Est. condition number :    0.136E+02
     NS sqrt iter    1 1.00000000   0.688E+00       0.001       64.512
     NS sqrt iter    2 1.00000000   0.313E+00       0.001      110.592
     NS sqrt iter    3 1.00000000   0.657E-01       0.001      110.592
     NS sqrt iter    4 1.00000000   0.115E-02       0.001      110.592
     NS sqrt iter    5 1.00000000   0.897E-08       0.001       41.344
     Final NS sqrt iter    5 1.00000000   0.621E-08

     Est. extremal eigenvalues     -0.91525     1.54484  converged:  T
     TRS4 it   1 1.00000000   0.839E+00       0.000       16.128   0.100E-07
     TRS4 it   2 1.00000000   0.578E+00       0.001       32.256   0.100E-07
     TRS4 it   3 1.00000000   0.380E+00       0.001       32.256   0.100E-07
     TRS4 it   4 1.00000000   0.182E+00       0.001       32.256   0.100E-07
     TRS4 it   5 1.00000000   0.519E-01       0.001       32.256   0.100E-07
     TRS4 it   6 1.00000000   0.493E-02       0.001       32.256   0.100E-07
     TRS4 it   7 1.00000000   0.543E-04       0.001       32.256   0.100E-07
     TRS4 it   8 1.00000000   0.924E-08       0.001       32.256   0.100E-07
     Final TRS4 iteration    8 1.00000000   0.924E-08
     Chemical potential (mu):       0.00421
 
 PAO| energy:  -7.7312468016367877      penalty:   1.4662580464930836E-005
 PAO|LS| adapt:  T T F
 PAO|LS| adapt: scan_steps:    0.0000000000000000       0.37220164723811749        0.0000000000000000     
 PAO|LS| adapt: energies:   -7.7311152739443036       -7.7312468016367877        0.0000000000000000     
 PAO| ======================= Iteration:        17 =============================

     Lanczos converged:  T threshold:   0.100E-02
     Est. extremal eigenvalues:    0.268E+01   0.199E+00
     Est. condition number :    0.135E+02
     NS sqrt iter    1 1.00000000   0.686E+00       0.001       64.512
     NS sqrt iter    2 1.00000000   0.311E+00       0.001      110.592
     NS sqrt iter    3 1.00000000   0.650E-01       0.001      110.592
     NS sqrt iter    4 1.00000000   0.111E-02       0.001      110.592
     NS sqrt iter    5 1.00000000   0.804E-08       0.001       41.344
     Final NS sqrt iter    5 1.00000000   0.515E-08

     Est. extremal eigenvalues     -0.91514     1.54524  converged:  T
     TRS4 it   1 1.00000000   0.839E+00       0.000       16.128   0.100E-07
     TRS4 it   2 1.00000000   0.577E+00       0.001       32.256   0.100E-07
     TRS4 it   3 1.00000000   0.378E+00       0.001       32.256   0.100E-07
     TRS4 it   4 1.00000000   0.181E+00       0.001       32.256   0.100E-07
     TRS4 it   5 1.00000000   0.509E-01       0.001       32.256   0.100E-07
     TRS4 it   6 1.00000000   0.476E-02       0.001       32.256   0.100E-07
     TRS4 it   7 1.00000000   0.509E-04       0.001       32.256   0.100E-07
     TRS4 it   8 1.00000000   0.823E-08       0.001       32.256   0.100E-07
     Final TRS4 iteration    8 1.00000000   0.823E-08
     Chemical potential (mu):       0.00508
 
 PAO| energy:  -7.7293964029785851      penalty:   1.4670210566693663E-005
 PAO|LS| adapt:  T T T
 PAO|LS| adapt: scan_steps:    0.0000000000000000       0.37220164723811749       0.74440329447623499     
 PAO|LS| adapt: energies:   -7.7311152739443036       -7.7312468016367877       -7.7293964029785851     
 PAO|LS| adapt: suggested step_size:   0.21080145075539328     
 PAO|LS| adapt: predicted energy  -7.7314331429074779     
 PAO| ======================= Iteration:        18 =============================

     Lanczos converged:  T threshold:   0.100E-02
     Est. extremal eigenvalues:    0.270E+01   0.198E+00
     Est. condition number :    0.136E+02
     NS sqrt iter    1 1.00000000   0.689E+00       0.001       64.512
     NS sqrt iter    2 1.00000000   0.313E+00       0.001      110.592
     NS sqrt iter    3 1.00000000   0.659E-01       0.001      110.592
     NS sqrt iter    4 1.00000000   0.116E-02       0.001      110.592
     NS sqrt iter    5 1.00000000   0.941E-08       0.001       41.472
     Final NS sqrt iter    5 1.00000000   0.656E-08

     Est. extremal eigenvalues     -0.91525     1.54471  converged:  T
     TRS4 it   1 1.00000000   0.839E+00       0.000       16.128   0.100E-07
     TRS4 it   2 1.00000000   0.578E+00       0.001       32.256   0.100E-07
     TRS4 it   3 1.00000000   0.380E+00       0.001       32.256   0.100E-07
     TRS4 it   4 1.00000000   0.183E+00       0.001       32.256   0.100E-07
     TRS4 it   5 1.00000000   0.523E-01       0.001       32.256   0.100E-07
     TRS4 it   6 1.00000000   0.501E-02       0.001       32.256   0.100E-07
     TRS4 it   7 1.00000000   0.558E-04       0.001       32.256   0.100E-07
     TRS4 it   8 1.00000000   0.973E-08       0.001       32.256   0.100E-07
     Final TRS4 iteration    8 1.00000000   0.973E-08
     Chemical potential (mu):       0.00382
 
 PAO| energy:  -7.7314325046390708      penalty:   1.4704308669015381E-005
 PAO|CG| trace_G_new    8.1824696173759843E-004
 PAO|CG| trace_G_prev    3.0136225461382393E-003
 PAO|CG| trace_G_mix    1.6293047308278932E-006
 PAO|CG| trace_D    3.8751410145189719E-003
 PAO|CG| trace_D_Gnew  -2.2675221834230959E-006
 PAO|CG| beta:   0.27097542724891438     
 PAO| norm of gradient:   2.8605016373664225E-002
 PAO| energy improvement:  -3.1723069476718990E-004
 PAO| step     18                   -7.731432505  0.179E-02  0.211E+00     0.048
 PAO|LS| adapt:  T F F
 PAO|LS| adapt: scan_steps:    0.0000000000000000        0.0000000000000000        0.0000000000000000     
 PAO|LS| adapt: energies:   -7.7314325046390708        0.0000000000000000        0.0000000000000000     
 PAO| ======================= Iteration:        19 =============================

     Lanczos converged:  T threshold:   0.100E-02
     Est. extremal eigenvalues:    0.270E+01   0.198E+00
     Est. condition number :    0.136E+02
     NS sqrt iter    1 1.00000000   0.689E+00       0.001       64.512
     NS sqrt iter    2 1.00000000   0.313E+00       0.001      110.592
     NS sqrt iter    3 1.00000000   0.662E-01       0.001      110.592
     NS sqrt iter    4 1.00000000   0.117E-02       0.001      110.592
     NS sqrt iter    5 1.00000000   0.950E-08       0.001       41.472
     Final NS sqrt iter    5 1.00000000   0.657E-08

     Est. extremal eigenvalues     -0.91525     1.54525  converged:  T
     TRS4 it   1 1.00000000   0.839E+00       0.000       16.128   0.100E-07
     TRS4 it   2 1.00000000   0.578E+00       0.001       32.256   0.100E-07
     TRS4 it   3 1.00000000   0.380E+00       0.001       32.256   0.100E-07
     TRS4 it   4 1.00000000   0.183E+00       0.001       32.256   0.100E-07
     TRS4 it   5 1.00000000   0.523E-01       0.001       32.256   0.100E-07
     TRS4 it   6 1.00000000   0.501E-02       0.001       32.256   0.100E-07
     TRS4 it   7 1.00000000   0.562E-04       0.001       32.256   0.100E-07
     TRS4 it   8 1.00000000   0.996E-08       0.001       32.256   0.100E-07
     Final TRS4 iteration    8 1.00000000   0.996E-08
     Chemical potential (mu):       0.00367
 
 PAO| energy:  -7.7315645596383815      penalty:   1.4438318338012722E-005
 PAO|LS| adapt:  T T F
 PAO|LS| adapt: scan_steps:    0.0000000000000000       0.21080145075539328        0.0000000000000000     
 PAO|LS| adapt: energies:   -7.7314325046390708       -7.7315645596383815        0.0000000000000000     
 PAO| ======================= Iteration:        20 =============================

     Lanczos converged:  T threshold:   0.100E-02
     Est. extremal eigenvalues:    0.270E+01   0.198E+00
     Est. condition number :    0.137E+02
     NS sqrt iter    1 1.00000000   0.689E+00       0.001       64.512
     NS sqrt iter    2 1.00000000   0.314E+00       0.001      110.592
     NS sqrt iter    3 1.00000000   0.664E-01       0.001      110.592
     NS sqrt iter    4 1.00000000   0.118E-02       0.001      110.592
     NS sqrt iter    5 1.00000000   0.960E-08       0.001       41.472
     Final NS sqrt iter    5 1.00000000   0.658E-08

     Est. extremal eigenvalues     -0.91525     1.54581  converged:  T
     TRS4 it   1 1.00000000   0.839E+00       0.000       16.128   0.100E-07
     TRS4 it   2 1.00000000   0.578E+00       0.001       32.256   0.100E-07
     TRS4 it   3 1.00000000   0.380E+00       0.001       32.256   0.100E-07
     TRS4 it   4 1.00000000   0.183E+00       0.001       32.256   0.100E-07
     TRS4 it   5 1.00000000   0.523E-01       0.001       32.256   0.100E-07
     TRS4 it   6 1.00000000   0.502E-02       0.001       32.256   0.100E-07
     TRS4 it   7 1.00000000   0.567E-04       0.001       32.256   0.100E-07
     TRS4 it   8 1.00000000   0.102E-07       0.001       32.256   0.100E-07
     Final TRS4 iteration    8 1.00000000   0.102E-07
     Chemical potential (mu):       0.00350
 
 PAO| energy:  -7.7316149853346507      penalty:   1.4184768763992164E-005
 PAO|LS| adapt:  T T F
 PAO|LS| adapt: scan_steps:    0.0000000000000000       0.42160290151078655        0.0000000000000000     
 PAO|LS| adapt: energies:   -7.7314325046390708       -7.7316149853346507        0.0000000000000000     
 PAO| ======================= Iteration:        21 =============================

     Lanczos converged:  T threshold:   0.100E-02
     Est. extremal eigenvalues:    0.270E+01   0.197E+00
     Est. condition number :    0.137E+02
     NS sqrt iter    1 1.00000000   0.688E+00       0.001       64.512
     NS sqrt iter    2 1.00000000   0.314E+00       0.001      110.592
     NS sqrt iter    3 1.00000000   0.668E-01       0.001      110.592
     NS sqrt iter    4 1.00000000   0.120E-02       0.001      110.592
     NS sqrt iter    5 1.00000000   0.984E-08       0.001       41.472
     Final NS sqrt iter    5 1.00000000   0.661E-08

     Est. extremal eigenvalues     -0.91525     1.54693  converged:  T
     TRS4 it   1 1.00000000   0.839E+00       0.000       16.128   0.100E-07
     TRS4 it   2 1.00000000   0.578E+00       0.001       32.256   0.100E-07
     TRS4 it   3 1.00000000   0.380E+00       0.001       32.256   0.100E-07
     TRS4 it   4 1.00000000   0.183E+00       0.001       32.256   0.100E-07
     TRS4 it   5 1.00000000   0.522E-01       0.001       32.256   0.100E-07
     TRS4 it   6 1.00000000   0.503E-02       0.001       32.256   0.100E-07
     TRS4 it   7 1.00000000   0.576E-04       0.001       32.256   0.100E-07
     TRS4 it   8 1.00000000   0.107E-07       0.001       32.256   0.100E-07
     Final TRS4 iteration    8 1.00000000   0.107E-07
     Chemical potential (mu):       0.00316
 
 PAO| energy:  -7.7314678823071086      penalty:   1.3714601323665374E-005
 PAO|LS| Need extra step
 PAO|LS| adapt:  T T T
 PAO|LS| adapt: scan_steps:    0.0000000000000000       0.42160290151078655       0.84320580302157311     
 PAO|LS| adapt: energies:   -7.7314325046390708       -7.7316149853346507       -7.7314678823071086     
 PAO|LS| adapt: suggested step_size:   0.44423042594085582     
 PAO|LS| adapt: predicted energy  -7.7316154600165410     
 PAO| ======================= Iteration:        22 =============================

     Lanczos converged:  T threshold:   0.100E-02
     Est. extremal eigenvalues:    0.270E+01   0.198E+00
     Est. condition number :    0.137E+02
     NS sqrt iter    1 1.00000000   0.689E+00       0.001       64.512
     NS sqrt iter    2 1.00000000   0.314E+00       0.001      110.592
     NS sqrt iter    3 1.00000000   0.664E-01       0.001      110.592
     NS sqrt iter    4 1.00000000   0.118E-02       0.001      110.592
     NS sqrt iter    5 1.00000000   0.961E-08       0.001       41.472
     Final NS sqrt iter    5 1.00000000   0.658E-08

     Est. extremal eigenvalues     -0.91525     1.54587  converged:  T
     TRS4 it   1 1.00000000   0.839E+00       0.000       16.128   0.100E-07
     TRS4 it   2 1.00000000   0.578E+00       0.001       32.256   0.100E-07
     TRS4 it   3 1.00000000   0.380E+00       0.001       32.256   0.100E-07
     TRS4 it   4 1.00000000   0.183E+00       0.001       32.256   0.100E-07
     TRS4 it   5 1.00000000   0.523E-01       0.001       32.256   0.100E-07
     TRS4 it   6 1.00000000   0.502E-02       0.001       32.256   0.100E-07
     TRS4 it   7 1.00000000   0.567E-04       0.001       32.256   0.100E-07
     TRS4 it   8 1.00000000   0.102E-07       0.001       32.256   0.100E-07
     Final TRS4 iteration    8 1.00000000   0.102E-07
     Chemical potential (mu):       0.00348
 
 PAO| energy:  -7.7316155147299526      penalty:   1.4158286123705572E-005
 PAO|CG| trace_G_new    2.1959249788078736E-004
 PAO|CG| trace_G_prev    8.1824696173759843E-004
 PAO|CG| trace_G_mix    4.4213188688808835E-006
 PAO|CG| trace_D    1.1040184701111139E-003
 PAO|CG| trace_D_Gnew  -2.4042218722334202E-006
 PAO|CG| beta:   0.26296605923837113     
 PAO| norm of gradient:   1.4818653713505400E-002
 PAO| energy improvement:  -1.8301009088173004E-004
 PAO| step     22                   -7.731615515  0.926E-03  0.444E+00     0.063
 PAO|LS| adapt:  T F F
 PAO|LS| adapt: scan_steps:    0.0000000000000000        0.0000000000000000        0.0000000000000000     
 PAO|LS| adapt: energies:   -7.7316155147299526        0.0000000000000000        0.0000000000000000     
 PAO| ======================= Iteration:        23 =============================

     Lanczos converged:  T threshold:   0.100E-02
     Est. extremal eigenvalues:    0.270E+01   0.198E+00
     Est. condition number :    0.136E+02
     NS sqrt iter    1 1.00000000   0.689E+00       0.001       64.512
     NS sqrt iter    2 1.00000000   0.314E+00       0.001      109.234
     NS sqrt iter    3 1.00000000   0.664E-01       0.001      110.592
     NS sqrt iter    4 1.00000000   0.118E-02       0.001      110.592
     NS sqrt iter    5 1.00000000   0.950E-08       0.001       29.529
     Final NS sqrt iter    5 1.00000000   0.647E-08

     Est. extremal eigenvalues     -0.91525     1.54587  converged:  T
     TRS4 it   1 1.00000000   0.839E+00       0.000       16.128   0.100E-07
     TRS4 it   2 1.00000000   0.578E+00       0.001       32.256   0.100E-07
     TRS4 it   3 1.00000000   0.381E+00       0.001       32.256   0.100E-07
     TRS4 it   4 1.00000000   0.183E+00       0.001       32.256   0.100E-07
     TRS4 it   5 1.00000000   0.524E-01       0.001       32.256   0.100E-07
     TRS4 it   6 1.00000000   0.506E-02       0.001       32.256   0.100E-07
     TRS4 it   7 1.00000000   0.577E-04       0.001       32.256   0.100E-07
     TRS4 it   8 1.00000000   0.106E-07       0.001       32.256   0.100E-07
     Final TRS4 iteration    8 1.00000000   0.106E-07
     Chemical potential (mu):       0.00319
 
 PAO| energy:  -7.7316540147500978      penalty:   1.3521589436808541E-005
 PAO|LS| adapt:  T T F
 PAO|LS| adapt: scan_steps:    0.0000000000000000       0.44423042594085582        0.0000000000000000     
 PAO|LS| adapt: energies:   -7.7316155147299526       -7.7316540147500978        0.0000000000000000     
 PAO| ======================= Iteration:        24 =============================

     Lanczos converged:  T threshold:   0.100E-02
     Est. extremal eigenvalues:    0.270E+01   0.198E+00
     Est. condition number :    0.136E+02
     NS sqrt iter    1 1.00000000   0.688E+00       0.001       64.512
     NS sqrt iter    2 1.00000000   0.314E+00       0.001      110.592
     NS sqrt iter    3 1.00000000   0.664E-01       0.001      110.592
     NS sqrt iter    4 1.00000000   0.118E-02       0.001      110.592
     NS sqrt iter    5 1.00000000   0.940E-08       0.001       41.472
     Final NS sqrt iter    5 1.00000000   0.636E-08

     Est. extremal eigenvalues     -0.91524     1.54588  converged:  T
     TRS4 it   1 1.00000000   0.839E+00       0.000       16.128   0.100E-07
     TRS4 it   2 1.00000000   0.578E+00       0.001       32.256   0.100E-07
     TRS4 it   3 1.00000000   0.381E+00       0.001       32.256   0.100E-07
     TRS4 it   4 1.00000000   0.183E+00       0.001       32.256   0.100E-07
     TRS4 it   5 1.00000000   0.526E-01       0.001       32.256   0.100E-07
     TRS4 it   6 1.00000000   0.509E-02       0.001       32.256   0.100E-07
     TRS4 it   7 1.00000000   0.587E-04       0.001       32.256   0.100E-07
     TRS4 it   8 1.00000000   0.110E-07       0.001       32.256   0.100E-07
     Final TRS4 iteration    8 1.00000000   0.110E-07
     Chemical potential (mu):       0.00290
 
 PAO| energy:  -7.7315732510619117      penalty:   1.2909784644789407E-005
 PAO|LS| adapt:  T T T
 PAO|LS| adapt: scan_steps:    0.0000000000000000       0.44423042594085582       0.88846085188171164     
 PAO|LS| adapt: energies:   -7.7316155147299526       -7.7316540147500978       -7.7315732510619117     
 PAO|LS| adapt: suggested step_size:   0.36551910831422363     
 PAO|LS| adapt: predicted energy  -7.7316558868804179     
 PAO| ======================= Iteration:        25 =============================

     Lanczos converged:  T threshold:   0.100E-02
     Est. extremal eigenvalues:    0.270E+01   0.198E+00
     Est. condition number :    0.136E+02
     NS sqrt iter    1 1.00000000   0.689E+00       0.001       64.512
     NS sqrt iter    2 1.00000000   0.314E+00       0.001      110.592
     NS sqrt iter    3 1.00000000   0.664E-01       0.001      110.592
     NS sqrt iter    4 1.00000000   0.118E-02       0.001      110.592
     NS sqrt iter    5 1.00000000   0.952E-08       0.001       41.472
     Final NS sqrt iter    5 1.00000000   0.649E-08

     Est. extremal eigenvalues     -0.91525     1.54587  converged:  T
     TRS4 it   1 1.00000000   0.839E+00       0.000       16.128   0.100E-07
     TRS4 it   2 1.00000000   0.578E+00       0.001       32.256   0.100E-07
     TRS4 it   3 1.00000000   0.381E+00       0.001       32.256   0.100E-07
     TRS4 it   4 1.00000000   0.183E+00       0.001       32.256   0.100E-07
     TRS4 it   5 1.00000000   0.524E-01       0.001       32.256   0.100E-07
     TRS4 it   6 1.00000000   0.505E-02       0.001       32.256   0.100E-07
     TRS4 it   7 1.00000000   0.575E-04       0.001       32.256   0.100E-07
     TRS4 it   8 1.00000000   0.105E-07       0.001       32.256   0.100E-07
     Final TRS4 iteration    8 1.00000000   0.105E-07
     Chemical potential (mu):       0.00324
 
 PAO| energy:  -7.7316558609750565      penalty:   1.3632575077990568E-005
 PAO|CG| trace_G_new    6.7892350159335887E-005
 PAO|CG| trace_G_prev    2.1959249788078736E-004
 PAO|CG| trace_G_mix    2.5502787304757010E-007
 PAO|CG| trace_D    2.9720110034847197E-004
 PAO|CG| trace_D_Gnew  -3.1035961973749907E-007
 PAO|CG| beta:   0.30801290089157485     
 PAO| norm of gradient:   8.2396814355493071E-003
 PAO| energy improvement:  -4.0346245103961564E-005
 PAO| step     25                   -7.731655861  0.515E-03  0.366E+00     0.048
 PAO|LS| adapt:  T F F
 PAO|LS| adapt: scan_steps:    0.0000000000000000        0.0000000000000000        0.0000000000000000     
 PAO|LS| adapt: energies:   -7.7316558609750565        0.0000000000000000        0.0000000000000000     
 PAO| ======================= Iteration:        26 =============================

     Lanczos converged:  T threshold:   0.100E-02
     Est. extremal eigenvalues:    0.270E+01   0.198E+00
     Est. condition number :    0.136E+02
     NS sqrt iter    1 1.00000000   0.688E+00       0.001       64.512
     NS sqrt iter    2 1.00000000   0.313E+00       0.001      110.592
     NS sqrt iter    3 1.00000000   0.663E-01       0.001      110.592
     NS sqrt iter    4 1.00000000   0.117E-02       0.001      110.592
     NS sqrt iter    5 1.00000000   0.945E-08       0.001       41.472
     Final NS sqrt iter    5 1.00000000   0.645E-08

     Est. extremal eigenvalues     -0.91525     1.54584  converged:  T
     TRS4 it   1 1.00000000   0.839E+00       0.000       16.128   0.100E-07
     TRS4 it   2 1.00000000   0.578E+00       0.001       32.256   0.100E-07
     TRS4 it   3 1.00000000   0.381E+00       0.001       32.256   0.100E-07
     TRS4 it   4 1.00000000   0.183E+00       0.001       32.256   0.100E-07
     TRS4 it   5 1.00000000   0.524E-01       0.001       32.256   0.100E-07
     TRS4 it   6 1.00000000   0.505E-02       0.001       32.256   0.100E-07
     TRS4 it   7 1.00000000   0.576E-04       0.001       32.256   0.100E-07
     TRS4 it   8 1.00000000   0.105E-07       0.001       32.256   0.100E-07
     Final TRS4 iteration    8 1.00000000   0.105E-07
     Chemical potential (mu):       0.00323
 
 PAO| energy:  -7.7316601730834531      penalty:   1.3073950364055186E-005
 PAO|LS| adapt:  T T F
 PAO|LS| adapt: scan_steps:    0.0000000000000000       0.36551910831422363        0.0000000000000000     
 PAO|LS| adapt: energies:   -7.7316558609750565       -7.7316601730834531        0.0000000000000000     
 PAO| ======================= Iteration:        27 =============================

     Lanczos converged:  T threshold:   0.100E-02
     Est. extremal eigenvalues:    0.270E+01   0.198E+00
     Est. condition number :    0.136E+02
     NS sqrt iter    1 1.00000000   0.688E+00       0.001       64.512
     NS sqrt iter    2 1.00000000   0.313E+00       0.001      110.592
     NS sqrt iter    3 1.00000000   0.662E-01       0.001      110.592
     NS sqrt iter    4 1.00000000   0.117E-02       0.001      110.592
     NS sqrt iter    5 1.00000000   0.938E-08       0.001       41.472
     Final NS sqrt iter    5 1.00000000   0.641E-08

     Est. extremal eigenvalues     -0.91525     1.54582  converged:  T
     TRS4 it   1 1.00000000   0.839E+00       0.000       16.128   0.100E-07
     TRS4 it   2 1.00000000   0.578E+00       0.001       32.256   0.100E-07
     TRS4 it   3 1.00000000   0.381E+00       0.001       32.256   0.100E-07
     TRS4 it   4 1.00000000   0.183E+00       0.001       32.256   0.100E-07
     TRS4 it   5 1.00000000   0.524E-01       0.001       32.256   0.100E-07
     TRS4 it   6 1.00000000   0.505E-02       0.001       32.256   0.100E-07
     TRS4 it   7 1.00000000   0.576E-04       0.001       32.256   0.100E-07
     TRS4 it   8 1.00000000   0.105E-07       0.001       32.256   0.100E-07
     Final TRS4 iteration    8 1.00000000   0.105E-07
     Chemical potential (mu):       0.00322
 
 PAO| energy:  -7.7316233509976975      penalty:   1.2529112901886116E-005
 PAO|LS| adapt:  T T T
 PAO|LS| adapt: scan_steps:    0.0000000000000000       0.36551910831422363       0.73103821662844726     
 PAO|LS| adapt: energies:   -7.7316558609750565       -7.7316601730834531       -7.7316233509976975     
 PAO|LS| adapt: suggested step_size:   0.22107701846038791     
 PAO|LS| adapt: predicted energy  -7.7316633848232534     
 PAO| ======================= Iteration:        28 =============================

     Lanczos converged:  T threshold:   0.100E-02
     Est. extremal eigenvalues:    0.270E+01   0.198E+00
     Est. condition number :    0.136E+02
     NS sqrt iter    1 1.00000000   0.689E+00       0.001       64.512
     NS sqrt iter    2 1.00000000   0.314E+00       0.001      110.592
     NS sqrt iter    3 1.00000000   0.663E-01       0.001      110.592
     NS sqrt iter    4 1.00000000   0.118E-02       0.001      110.592
     NS sqrt iter    5 1.00000000   0.948E-08       0.001       41.472
     Final NS sqrt iter    5 1.00000000   0.646E-08

     Est. extremal eigenvalues     -0.91525     1.54585  converged:  T
     TRS4 it   1 1.00000000   0.839E+00       0.000       16.128   0.100E-07
     TRS4 it   2 1.00000000   0.578E+00       0.001       32.256   0.100E-07
     TRS4 it   3 1.00000000   0.381E+00       0.001       32.256   0.100E-07
     TRS4 it   4 1.00000000   0.183E+00       0.001       32.256   0.100E-07
     TRS4 it   5 1.00000000   0.524E-01       0.001       32.256   0.100E-07
     TRS4 it   6 1.00000000   0.505E-02       0.001       32.256   0.100E-07
     TRS4 it   7 1.00000000   0.575E-04       0.001       32.256   0.100E-07
     TRS4 it   8 1.00000000   0.105E-07       0.001       32.256   0.100E-07
     Final TRS4 iteration    8 1.00000000   0.105E-07
     Chemical potential (mu):       0.00324
 
 PAO| energy:  -7.7316633800701799      penalty:   1.3293047481649720E-005
 PAO|CG| trace_G_new    1.3539407827079638E-005
 PAO|CG| trace_G_prev    6.7892350159335887E-005
 PAO|CG| trace_G_mix    2.5107740176213027E-008
 PAO|CG| trace_D    9.6279586767896997E-005
 PAO|CG| trace_D_Gnew  -2.1567951994953520E-008
 PAO|CG| beta:   0.19905482805038929     
 PAO| norm of gradient:   3.6795934323073849E-003
 PAO| energy improvement:  -7.5190951234205272E-006
 PAO| step     28                   -7.731663380  0.230E-03  0.221E+00     0.046
 PAO|LS| adapt:  T F F
 PAO|LS| adapt: scan_steps:    0.0000000000000000        0.0000000000000000        0.0000000000000000     
 PAO|LS| adapt: energies:   -7.7316633800701799        0.0000000000000000        0.0000000000000000     
 PAO| ======================= Iteration:        29 =============================

     Lanczos converged:  T threshold:   0.100E-02
     Est. extremal eigenvalues:    0.270E+01   0.198E+00
     Est. condition number :    0.136E+02
     NS sqrt iter    1 1.00000000   0.688E+00       0.001       64.512
     NS sqrt iter    2 1.00000000   0.313E+00       0.001      110.592
     NS sqrt iter    3 1.00000000   0.663E-01       0.001      110.592
     NS sqrt iter    4 1.00000000   0.117E-02       0.001      110.592
     NS sqrt iter    5 1.00000000   0.946E-08       0.001       41.472
     Final NS sqrt iter    5 1.00000000   0.646E-08

     Est. extremal eigenvalues     -0.91525     1.54582  converged:  T
     TRS4 it   1 1.00000000   0.839E+00       0.000       16.128   0.100E-07
     TRS4 it   2 1.00000000   0.578E+00       0.001       32.256   0.100E-07
     TRS4 it   3 1.00000000   0.380E+00       0.001       32.256   0.100E-07
     TRS4 it   4 1.00000000   0.183E+00       0.001       32.256   0.100E-07
     TRS4 it   5 1.00000000   0.524E-01       0.001       32.256   0.100E-07
     TRS4 it   6 1.00000000   0.504E-02       0.001       32.256   0.100E-07
     TRS4 it   7 1.00000000   0.574E-04       0.001       32.256   0.100E-07
     TRS4 it   8 1.00000000   0.105E-07       0.001       32.256   0.100E-07
     Final TRS4 iteration    8 1.00000000   0.105E-07
     Chemical potential (mu):       0.00327
 
 PAO| energy:  -7.7316659587916172      penalty:   1.2988294276834227E-005
 PAO|LS| adapt:  T T F
 PAO|LS| adapt: scan_steps:    0.0000000000000000       0.22107701846038791        0.0000000000000000     
 PAO|LS| adapt: energies:   -7.7316633800701799       -7.7316659587916172        0.0000000000000000     
 PAO| ======================= Iteration:        30 =============================

     Lanczos converged:  T threshold:   0.100E-02
     Est. extremal eigenvalues:    0.270E+01   0.198E+00
     Est. condition number :    0.136E+02
     NS sqrt iter    1 1.00000000   0.688E+00       0.001       64.512
     NS sqrt iter    2 1.00000000   0.313E+00       0.001      110.592
     NS sqrt iter    3 1.00000000   0.662E-01       0.001      110.592
     NS sqrt iter    4 1.00000000   0.117E-02       0.001      110.592
     NS sqrt iter    5 1.00000000   0.944E-08       0.001       41.472
     Final NS sqrt iter    5 1.00000000   0.645E-08

     Est. extremal eigenvalues     -0.91526     1.54578  converged:  T
     TRS4 it   1 1.00000000   0.839E+00       0.000       16.128   0.100E-07
     TRS4 it   2 1.00000000   0.578E+00       0.001       32.256   0.100E-07
     TRS4 it   3 1.00000000   0.380E+00       0.001       32.256   0.100E-07
     TRS4 it   4 1.00000000   0.183E+00       0.001       32.256   0.100E-07
     TRS4 it   5 1.00000000   0.523E-01       0.001       32.256   0.100E-07
     TRS4 it   6 1.00000000   0.504E-02       0.001       32.256   0.100E-07
     TRS4 it   7 1.00000000   0.572E-04       0.001       32.256   0.100E-07
     TRS4 it   8 1.00000000   0.104E-07       0.001       32.256   0.100E-07
     Final TRS4 iteration    8 1.00000000   0.104E-07
     Chemical potential (mu):       0.00330
 
 PAO| energy:  -7.7316677065185377      penalty:   1.2687262937893869E-005
 PAO|LS| adapt:  T T F
 PAO|LS| adapt: scan_steps:    0.0000000000000000       0.44215403692077582        0.0000000000000000     
 PAO|LS| adapt: energies:   -7.7316633800701799       -7.7316677065185377        0.0000000000000000     
 PAO| ======================= Iteration:        31 =============================

     Lanczos converged:  T threshold:   0.100E-02
     Est. extremal eigenvalues:    0.270E+01   0.198E+00
     Est. condition number :    0.136E+02
     NS sqrt iter    1 1.00000000   0.688E+00       0.001       64.512
     NS sqrt iter    2 1.00000000   0.313E+00       0.001      110.592
     NS sqrt iter    3 1.00000000   0.662E-01       0.001      110.592
     NS sqrt iter    4 1.00000000   0.117E-02       0.001      110.592
     NS sqrt iter    5 1.00000000   0.941E-08       0.001       41.472
     Final NS sqrt iter    5 1.00000000   0.643E-08

     Est. extremal eigenvalues     -0.91526     1.54571  converged:  T
     TRS4 it   1 1.00000000   0.839E+00       0.000       16.128   0.100E-07
     TRS4 it   2 1.00000000   0.578E+00       0.001       32.256   0.100E-07
     TRS4 it   3 1.00000000   0.380E+00       0.001       32.256   0.100E-07
     TRS4 it   4 1.00000000   0.183E+00       0.001       32.256   0.100E-07
     TRS4 it   5 1.00000000   0.523E-01       0.001       32.256   0.100E-07
     TRS4 it   6 1.00000000   0.502E-02       0.001       32.256   0.100E-07
     TRS4 it   7 1.00000000   0.569E-04       0.001       32.256   0.100E-07
     TRS4 it   8 1.00000000   0.103E-07       0.001       32.256   0.100E-07
     Final TRS4 iteration    8 1.00000000   0.103E-07
     Chemical potential (mu):       0.00337
 
 PAO| energy:  -7.7316687077897432      penalty:   1.2096339381374504E-005
 PAO|LS| Need extra step
 PAO|LS| adapt:  T T F
 PAO|LS| adapt: scan_steps:    0.0000000000000000       0.88430807384155163        0.0000000000000000     
 PAO|LS| adapt: energies:   -7.7316633800701799       -7.7316687077897432        0.0000000000000000     
 PAO| ======================= Iteration:        32 =============================

     Lanczos converged:  T threshold:   0.100E-02
     Est. extremal eigenvalues:    0.270E+01   0.198E+00
     Est. condition number :    0.136E+02
     NS sqrt iter    1 1.00000000   0.688E+00       0.001       64.512
     NS sqrt iter    2 1.00000000   0.313E+00       0.001      110.592
     NS sqrt iter    3 1.00000000   0.660E-01       0.001      110.592
     NS sqrt iter    4 1.00000000   0.116E-02       0.001      110.592
     NS sqrt iter    5 1.00000000   0.935E-08       0.001       41.472
     Final NS sqrt iter    5 1.00000000   0.640E-08

     Est. extremal eigenvalues     -0.91526     1.54557  converged:  T
     TRS4 it   1 1.00000000   0.839E+00       0.000       16.128   0.100E-07
     TRS4 it   2 1.00000000   0.578E+00       0.001       32.256   0.100E-07
     TRS4 it   3 1.00000000   0.380E+00       0.001       32.256   0.100E-07
     TRS4 it   4 1.00000000   0.183E+00       0.001       32.256   0.100E-07
     TRS4 it   5 1.00000000   0.521E-01       0.001       32.256   0.100E-07
     TRS4 it   6 1.00000000   0.499E-02       0.001       32.256   0.100E-07
     TRS4 it   7 1.00000000   0.564E-04       0.001       32.256   0.100E-07
     TRS4 it   8 1.00000000   0.101E-07       0.001       32.256   0.100E-07
     Final TRS4 iteration    8 1.00000000   0.101E-07
     Chemical potential (mu):       0.00350
 
 PAO| energy:  -7.7316607252043426      penalty:   1.0958863809169558E-005
 PAO|LS| Need extra step
 PAO|LS| adapt:  T T T
 PAO|LS| adapt: scan_steps:    0.0000000000000000       0.88430807384155163        1.7686161476831033     
 PAO|LS| adapt: energies:   -7.7316633800701799       -7.7316687077897432       -7.7316607252043426     
 PAO|LS| adapt: suggested step_size:   0.79611628179304184     
 PAO|LS| adapt: predicted energy  -7.7316687739819985     
 PAO| ======================= Iteration:        33 =============================

     Lanczos converged:  T threshold:   0.100E-02
     Est. extremal eigenvalues:    0.270E+01   0.198E+00
     Est. condition number :    0.136E+02
     NS sqrt iter    1 1.00000000   0.688E+00       0.001       64.512
     NS sqrt iter    2 1.00000000   0.313E+00       0.001      110.592
     NS sqrt iter    3 1.00000000   0.662E-01       0.001      110.592
     NS sqrt iter    4 1.00000000   0.117E-02       0.001      110.592
     NS sqrt iter    5 1.00000000   0.942E-08       0.001       41.472
     Final NS sqrt iter    5 1.00000000   0.644E-08

     Est. extremal eigenvalues     -0.91526     1.54572  converged:  T
     TRS4 it   1 1.00000000   0.839E+00       0.000       16.128   0.100E-07
     TRS4 it   2 1.00000000   0.578E+00       0.001       32.256   0.100E-07
     TRS4 it   3 1.00000000   0.380E+00       0.001       32.256   0.100E-07
     TRS4 it   4 1.00000000   0.183E+00       0.001       32.256   0.100E-07
     TRS4 it   5 1.00000000   0.523E-01       0.001       32.256   0.100E-07
     TRS4 it   6 1.00000000   0.502E-02       0.001       32.256   0.100E-07
     TRS4 it   7 1.00000000   0.570E-04       0.001       32.256   0.100E-07
     TRS4 it   8 1.00000000   0.103E-07       0.001       32.256   0.100E-07
     Final TRS4 iteration    8 1.00000000   0.103E-07
     Chemical potential (mu):       0.00336
 
 PAO| energy:  -7.7316687736661276      penalty:   1.2213020725768608E-005
 PAO|CG| trace_G_new    3.4692463674448676E-005
 PAO|CG| trace_G_prev    1.3539407827079638E-005
 PAO|CG| trace_G_mix    1.8832036885718945E-008
 PAO|CG| trace_D    1.7362863413223998E-005
 PAO|CG| trace_D_Gnew  -3.8712446600067560E-009
 PAO|CG| beta:    2.5609415182999058     
 PAO| norm of gradient:   5.8900308721133773E-003
 PAO| energy improvement:  -5.3935959476447692E-006
 PAO| step     33                   -7.731668774  0.368E-03  0.796E+00     0.073
 PAO|LS| adapt:  T F F
 PAO|LS| adapt: scan_steps:    0.0000000000000000        0.0000000000000000        0.0000000000000000     
 PAO|LS| adapt: energies:   -7.7316687736661276        0.0000000000000000        0.0000000000000000     
 PAO| ======================= Iteration:        34 =============================

     Lanczos converged:  T threshold:   0.100E-02
     Est. extremal eigenvalues:    0.269E+01   0.198E+00
     Est. condition number :    0.136E+02
     NS sqrt iter    1 1.00000000   0.687E+00       0.001       64.512
     NS sqrt iter    2 1.00000000   0.312E+00       0.001      110.592
     NS sqrt iter    3 1.00000000   0.658E-01       0.001      110.592
     NS sqrt iter    4 1.00000000   0.116E-02       0.001      110.592
     NS sqrt iter    5 1.00000000   0.935E-08       0.001       41.472
     Final NS sqrt iter    5 1.00000000   0.641E-08

     Est. extremal eigenvalues     -0.91527     1.54541  converged:  T
     TRS4 it   1 1.00000000   0.840E+00       0.000       16.128   0.100E-07
     TRS4 it   2 1.00000000   0.578E+00       0.001       32.256   0.100E-07
     TRS4 it   3 1.00000000   0.380E+00       0.001       32.256   0.100E-07
     TRS4 it   4 1.00000000   0.182E+00       0.001       32.256   0.100E-07
     TRS4 it   5 1.00000000   0.520E-01       0.001       32.256   0.100E-07
     TRS4 it   6 1.00000000   0.497E-02       0.001       32.256   0.100E-07
     TRS4 it   7 1.00000000   0.560E-04       0.001       32.256   0.100E-07
     TRS4 it   8 1.00000000   0.100E-07       0.001       32.256   0.100E-07
     Final TRS4 iteration    8 1.00000000   0.100E-07
     Chemical potential (mu):       0.00352
 
 PAO| energy:  -7.7316774274483873      penalty:   8.9745893206149932E-006
 PAO|LS| adapt:  T T F
[...]
 PAO|LS| adapt: scan_steps:    0.0000000000000000       0.20000000000000001        0.0000000000000000     
 PAO|LS| adapt: energies:   -7.7309620033539233       -7.7309620033735795        0.0000000000000000     
 PAO| ======================= Iteration:       763 =============================

     Lanczos converged:  T threshold:   0.100E-02
     Est. extremal eigenvalues:    0.244E+01   0.238E+00
     Est. condition number :    0.102E+02
     NS sqrt iter    1 1.00000000   0.619E+00       0.001       64.512
     NS sqrt iter    2 1.00000000   0.258E+00       0.001      110.592
     NS sqrt iter    3 1.00000000   0.391E-01       0.001      110.592
     NS sqrt iter    4 1.00000000   0.244E-03       0.001      110.080
     NS sqrt iter    5 1.00000000   0.293E-09       0.001       36.864
     Final NS sqrt iter    5 1.00000000   0.473E-10

     Est. extremal eigenvalues     -0.91505     1.40620  converged:  T
     TRS4 it   1 1.00000000   0.818E+00       0.000       16.128   0.100E-07
     TRS4 it   2 1.00000000   0.582E+00       0.001       32.256   0.100E-07
     TRS4 it   3 1.00000000   0.413E+00       0.001       32.256   0.100E-07
     TRS4 it   4 1.00000000   0.248E+00       0.001       32.256   0.100E-07
     TRS4 it   5 1.00000000   0.110E+00       0.001       32.256   0.100E-07
     TRS4 it   6 1.00000000   0.264E-01       0.001       32.256   0.100E-07
     TRS4 it   7 1.00000000   0.201E-02       0.001       32.256   0.100E-07
     TRS4 it   8 1.00000000   0.140E-04       0.001       32.256   0.100E-07
     TRS4 it   9 1.00000000   0.764E-09       0.001       32.256   0.100E-07
     Final TRS4 iteration    9 1.00000000   0.764E-09
     Chemical potential (mu):      -0.07828
 
 PAO| energy:  -7.7309620033686928      penalty:   3.7237725816217462E-011
 PAO|LS| Need extra step
 PAO|LS| adapt:  T T T
 PAO|LS| adapt: scan_steps:    0.0000000000000000       0.20000000000000001       0.40000000000000002     
 PAO|LS| adapt: energies:   -7.7309620033539233       -7.7309620033735795       -7.7309620033686928     
 PAO|LS| adapt: suggested step_size:   0.26017804798610361     
 PAO|LS| adapt: predicted energy  -7.7309620033746915     
 PAO| ======================= Iteration:       764 =============================

     Lanczos converged:  T threshold:   0.100E-02
     Est. extremal eigenvalues:    0.244E+01   0.238E+00
     Est. condition number :    0.102E+02
     NS sqrt iter    1 1.00000000   0.619E+00       0.001       64.512
     NS sqrt iter    2 1.00000000   0.258E+00       0.001      110.592
     NS sqrt iter    3 1.00000000   0.391E-01       0.001      110.592
     NS sqrt iter    4 1.00000000   0.244E-03       0.001      110.080
     NS sqrt iter    5 1.00000000   0.293E-09       0.001       36.864
     Final NS sqrt iter    5 1.00000000   0.473E-10

     Est. extremal eigenvalues     -0.91505     1.40620  converged:  T
     TRS4 it   1 1.00000000   0.818E+00       0.000       16.128   0.100E-07
     TRS4 it   2 1.00000000   0.582E+00       0.001       32.256   0.100E-07
     TRS4 it   3 1.00000000   0.413E+00       0.001       32.256   0.100E-07
     TRS4 it   4 1.00000000   0.248E+00       0.001       32.256   0.100E-07
     TRS4 it   5 1.00000000   0.110E+00       0.001       32.256   0.100E-07
     TRS4 it   6 1.00000000   0.264E-01       0.001       32.256   0.100E-07
     TRS4 it   7 1.00000000   0.201E-02       0.001       32.256   0.100E-07
     TRS4 it   8 1.00000000   0.140E-04       0.001       32.256   0.100E-07
     TRS4 it   9 1.00000000   0.764E-09       0.001       32.256   0.100E-07
     Final TRS4 iteration    9 1.00000000   0.764E-09
     Chemical potential (mu):      -0.07828
 
 PAO| energy:  -7.7309620033746898      penalty:   3.7661749462379588E-011
 PAO|CG| warming up with steepest descent
 PAO|CG| beta:    0.0000000000000000     
 PAO| norm of gradient:   7.2359407743069033E-006
 PAO| energy improvement:  -2.0766499631008628E-011
 PAO| step    764                   -7.730962003  0.452E-06  0.260E+00     0.064
 PAO| converged after          764  steps :-)
 PAO| Recalculating energy after mixing.

     Lanczos converged:  T threshold:   0.100E-02
     Est. extremal eigenvalues:    0.244E+01   0.238E+00
     Est. condition number :    0.102E+02
     NS sqrt iter    1 1.00000000   0.619E+00       0.001       64.512
     NS sqrt iter    2 1.00000000   0.258E+00       0.001      110.592
     NS sqrt iter    3 1.00000000   0.391E-01       0.001      110.592
     NS sqrt iter    4 1.00000000   0.244E-03       0.001      110.080
     NS sqrt iter    5 1.00000000   0.293E-09       0.001       36.864
     Final NS sqrt iter    5 1.00000000   0.473E-10

     Est. extremal eigenvalues     -0.91505     1.40620  converged:  T
     TRS4 it   1 1.00000000   0.818E+00       0.000       16.128   0.100E-07
     TRS4 it   2 1.00000000   0.582E+00       0.001       32.256   0.100E-07
     TRS4 it   3 1.00000000   0.413E+00       0.001       32.256   0.100E-07
     TRS4 it   4 1.00000000   0.248E+00       0.001       32.256   0.100E-07
     TRS4 it   5 1.00000000   0.110E+00       0.001       32.256   0.100E-07
     TRS4 it   6 1.00000000   0.264E-01       0.001       32.256   0.100E-07
     TRS4 it   7 1.00000000   0.201E-02       0.001       32.256   0.100E-07
     TRS4 it   8 1.00000000   0.140E-04       0.001       32.256   0.100E-07
     TRS4 it   9 1.00000000   0.764E-09       0.001       32.256   0.100E-07
     Final TRS4 iteration    9 1.00000000   0.764E-09
     Chemical potential (mu):      -0.07828
 
 PAO| energy:  -7.7309620033695001      penalty:   3.8058414000048582E-011
 PAO| Writing restart file.
     Est. extremal eigenvalues     -0.91505     1.40620  converged:  T
     TRS4 it   1 1.00000000   0.818E+00       0.000       16.128   0.100E-07
     TRS4 it   2 1.00000000   0.582E+00       0.001       32.256   0.100E-07
     TRS4 it   3 1.00000000   0.413E+00       0.001       32.256   0.100E-07
     TRS4 it   4 1.00000000   0.248E+00       0.001       32.256   0.100E-07
     TRS4 it   5 1.00000000   0.110E+00       0.001       32.256   0.100E-07
     TRS4 it   6 1.00000000   0.264E-01       0.001       32.256   0.100E-07
     TRS4 it   7 1.00000000   0.201E-02       0.001       32.256   0.100E-07
     TRS4 it   8 1.00000000   0.140E-04       0.001       32.256   0.100E-07
     TRS4 it   9 1.00000000   0.764E-09       0.001       32.256   0.100E-07
     Final TRS4 iteration    9 1.00000000   0.764E-09
     Chemical potential (mu):      -0.07828

 SCF     1       -34.445403623       -34.445403623    1.891024

*********************************************************
 Using MIXING_FRACTION=0.450 to mix KS matrix:  iscf=  2
 KS_nw=0.450*KS + 0.550*KS_old
*********************************************************
     Est. extremal eigenvalues     -0.91505     1.40620  converged:  T
     TRS4 it   1 1.00000000   0.818E+00       0.000       16.128   0.100E-07
     TRS4 it   2 1.00000000   0.582E+00       0.001       32.256   0.100E-07
     TRS4 it   3 1.00000000   0.413E+00       0.001       32.256   0.100E-07
     TRS4 it   4 1.00000000   0.248E+00       0.001       32.256   0.100E-07
     TRS4 it   5 1.00000000   0.110E+00       0.001       32.256   0.100E-07
     TRS4 it   6 1.00000000   0.264E-01       0.001       32.256   0.100E-07
     TRS4 it   7 1.00000000   0.201E-02       0.001       32.256   0.100E-07
     TRS4 it   8 1.00000000   0.140E-04       0.001       32.256   0.100E-07
     TRS4 it   9 1.00000000   0.764E-09       0.001       32.256   0.100E-07
     Final TRS4 iteration    9 1.00000000   0.764E-09
     Chemical potential (mu):      -0.07828

 SCF     2       -34.445403623        -0.000000000    1.891611

 PAO| Storing density matrix for ASPC guess in slot:           1

 ENERGY| Total FORCE_EVAL ( QS ) energy (a.u.):              -34.445403623172290


 -------------------------------------------------------------------------------
 -                                                                             -
 -                                DBCSR STATISTICS                             -
 -                                                                             -
 -------------------------------------------------------------------------------
 COUNTER                                    TOTAL       BLAS       SMM       ACC
 flops     5 x     5 x     4                26000       0.0%    100.0%      0.0%
 flops    13 x     5 x     4                27040       0.0%    100.0%      0.0%
 flops     5 x    13 x     4                27040       0.0%    100.0%      0.0%
 flops    13 x    13 x     4                52728       0.0%    100.0%      0.0%
 flops     4 x     4 x     5              5975040       0.0%    100.0%      0.0%
 flops     5 x     4 x     5              7312000       0.0%    100.0%      0.0%
 flops     4 x     4 x    13              7767552       0.0%    100.0%      0.0%
 flops    13 x     4 x     5              9505600       0.0%    100.0%      0.0%
 flops     5 x     4 x    13              9505600       0.0%    100.0%      0.0%
 flops     5 x     4 x     4             11408960       0.0%    100.0%      0.0%
 flops    13 x     4 x    13             12357280       0.0%    100.0%      0.0%
 flops    13 x     4 x     4             14933568       0.0%    100.0%      0.0%
 flops     4 x     4 x     4            755810816       0.0%    100.0%      0.0%
 flops inhomo. stacks                           0       0.0%      0.0%      0.0%
 flops total                       834.709224E+06       0.0%    100.0%      0.0%
 flops max/rank                    834.709224E+06       0.0%    100.0%      0.0%
 matmuls inhomo. stacks                         0       0.0%      0.0%      0.0%
 matmuls total                            6150525       0.0%    100.0%      0.0%
 number of processed stacks                 49081       0.0%    100.0%      0.0%
 average stack size                                     0.0     125.3       0.0
 marketing flops                     1.364473E+09
 -------------------------------------------------------------------------------
 # multiplications                          41100
 max memory usage/rank             321.298432E+06
 # max total images/rank                        1
 # max 3D layers                                1
 # MPI messages exchanged                       0
 MPI messages size (bytes):
  total size                         0.000000E+00
  min size                           0.000000E+00
  max size                           0.000000E+00
  average size                       0.000000E+00
 MPI breakdown and total messages size (bytes):
             size <=      128                   0                        0
       128 < size <=     8192                   0                        0
      8192 < size <=    32768                   0                        0
     32768 < size <=   131072                   0                        0
    131072 < size <=  4194304                   0                        0
   4194304 < size <= 16777216                   0                        0
  16777216 < size                               0                        0
 -------------------------------------------------------------------------------

 MEMORY| Estimated peak process memory [MiB]                                 307

 -------------------------------------------------------------------------------
 -                                                                             -
 -                           R E F E R E N C E S                               -
 -                                                                             -
 -------------------------------------------------------------------------------
 
 CP2K version 7.0 (Development Version), the CP2K developers group (2018).
 CP2K is freely available from https://www.cp2k.org/ .

 Schuett, O; VandeVondele, J. 
 Journal of Chemical Theory and Computation, 14, (2018). 
 Machine Learning Adaptive Basis Sets for Efficient Large Scale Density Functional Theory Simulation.
 https://dx.doi.org/10.1021/acs.jctc.8b00378


 Schuett, Ole; Messmer, Peter; Hutter, Juerg; VandeVondele, Joost. 
 Electronic Structure Calculations on Graphics Processing Units, John Wiley & Sons, Ltd, 173-190 (2016). 
 GPU-Accelerated Sparse Matrix-Matrix Multiplication for Linear Scaling Density Functional Theory.
 https://dx.doi.org/10.1002/9781118670712.ch8


 Borstnik, U; VandeVondele, J; Weber, V; Hutter, J. 
 PARALLEL COMPUTING, 40 (5-6), 47-58 (2014). 
 Sparse matrix multiplication: The distributed block-compressed sparse
 row library.
 https://dx.doi.org/10.1016/j.parco.2014.03.012


 Hutter, J; Iannuzzi, M; Schiffmann, F; VandeVondele, J. 
 WILEY INTERDISCIPLINARY REVIEWS-COMPUTATIONAL MOLECULAR SCIENCE, 4 (1), 15-25 (2014). 
 CP2K: atomistic simulations of condensed matter systems.
 https://dx.doi.org/10.1002/wcms.1159


 VandeVondele, J; Borstnik, U; Hutter, J. 
 JOURNAL OF CHEMICAL THEORY AND COMPUTATION, 8 (10), 3565-3573 (2012). 
 Linear Scaling Self-Consistent Field Calculations with Millions of Atoms
 in the Condensed Phase.
 https://dx.doi.org/10.1021/ct200897x


 VandeVondele, J; Hutter, J. 
 JOURNAL OF CHEMICAL PHYSICS, 127 (11), 114105 (2007). 
 Gaussian basis sets for accurate calculations on molecular systems in
 gas and condensed phases.
 https://dx.doi.org/10.1063/1.2770708


 Krack, M. 
 THEORETICAL CHEMISTRY ACCOUNTS, 114 (1-3), 145-152 (2005). 
 Pseudopotentials for H to Kr optimized for gradient-corrected
 exchange-correlation functionals.
 https://dx.doi.org/10.1007/s00214-005-0655-y


 VandeVondele, J; Krack, M; Mohamed, F; Parrinello, M; Chassaing, T;
 Hutter, J. COMPUTER PHYSICS COMMUNICATIONS, 167 (2), 103-128 (2005). 
 QUICKSTEP: Fast and accurate density functional calculations using a
 mixed Gaussian and plane waves approach.
 https://dx.doi.org/10.1016/j.cpc.2004.12.014


 Frigo, M; Johnson, SG. 
 PROCEEDINGS OF THE IEEE, 93 (2), 216-231 (2005). 
 The design and implementation of FFTW3.
 https://dx.doi.org/10.1109/JPROC.2004.840301


 Niklasson, AMN; Tymczak, CJ; Challacombe, M. 
 JOURNAL OF CHEMICAL PHYSICS, 118 (19), 8611-8620 (2003). 
 Trace resetting density matrix purification in O(N)
 self-consistent-field theory.
 https://dx.doi.org/10.1063/1.1559913


 Hartwigsen, C; Goedecker, S; Hutter, J. 
 PHYSICAL REVIEW B, 58 (7), 3641-3662 (1998). 
 Relativistic separable dual-space Gaussian pseudopotentials from H to Rn.
 https://dx.doi.org/10.1103/PhysRevB.58.3641


 Lippert, G; Hutter, J; Parrinello, M. 
 MOLECULAR PHYSICS, 92 (3), 477-487 (1997). 
 A hybrid Gaussian and plane wave density functional scheme.
 https://dx.doi.org/10.1080/002689797170220


 Perdew, JP; Burke, K; Ernzerhof, M. 
 PHYSICAL REVIEW LETTERS, 77 (18), 3865-3868 (1996). 
 Generalized gradient approximation made simple.
 https://dx.doi.org/10.1103/PhysRevLett.77.3865


 Goedecker, S; Teter, M; Hutter, J. 
 PHYSICAL REVIEW B, 54 (3), 1703-1710 (1996). 
 Separable dual-space Gaussian pseudopotentials.
 https://dx.doi.org/10.1103/PhysRevB.54.1703


 -------------------------------------------------------------------------------
 -                                                                             -
 -                                T I M I N G                                  -
 -                                                                             -
 -------------------------------------------------------------------------------
 SUBROUTINE                       CALLS  ASD         SELF TIME        TOTAL TIME
                                MAXIMUM       AVERAGE  MAXIMUM  AVERAGE  MAXIMUM
 CP2K                                 1  1.0    0.029    0.029   37.525   37.525
 qs_energies                          1  2.0    0.000    0.000   37.158   37.158
 ls_scf                               1  3.0    0.000    0.000   37.057   37.057
 ls_scf_main                          6  4.0    0.001    0.001   22.634   22.634
 ls_scf_dm_to_ks                     12  5.0    0.000    0.000   22.539   22.539
 qs_ks_update_qs_env                 13  6.0    0.000    0.000   17.262   17.262
 rebuild_ks_matrix                   13  7.0    0.000    0.000   17.262   17.262
 qs_ks_build_kohn_sham_matrix        13  8.0    0.001    0.001   17.262   17.262
 pao_update                           6  4.0    0.016    0.016   12.400   12.400
 pao_calc_energy                    769  5.0    0.006    0.006   11.208   11.208
 qs_vxc_create                       13  9.0    0.000    0.000    9.788    9.788
 xc_vxc_pw_create                    13 10.0    0.158    0.158    9.787    9.787
 dbcsr_multiply_generic           41100  8.4    0.703    0.703    9.106    9.106
 qs_rho_update_rho                   13  6.0    0.000    0.000    7.227    7.227
 calculate_rho_elec                  13  7.0    5.895    5.895    7.227    7.227
 xc_rho_set_and_dset_create          13 11.0    0.059    0.059    7.184    7.184
 sum_up_and_integrate                13  9.0    0.027    0.027    6.437    6.437
 integrate_v_rspace                  13 10.0    5.705    5.705    6.410    6.410
 pw_transfer                        248 10.6    0.016    0.016    6.117    6.117
 fft_wrap_pw1pw2                    222 11.7    0.002    0.002    5.985    5.985
 pao_dm_trs4                        769  6.0    0.004    0.004    5.802    5.802
 fft_wrap_pw1pw2_200                144 12.8    0.494    0.494    5.727    5.727
 density_matrix_trs4                781  7.0    0.301    0.301    5.537    5.537
 ls_scf_init_matrix_S               775  7.0    0.005    0.005    5.385    5.385
 pao_rebuild_S                      769  6.0    0.003    0.003    5.343    5.343
 xc_functional_eval                  13 12.0    0.000    0.000    4.968    4.968
 pbe_lda_eval                        13 13.0    4.968    4.968    4.968    4.968
 matrix_sqrt_Newton_Schulz          775  8.0    0.196    0.196    4.836    4.836
 multiply_cannon                  41100  9.4    1.566    1.566    3.469    3.469
 make_m2s                         82200  9.4    0.243    0.243    3.380    3.380
 fft3d_s                            223 13.6    3.353    3.353    3.364    3.364
 make_images                      82200 10.4    0.889    0.889    3.004    3.004
 pao_guess_initial_P                  1  4.0    0.000    0.000    1.956    1.956
 pao_read_preopt_dm                   1  5.0    0.000    0.000    1.956    1.956
 arnoldi_extremal                  1556  8.5    0.006    0.006    1.505    1.505
 arnoldi_normal_ev                 1556  9.5    0.016    0.016    1.499    1.499
 density_rs2pw                       13  8.0    0.001    0.001    1.310    1.310
 pao_calc_AB                       1013  5.8    0.001    0.001    1.165    1.165
 pao_calc_AB_direct                1013  6.8    0.037    0.037    1.164    1.164
 build_subspace                    1556 10.5    0.092    0.092    1.120    1.120
 pw_scatter_s                       117 14.2    1.090    1.090    1.090    1.090
 pao_calc_grad_lnv_wrt_AB           243  7.0    0.012    0.012    1.084    1.084
 pw_gather_s                        105 13.1    1.015    1.015    1.015    1.015
 dbcsr_create_new                314370 10.7    0.555    0.555    0.991    0.991
 dbcsr_matrix_vector_mult         37339 11.5    0.181    0.181    0.987    0.987
 dbcsr_finalize                   96945  9.7    0.179    0.179    0.949    0.949
 -------------------------------------------------------------------------------

 The number of warnings for this run is : 0
 
 -------------------------------------------------------------------------------
  **** **** ******  **  PROGRAM ENDED AT                 2019-02-14 11:10:45.245
 ***** ** ***  *** **   PROGRAM RAN ON                                      otto
 **    ****   ******    PROGRAM RAN BY                                       ole
 ***** **    ** ** **   PROGRAM PROCESS ID                                  7772
  **** **  *******  **  PROGRAM STOPPED IN /home/ole/git/pao_ml_equivar/2H2O_MD/
                                           frame_1550
