 DBCSR| CPU Multiplication driver                                           XSMM (U)
 DBCSR| Multrec recursion limit                                              512 (U)
 DBCSR| Multiplication stack size                                           1000 (D)
 DBCSR| Maximum elements for images                                    UNLIMITED (U)
 DBCSR| Multiplicative factor virtual images                                   1 (U)
 DBCSR| Use multiplication densification                                       T (D)
 DBCSR| Multiplication size stacks                                             3 (U)
 DBCSR| Use memory pool for CPU allocation                                     F (U)
 DBCSR| OMP: Current number of threads                                         1
 DBCSR| OMP: Max number of threads                                             1
 DBCSR| Split modifier for TAS multiplication algorithm                  1.0E+00 (U)


  **** **** ******  **  PROGRAM STARTED AT               2023-02-01 10:47:55.393
 ***** ** ***  *** **   PROGRAM STARTED ON                                moritz
 **    ****   ******    PROGRAM STARTED BY                                   ole
 ***** **    ** ** **   PROGRAM PROCESS ID                                148777
  **** **  *******  **  PROGRAM STARTED IN /home/ole/git/pao_ml_equivar/2H2O_MD/
                                           frame_1325

 CP2K| version string:                 CP2K version 2023.1 (Development Version)
 CP2K| source code revision number:                                  git:03b4147
 CP2K| cp2kflags: omp libint fftw3 libxc quip xsmm spglib libvori libbqb libtorc
 CP2K|            h
 CP2K| is freely available from                            https://www.cp2k.org/
 CP2K| Program compiled at                           Mi 01 Feb 2023 10:36:52 CET
 CP2K| Program compiled on                                                moritz
 CP2K| Program compiled for                                                local
 CP2K| Data directory path                               /home/ole/git/cp2k/data
 CP2K| Input file name                                            2H2O_pao44.inp

 GLOBAL| Force Environment number                                              1
 GLOBAL| Basis set file name                                        BASIS_MOLOPT
 GLOBAL| Potential file name                                      GTH_POTENTIALS
 GLOBAL| MM Potential file name                                     MM_POTENTIAL
 GLOBAL| Coordinate file name                                         coords.xyz
 GLOBAL| Method name                                                        CP2K
 GLOBAL| Project name                                                 2H2O_pao44
 GLOBAL| Run type                                                         ENERGY
 GLOBAL| FFT library                                                       FFTW3
 GLOBAL| Diagonalization library                                       ScaLAPACK
 GLOBAL| DGEMM library                                                      BLAS
 GLOBAL| Orthonormality check for eigenvectors                          DISABLED
 GLOBAL| Matrix multiplication library                                 ScaLAPACK
 GLOBAL| All-to-all communication in single precision                          F
 GLOBAL| FFTs using library dependent lengths                                  F
 GLOBAL| Grid backend                                                       AUTO
 GLOBAL| Global print level                                                  LOW
 GLOBAL| MPI I/O enabled                                                       T
 GLOBAL| Total number of message passing processes                             1
 GLOBAL| Number of threads for this process                                    1
 GLOBAL| This output is from process                                           0
 GLOBAL| Stack size for threads created by OpenMP (OMP_STACKSIZE)        default
 GLOBAL| CPU model name           AMD Ryzen Threadripper 3970X 32-Core Processor
 GLOBAL| CPUID                                                              1002
 GLOBAL| Compiled for CPUID                                                    0

 *** HINT in environment.F:884 :: The compiler target flags (generic) used ***
 *** to build this binary cannot exploit all extensions of this CPU model  ***
 *** (x86_avx2). Consider compiler target flags as part of FCFLAGS and     ***
 *** CFLAGS (ARCH file).                                                   ***


 MEMORY| system memory details [Kb]
 MEMORY|                        rank 0           min           max       average
 MEMORY| MemTotal            131773860     131773860     131773860     131773860
 MEMORY| MemFree             115223608     115223608     115223608     115223608
 MEMORY| Buffers                302624        302624        302624        302624
 MEMORY| Cached                7056636       7056636       7056636       7056636
 MEMORY| Slab                   780228        780228        780228        780228
 MEMORY| SReclaimable           332704        332704        332704        332704
 MEMORY| MemLikelyFree       122915572     122915572     122915572     122915572


 GENERATE|  Preliminary Number of Bonds generated:                             0
 GENERATE|  Achieved consistency in connectivity generation.

 *******************************************************************************
 *******************************************************************************
 **                                                                           **
 **     #####                         ##              ##                      **
 **    ##   ##            ##          ##              ##                      **
 **   ##     ##                       ##            ######                    **
 **   ##     ##  ##   ##  ##   #####  ##  ##   ####   ##    #####    #####    **
 **   ##     ##  ##   ##  ##  ##      ## ##   ##      ##   ##   ##  ##   ##   **
 **   ##  ## ##  ##   ##  ##  ##      ####     ###    ##   ######   ######    **
 **    ##  ###   ##   ##  ##  ##      ## ##      ##   ##   ##       ##        **
 **     #######   #####   ##   #####  ##  ##  ####    ##    #####   ##        **
 **           ##                                                    ##        **
 **                                                                           **
 **                                                ... make the atoms dance   **
 **                                                                           **
 **            Copyright (C) by CP2K developers group (2000-2023)             **
 **                      J. Chem. Phys. 152, 194103 (2020)                    **
 **                                                                           **
 *******************************************************************************


 TOTAL NUMBERS AND MAXIMUM NUMBERS

  Total number of            - Atomic kinds:                                   2
                             - Atoms:                                          6
                             - Shell sets:                                     6
                             - Shells:                                        22
                             - Primitive Cartesian functions:                 42
                             - Cartesian basis functions:                     48
                             - Spherical basis functions:                     46

  Maximum angular momentum of- Orbital basis functions:                        2
                             - Local part of the GTH pseudopotential:          2
                             - Non-local part of the GTH pseudopotential:      0

 ------------------------------ Linear scaling SCF -----------------------------
 eps_scf:                                                              0.100E-07
 eps_filter:                                                           0.100E-07
 mixing_fraction:                                                      0.450E+00
 max_scf:                                                                     25
 fixed chemical potential (mu)                                                 F
 has unit metric:                                                              F
 Computing inv(S):                                                             T
 Computing sqrt(S):                                                            T
 Computing S preconditioner                                                    F
 S sqrt method:                                                     NEWTONSCHULZ
 S sqrt order:                                                                 3
 Extrapolation order:                                                          1
 Use single precision matrices                                                 F
 S preconditioner type                                                      NONE
 Polarized Atomic Orbitals (PAO)                                               T
 Purification method                                   Trace resetting 4th order
 Cluster type                                                             ATOMIC
 Computing Chebyshev                                                       FALSE
 Using PAO                                                                     T
 -------------------------------------------------------------------------------

 
 PAO|                                  EPS_PAO                           0.5E-06
 PAO|                                  MIXING                            0.5E+00
 PAO|                                  MAX_PAO                              1500
 PAO|                                  MAX_CYCLES                           1000
 PAO|                                  PARAMETERIZATION              EQUIVARIANT
 PAO|                                  PRECONDITION                            F
 PAO|                                  REGULARIZATION                    0.0E+00
 PAO|                                  EPS_PGF                           0.1E-09
 PAO|                                  PENALTY_DISTANCE                  0.1E+00
 PAO|                                  PENALTY_STRENGTH                  0.5E-02
 PAO|                                  LINPOT_PRECONDITION_DELTA         0.0E+00
 PAO|                                  LINPOT_INITGUESS_DELT             0.0E+00
 PAO|                                  LINPOT_REGULARIZATION_DELTA       0.0E+00
 PAO|                                  LINPOT_REGULARIZATION_STRENGTH    0.0E+00
 PAO|                                  OPTIMIZER                              CG
 PAO|                                  CG_INIT_STEPS                           2
 PAO|                                  CG_RESET_LIMIT                    0.1E+00
 PAO|                                  CHECK_UNITARY_TOL                -0.1E+01
 PAO|                                  CHECK_GRADIENT_TOL               -0.1E+01
 PAO|                                  NUM_GRADIENT_ORDER                      2
 PAO|                                  NUM_GRADIENT_EPS                  0.1E-07
 PAO|                                  PRINT%RESTART%WRITE_CYCLES            100
 PAO|                                  RESTART_FILE 
 PAO|                                  PREOPT_DM_FILE 2H2O_ref_LS_DM_SPIN_1_RESTART.dm
 PAO|                                  MACHINE_LEARNING%METHOD       GAUSSIAN_PR
 PAO|                                  MACHINE_LEARNING%PRIOR               ZERO
 PAO|                                  MACHINE_LEARNING%DESCRIPTOR     POTENTIAL
 PAO|                                  MACHINE_LEARNING%TOLERANCE        0.1E-01
 PAO|                                  MACHINE_LEARNING%GP_NOISE_VAR     0.1E+00
 PAO|                                  MACHINE_LEARNING%GP_SCALE         0.5E-01
 

 Calculating atomic Fock matrix for atomic kind: O

 Electronic structure
    Total number of core electrons                                          2.00
    Total number of valence electrons                                       6.00
    Total number of electrons                                               8.00
    Multiplicity                                                   not specified
    S   [  2.00] 2.00
    P      4.00


 *******************************************************************************
                  Iteration          Convergence                     Energy [au]
 *******************************************************************************
                          1        0.708315                     -15.576645311500
                          2        0.608879                     -15.587933561584
                          3        0.102828E-01                 -15.656849565404
                          4        0.113889E-02                 -15.656866888140
                          5        0.434197E-03                 -15.656867072159
                          6        0.263771E-03                 -15.656867091904
                          7        0.478536E-06                 -15.656867103452

 Energy components [Hartree]           Total Energy ::          -15.656867103452
                                        Band Energy ::           -3.000198112285
                                     Kinetic Energy ::           11.759971203220
                                   Potential Energy ::          -27.416838306672
                                      Virial (-V/T) ::            2.331369510426
                                        Core Energy ::          -26.140716385623
                                          XC Energy ::           -3.154051012914
                                     Coulomb Energy ::           13.637900295084
                       Total Pseudopotential Energy ::          -37.935781716540
                       Local Pseudopotential Energy ::          -39.218907440693
                    Nonlocal Pseudopotential Energy ::            1.283125724153
                                        Confinement ::            0.350941276976

 Orbital energies  State     L     Occupation   Energy[a.u.]          Energy[eV]

                       1     0          2.000      -0.864471          -23.523463

                       1     1          4.000      -0.317814           -8.648154


 Total Electron Density at R=0:                                         0.000068

 Calculating atomic Fock matrix for atomic kind: H

 Electronic structure
    Total number of core electrons                                          0.00
    Total number of valence electrons                                       1.00
    Total number of electrons                                               1.00
    Multiplicity                                                   not specified
    S      1.00


 *******************************************************************************
                  Iteration          Convergence                     Energy [au]
 *******************************************************************************
                          1        0.437545E-02                  -0.424159432110
                          2        0.531356E-03                  -0.424178438213
                          3        0.259176E-06                  -0.424178722480

 Energy components [Hartree]           Total Energy ::           -0.424178722480
                                        Band Energy ::           -0.199015229016
                                     Kinetic Energy ::            0.464007633961
                                   Potential Energy ::           -0.888186356441
                                      Virial (-V/T) ::            1.914163240935
                                        Core Energy ::           -0.479160803564
                                          XC Energy ::           -0.244352904054
                                     Coulomb Energy ::            0.299334985138
                       Total Pseudopotential Energy ::           -0.962295316385
                       Local Pseudopotential Energy ::           -0.962295316385
                    Nonlocal Pseudopotential Energy ::            0.000000000000
                                        Confinement ::            0.191268788606

 Orbital energies  State     L     Occupation   Energy[a.u.]          Energy[eV]

                       1     0          1.000      -0.199015           -5.415480


 Total Electron Density at R=0:                                         0.242907
 PAO| Made initial guess for matrix_X with norm:   4.8989794855663558     

     Lanczos converged:  T threshold:   0.100E-02
     Est. extremal eigenvalues:    0.314E+01   0.114E+00
     Est. condition number :    0.274E+02

 Order=           3
     NS sqrt iter    1 1.00000000   0.765E+00       0.003       19.482
     NS sqrt iter    2 1.00000000   0.407E+00       0.002       63.901
     NS sqrt iter    3 1.00000000   0.152E+00       0.001       94.971
     NS sqrt iter    4 1.00000000   0.156E-01       0.001       95.698
     NS sqrt iter    5 1.00000000   0.275E-04       0.001       75.227
     Symmetrizing Results
     Final NS sqrt iter    5 1.00000000   0.133E-08

 PAO| Read restart DM 2H2O_ref_LS_DM_SPIN_1_RESTART.dm with checksum:    61.203941121865363     
 PAO| Quickstep energy from restart density:  -34.446146973155685     
 PAO| ======================= Iteration:         1 =============================

     Lanczos converged:  T threshold:   0.100E-02
     Est. extremal eigenvalues:    0.314E+01   0.114E+00
     Est. condition number :    0.274E+02

 Order=           3
     NS sqrt iter    1 1.00000000   0.765E+00       0.001       57.725
     NS sqrt iter    2 1.00000000   0.407E+00       0.001       98.232
     NS sqrt iter    3 1.00000000   0.152E+00       0.001       98.973
     NS sqrt iter    4 1.00000000   0.156E-01       0.001       99.245
     NS sqrt iter    5 1.00000000   0.275E-04       0.001       79.092
     Symmetrizing Results
     Final NS sqrt iter    5 1.00000000   0.133E-08

     Est. extremal eigenvalues     -0.89656     1.77047  converged:  T
     TRS4 it   1 1.00000000   0.876E+00       0.000       16.128   0.100E-07
     TRS4 it   2 1.00000000   0.672E+00       0.001       32.256   0.100E-07
     TRS4 it   3 1.00000000   0.488E+00       0.001       32.256   0.100E-07
     TRS4 it   4 1.00000000   0.307E+00       0.001       32.256   0.100E-07
     TRS4 it   5 1.00000000   0.151E+00       0.001       32.256   0.100E-07
     TRS4 it   6 1.00000000   0.443E-01       0.013        2.539   0.100E-07
     TRS4 it   7 1.00000000   0.477E-02       0.001       32.256   0.100E-07
     TRS4 it   8 1.00000000   0.706E-04       0.001       32.256   0.100E-07
     TRS4 it   9 1.00000000   0.188E-07       0.001       32.256   0.100E-07
     Final TRS4 iteration    9 1.00000000   0.188E-07
     Chemical potential (mu):      -0.06874
 
 PAO| energy:  -7.5354201442896676      penalty:   6.5327543713615043E-033
 PAO|CG| warming up with steepest descent
 PAO|CG| beta:    0.0000000000000000     
 PAO| norm of gradient:  0.78971377771481210     
 PAO|LS| adapt:  T F F
 PAO|LS| adapt: scan_steps:    0.0000000000000000        0.0000000000000000        0.0000000000000000     
 PAO|LS| adapt: energies:   -7.5354201442896676        0.0000000000000000        0.0000000000000000     
 PAO| ======================= Iteration:         2 =============================

     Lanczos converged:  T threshold:   0.100E-02
     Est. extremal eigenvalues:    0.307E+01   0.128E+00
     Est. condition number :    0.239E+02

 Order=           3
     NS sqrt iter    1 1.00000000   0.753E+00       0.001       57.864
     NS sqrt iter    2 1.00000000   0.393E+00       0.001       97.630
     NS sqrt iter    3 1.00000000   0.135E+00       0.001       98.594
     NS sqrt iter    4 1.00000000   0.105E-01       0.001       98.854
     NS sqrt iter    5 1.00000000   0.826E-05       0.001       76.578
     Symmetrizing Results
     Final NS sqrt iter    5 1.00000000   0.121E-09

     Est. extremal eigenvalues     -0.90007     1.71855  converged:  T
     TRS4 it   1 1.00000000   0.872E+00       0.000       16.128   0.100E-07
     TRS4 it   2 1.00000000   0.653E+00       0.001       32.256   0.100E-07
     TRS4 it   3 1.00000000   0.470E+00       0.001       32.256   0.100E-07
     TRS4 it   4 1.00000000   0.284E+00       0.001       32.256   0.100E-07
     TRS4 it   5 1.00000000   0.130E+00       0.001       32.256   0.100E-07
     TRS4 it   6 1.00000000   0.328E-01       0.001       32.256   0.100E-07
     TRS4 it   7 1.00000000   0.264E-02       0.017        1.927   0.100E-07
     TRS4 it   8 1.00000000   0.217E-04       0.001       32.256   0.100E-07
     TRS4 it   9 1.00000000   0.180E-08       0.001       32.256   0.100E-07
     Final TRS4 iteration    9 1.00000000   0.180E-08
     Chemical potential (mu):      -0.05708
 
 PAO| energy:  -7.5916370888818312      penalty:   2.3211851402488489E-008
 PAO|LS| adapt:  T T F
 PAO|LS| adapt: scan_steps:    0.0000000000000000       0.10000000000000001        0.0000000000000000     
 PAO|LS| adapt: energies:   -7.5354201442896676       -7.5916370888818312        0.0000000000000000     
 PAO| ======================= Iteration:         3 =============================

     Lanczos converged:  T threshold:   0.100E-02
     Est. extremal eigenvalues:    0.299E+01   0.141E+00
     Est. condition number :    0.212E+02

 Order=           3
     NS sqrt iter    1 1.00000000   0.740E+00       0.001       58.416
     NS sqrt iter    2 1.00000000   0.378E+00       0.001       97.555
     NS sqrt iter    3 1.00000000   0.119E+00       0.001       98.327
     NS sqrt iter    4 1.00000000   0.702E-02       0.001       97.237
     NS sqrt iter    5 1.00000000   0.256E-05       0.001       75.676
     Symmetrizing Results
     Final NS sqrt iter    5 1.00000000   0.116E-10

     Est. extremal eigenvalues     -0.90333     1.68003  converged:  T
     TRS4 it   1 1.00000000   0.869E+00       0.000       16.128   0.100E-07
     TRS4 it   2 1.00000000   0.637E+00       0.001       32.256   0.100E-07
     TRS4 it   3 1.00000000   0.452E+00       0.001       32.256   0.100E-07
     TRS4 it   4 1.00000000   0.263E+00       0.017        1.930   0.100E-07
     TRS4 it   5 1.00000000   0.111E+00       0.001       32.256   0.100E-07
     TRS4 it   6 1.00000000   0.235E-01       0.001       32.256   0.100E-07
     TRS4 it   7 1.00000000   0.135E-02       0.001       32.256   0.100E-07
     TRS4 it   8 1.00000000   0.569E-05       0.001       32.256   0.100E-07
     TRS4 it   9 1.00000000   0.126E-09       0.001       32.256   0.100E-07
     Final TRS4 iteration    9 1.00000000   0.126E-09
     Chemical potential (mu):      -0.04430
 
 PAO| energy:  -7.6348985023423408      penalty:   3.7138963035511721E-007
 PAO|LS| adapt:  T T F
 PAO|LS| adapt: scan_steps:    0.0000000000000000       0.20000000000000001        0.0000000000000000     
 PAO|LS| adapt: energies:   -7.5354201442896676       -7.6348985023423408        0.0000000000000000     
 PAO| ======================= Iteration:         4 =============================

     Lanczos converged:  T threshold:   0.100E-02
     Est. extremal eigenvalues:    0.284E+01   0.161E+00
     Est. condition number :    0.176E+02

 Order=           3
     NS sqrt iter    1 1.00000000   0.711E+00       0.001       58.702
     NS sqrt iter    2 1.00000000   0.347E+00       0.001       96.489
     NS sqrt iter    3 1.00000000   0.924E-01       0.001       97.696
     NS sqrt iter    4 1.00000000   0.335E-02       0.001       97.503
     NS sqrt iter    5 1.00000000   0.324E-06       0.001       71.879
     Symmetrizing Results
     Final NS sqrt iter    5 1.00000000   0.103E-08

     Est. extremal eigenvalues     -0.90836     1.63120  converged:  T
     TRS4 it   1 1.00000000   0.867E+00       0.000       16.128   0.100E-07
     TRS4 it   2 1.00000000   0.612E+00       0.017        1.925   0.100E-07
     TRS4 it   3 1.00000000   0.421E+00       0.001       32.256   0.100E-07
     TRS4 it   4 1.00000000   0.224E+00       0.001       32.256   0.100E-07
     TRS4 it   5 1.00000000   0.785E-01       0.001       32.256   0.100E-07
     TRS4 it   6 1.00000000   0.113E-01       0.001       32.256   0.100E-07
     TRS4 it   7 1.00000000   0.293E-03       0.001       32.256   0.100E-07
     TRS4 it   8 1.00000000   0.267E-06       0.001       32.256   0.100E-07
     TRS4 it   9 1.00000000   0.284E-12       0.001       32.256   0.100E-07
     Final TRS4 iteration    9 1.00000000   0.284E-12
     Chemical potential (mu):      -0.01643
 
 PAO| energy:  -7.6810004237317591      penalty:   5.9422341490056952E-006
 PAO|LS| Need extra step
 PAO|LS| adapt:  T T F
 PAO|LS| adapt: scan_steps:    0.0000000000000000       0.40000000000000002        0.0000000000000000     
 PAO|LS| adapt: energies:   -7.5354201442896676       -7.6810004237317591        0.0000000000000000     
 PAO| ======================= Iteration:         5 =============================

     Lanczos converged:  T threshold:   0.100E-02
     Est. extremal eigenvalues:    0.254E+01   0.188E+00
     Est. condition number :    0.135E+02

 Order=           3
     NS sqrt iter    1 1.00000000   0.659E+00       0.001       57.897
     NS sqrt iter    2 1.00000000   0.290E+00       0.001       97.222
     NS sqrt iter    3 1.00000000   0.567E-01       0.001       97.436
     NS sqrt iter    4 1.00000000   0.942E-03       0.001       98.515
     NS sqrt iter    5 1.00000000   0.778E-08       0.001       39.758
     Symmetrizing Results
     Final NS sqrt iter    5 1.00000000   0.528E-08

     Est. extremal eigenvalues     -0.90932     1.58978  converged:  T
     TRS4 it   1 1.00000000   0.871E+00       0.000       16.128   0.100E-07
     TRS4 it   2 1.00000000   0.582E+00       0.001       32.256   0.100E-07
     TRS4 it   3 1.00000000   0.374E+00       0.001       32.256   0.100E-07
     TRS4 it   4 1.00000000   0.168E+00       0.001       32.256   0.100E-07
     TRS4 it   5 1.00000000   0.410E-01       0.013        2.532   0.100E-07
     TRS4 it   6 1.00000000   0.279E-02       0.001       32.256   0.100E-07
     TRS4 it   7 1.00000000   0.156E-04       0.001       32.256   0.100E-07
     TRS4 it   8 1.00000000   0.689E-09       0.001       32.256   0.100E-07
     Final TRS4 iteration    8 1.00000000   0.689E-09
     Chemical potential (mu):       0.03034
 
 PAO| energy:  -7.6187053503773390      penalty:   9.5075746890682487E-005
 PAO|LS| Need extra step
 PAO|LS| adapt:  T T T
 PAO|LS| adapt: scan_steps:    0.0000000000000000       0.40000000000000002       0.80000000000000004     
 PAO|LS| adapt: energies:   -7.5354201442896676       -7.6810004237317591       -7.6187053503773390     
 PAO|LS| adapt: suggested step_size:   0.48012994803592612     
 PAO|LS| adapt: predicted energy  -7.6851714482542377     
 PAO| ======================= Iteration:         6 =============================

     Lanczos converged:  T threshold:   0.100E-02
     Est. extremal eigenvalues:    0.277E+01   0.168E+00
     Est. condition number :    0.166E+02

 Order=           3
     NS sqrt iter    1 1.00000000   0.700E+00       0.001       58.369
     NS sqrt iter    2 1.00000000   0.335E+00       0.001       97.568
     NS sqrt iter    3 1.00000000   0.835E-01       0.001       97.031
     NS sqrt iter    4 1.00000000   0.256E-02       0.001       97.430
     NS sqrt iter    5 1.00000000   0.155E-06       0.001       68.991
     Symmetrizing Results
     Final NS sqrt iter    5 1.00000000   0.885E-09

     Est. extremal eigenvalues     -0.90960     1.61869  converged:  T
     TRS4 it   1 1.00000000   0.867E+00       0.000       16.128   0.100E-07
     TRS4 it   2 1.00000000   0.604E+00       0.001       32.256   0.100E-07
     TRS4 it   3 1.00000000   0.410E+00       0.017        1.929   0.100E-07
     TRS4 it   4 1.00000000   0.210E+00       0.001       32.256   0.100E-07
     TRS4 it   5 1.00000000   0.683E-01       0.001       32.256   0.100E-07
     TRS4 it   6 1.00000000   0.838E-02       0.001       32.256   0.100E-07
     TRS4 it   7 1.00000000   0.154E-03       0.001       32.256   0.100E-07
     TRS4 it   8 1.00000000   0.713E-07       0.001       32.256   0.100E-07
     Final TRS4 iteration    8 1.00000000   0.713E-07
     Chemical potential (mu):      -0.00390
 
 PAO| energy:  -7.6844676057221140      penalty:   1.2335165471869979E-005
 PAO|CG| warming up with steepest descent
 PAO|CG| beta:    0.0000000000000000     
 PAO| norm of gradient:  0.41585675890267404     
 PAO| energy improvement: -0.14904746143244640     
 PAO| step      6                   -7.684467606  0.260E-01  0.480E+00     0.169
 PAO|LS| adapt:  T F F
 PAO|LS| adapt: scan_steps:    0.0000000000000000        0.0000000000000000        0.0000000000000000     
 PAO|LS| adapt: energies:   -7.6844676057221140        0.0000000000000000        0.0000000000000000     
 PAO| ======================= Iteration:         7 =============================

     Lanczos converged:  T threshold:   0.100E-02
     Est. extremal eigenvalues:    0.270E+01   0.183E+00
     Est. condition number :    0.148E+02

 Order=           3
     NS sqrt iter    1 1.00000000   0.686E+00       0.001       57.761
     NS sqrt iter    2 1.00000000   0.315E+00       0.001      100.275
     NS sqrt iter    3 1.00000000   0.694E-01       0.001       97.475
     NS sqrt iter    4 1.00000000   0.152E-02       0.025        4.391
     NS sqrt iter    5 1.00000000   0.352E-07       0.001       55.431
     Symmetrizing Results
     Final NS sqrt iter    5 1.00000000   0.318E-08

     Est. extremal eigenvalues     -0.91127     1.61255  converged:  T
     TRS4 it   1 1.00000000   0.868E+00       0.000       16.128   0.100E-07
     TRS4 it   2 1.00000000   0.604E+00       0.001       32.256   0.100E-07
     TRS4 it   3 1.00000000   0.411E+00       0.001       32.256   0.100E-07
     TRS4 it   4 1.00000000   0.212E+00       0.001       32.256   0.100E-07
     TRS4 it   5 1.00000000   0.694E-01       0.001       32.256   0.100E-07
     TRS4 it   6 1.00000000   0.854E-02       0.001       32.256   0.100E-07
     TRS4 it   7 1.00000000   0.156E-03       0.001       32.256   0.100E-07
     TRS4 it   8 1.00000000   0.710E-07       0.001       32.256   0.100E-07
     Final TRS4 iteration    8 1.00000000   0.710E-07
     Chemical potential (mu):      -0.00433
 
 PAO| energy:  -7.6816004785981988      penalty:   1.8483192397377275E-005
 PAO|LS| adapt:  T F T
 PAO|LS| adapt: scan_steps:    0.0000000000000000        0.0000000000000000       0.48012994803592612     
 PAO|LS| adapt: energies:   -7.6844676057221140        0.0000000000000000       -7.6816004785981988     
 PAO| ======================= Iteration:         8 =============================

     Lanczos converged:  T threshold:   0.100E-02
     Est. extremal eigenvalues:    0.274E+01   0.175E+00
     Est. condition number :    0.156E+02

 Order=           3
     NS sqrt iter    1 1.00000000   0.693E+00       0.001       57.833
     NS sqrt iter    2 1.00000000   0.325E+00       0.001       97.788
     NS sqrt iter    3 1.00000000   0.763E-01       0.017        6.433
     NS sqrt iter    4 1.00000000   0.198E-02       0.001       98.217
     NS sqrt iter    5 1.00000000   0.756E-07       0.001       64.660
     Symmetrizing Results
     Final NS sqrt iter    5 1.00000000   0.485E-09

     Est. extremal eigenvalues     -0.91123     1.61511  converged:  T
     TRS4 it   1 1.00000000   0.867E+00       0.000       16.128   0.100E-07
     TRS4 it   2 1.00000000   0.604E+00       0.001       32.256   0.100E-07
     TRS4 it   3 1.00000000   0.410E+00       0.001       32.256   0.100E-07
     TRS4 it   4 1.00000000   0.211E+00       0.001       32.256   0.100E-07
     TRS4 it   5 1.00000000   0.688E-01       0.001       32.256   0.100E-07
     TRS4 it   6 1.00000000   0.856E-02       0.001       32.256   0.100E-07
     TRS4 it   7 1.00000000   0.160E-03       0.001       32.256   0.100E-07
     TRS4 it   8 1.00000000   0.767E-07       0.001       32.256   0.100E-07
     Final TRS4 iteration    8 1.00000000   0.767E-07
     Chemical potential (mu):      -0.00460
 
 PAO| energy:  -7.7043074279207193      penalty:   1.3354360335807287E-005
 PAO|LS| adapt:  T T T
 PAO|LS| adapt: scan_steps:    0.0000000000000000       0.24006497401796306       0.48012994803592612     
 PAO|LS| adapt: energies:   -7.6844676057221140       -7.7043074279207193       -7.6816004785981988     
 PAO|LS| adapt: suggested step_size:   0.23197626629818788     
 PAO|LS| adapt: predicted energy  -7.7043315790420932     
 PAO| ======================= Iteration:         9 =============================

     Lanczos converged:  T threshold:   0.100E-02
     Est. extremal eigenvalues:    0.274E+01   0.175E+00
     Est. condition number :    0.157E+02

 Order=           3
     NS sqrt iter    1 1.00000000   0.693E+00       0.001       57.932
     NS sqrt iter    2 1.00000000   0.326E+00       0.017        6.422
     NS sqrt iter    3 1.00000000   0.765E-01       0.001       99.502
     NS sqrt iter    4 1.00000000   0.200E-02       0.001       99.051
     NS sqrt iter    5 1.00000000   0.775E-07       0.001       64.249
     Symmetrizing Results
     Final NS sqrt iter    5 1.00000000   0.431E-09

     Est. extremal eigenvalues     -0.91121     1.61521  converged:  T
     TRS4 it   1 1.00000000   0.867E+00       0.000       16.128   0.100E-07
     TRS4 it   2 1.00000000   0.604E+00       0.001       32.256   0.100E-07
     TRS4 it   3 1.00000000   0.410E+00       0.001       32.256   0.100E-07
     TRS4 it   4 1.00000000   0.211E+00       0.001       32.256   0.100E-07
     TRS4 it   5 1.00000000   0.688E-01       0.001       32.256   0.100E-07
     TRS4 it   6 1.00000000   0.856E-02       0.001       32.256   0.100E-07
     TRS4 it   7 1.00000000   0.160E-03       0.001       32.256   0.100E-07
     TRS4 it   8 1.00000000   0.767E-07       0.001       32.256   0.100E-07
     Final TRS4 iteration    8 1.00000000   0.767E-07
     Chemical potential (mu):      -0.00460
 
 PAO| energy:  -7.7043424897181616      penalty:   1.3270903324867068E-005
 PAO|CG| trace_G_new    3.8069671196553564E-002
 PAO|CG| trace_G_prev   0.17293684392503678     
 PAO|CG| trace_G_mix   -1.3288910283700602E-003
 PAO|CG| trace_D   0.17293684392503678     
 PAO|CG| trace_D_Gnew   1.3288910283700602E-003
 PAO|CG| beta:   0.22782052297659477     
 PAO| norm of gradient:  0.19511450790895474     
 PAO| energy improvement:  -1.9874883996047643E-002
 PAO| step      9                   -7.704342490  0.122E-01  0.232E+00     0.113
 PAO|LS| adapt:  T F F
 PAO|LS| adapt: scan_steps:    0.0000000000000000        0.0000000000000000        0.0000000000000000     
 PAO|LS| adapt: energies:   -7.7043424897181616        0.0000000000000000        0.0000000000000000     
 PAO| ======================= Iteration:        10 =============================

     Lanczos converged:  T threshold:   0.100E-02
     Est. extremal eigenvalues:    0.271E+01   0.180E+00
     Est. condition number :    0.150E+02

 Order=           3
     NS sqrt iter    1 1.00000000   0.686E+00       0.001       58.861
     NS sqrt iter    2 1.00000000   0.317E+00       0.001       98.194
     NS sqrt iter    3 1.00000000   0.713E-01       0.001       99.556
     NS sqrt iter    4 1.00000000   0.164E-02       0.001      100.792
     NS sqrt iter    5 1.00000000   0.435E-07       0.001       58.277
     Symmetrizing Results
     Final NS sqrt iter    5 1.00000000   0.488E-09

     Est. extremal eigenvalues     -0.91210     1.61850  converged:  T
     TRS4 it   1 1.00000000   0.868E+00       0.000       16.128   0.100E-07
     TRS4 it   2 1.00000000   0.604E+00       0.001       32.256   0.100E-07
     TRS4 it   3 1.00000000   0.409E+00       0.001       32.256   0.100E-07
     TRS4 it   4 1.00000000   0.209E+00       0.001       32.256   0.100E-07
     TRS4 it   5 1.00000000   0.676E-01       0.001       32.256   0.100E-07
     TRS4 it   6 1.00000000   0.822E-02       0.001       32.256   0.100E-07
     TRS4 it   7 1.00000000   0.146E-03       0.001       32.256   0.100E-07
     TRS4 it   8 1.00000000   0.625E-07       0.001       32.256   0.100E-07
     Final TRS4 iteration    8 1.00000000   0.625E-07
     Chemical potential (mu):      -0.00225
 
 PAO| energy:  -7.7094707596476502      penalty:   1.3848621878740344E-005
 PAO|LS| adapt:  T T F
 PAO|LS| adapt: scan_steps:    0.0000000000000000       0.23197626629818788        0.0000000000000000     
 PAO|LS| adapt: energies:   -7.7043424897181616       -7.7094707596476502        0.0000000000000000     
 PAO| ======================= Iteration:        11 =============================

     Lanczos converged:  T threshold:   0.100E-02
     Est. extremal eigenvalues:    0.267E+01   0.186E+00
     Est. condition number :    0.144E+02

 Order=           3
     NS sqrt iter    1 1.00000000   0.679E+00       0.001       57.666
     NS sqrt iter    2 1.00000000   0.309E+00       0.001       98.605
     NS sqrt iter    3 1.00000000   0.663E-01       0.001       99.433
     NS sqrt iter    4 1.00000000   0.133E-02       0.001       97.726
     NS sqrt iter    5 1.00000000   0.234E-07       0.001       48.324
     Symmetrizing Results
     Final NS sqrt iter    5 1.00000000   0.441E-08

     Est. extremal eigenvalues     -0.91177     1.62313  converged:  T
     TRS4 it   1 1.00000000   0.870E+00       0.000       16.128   0.100E-07
     TRS4 it   2 1.00000000   0.605E+00       0.001       32.256   0.100E-07
     TRS4 it   3 1.00000000   0.409E+00       0.001       32.256   0.100E-07
     TRS4 it   4 1.00000000   0.208E+00       0.001       32.256   0.100E-07
     TRS4 it   5 1.00000000   0.665E-01       0.001       32.256   0.100E-07
     TRS4 it   6 1.00000000   0.789E-02       0.001       32.256   0.100E-07
     TRS4 it   7 1.00000000   0.133E-03       0.001       32.256   0.100E-07
     TRS4 it   8 1.00000000   0.509E-07       0.001       32.256   0.100E-07
     Final TRS4 iteration    8 1.00000000   0.509E-07
     Chemical potential (mu):       0.00016
 
 PAO| energy:  -7.7076095802679649      penalty:   1.5126070262296722E-005
 PAO|LS| adapt:  T T T
 PAO|LS| adapt: scan_steps:    0.0000000000000000       0.23197626629818788       0.46395253259637576     
 PAO|LS| adapt: energies:   -7.7043424897181616       -7.7094707596476502       -7.7076095802679649     
 PAO|LS| adapt: suggested step_size:   0.28619280281464365     
 PAO|LS| adapt: predicted energy  -7.7096616523809054     
 PAO| ======================= Iteration:        12 =============================

     Lanczos converged:  T threshold:   0.100E-02
     Est. extremal eigenvalues:    0.270E+01   0.182E+00
     Est. condition number :    0.149E+02

 Order=           3
     NS sqrt iter    1 1.00000000   0.685E+00       0.001       58.853
     NS sqrt iter    2 1.00000000   0.316E+00       0.001       95.657
     NS sqrt iter    3 1.00000000   0.701E-01       0.001       97.801
     NS sqrt iter    4 1.00000000   0.156E-02       0.001       98.069
     NS sqrt iter    5 1.00000000   0.378E-07       0.001       55.165
     Symmetrizing Results
     Final NS sqrt iter    5 1.00000000   0.225E-08

     Est. extremal eigenvalues     -0.91213     1.61947  converged:  T
     TRS4 it   1 1.00000000   0.869E+00       0.000       16.128   0.100E-07
     TRS4 it   2 1.00000000   0.604E+00       0.001       32.256   0.100E-07
     TRS4 it   3 1.00000000   0.409E+00       0.001       32.256   0.100E-07
     TRS4 it   4 1.00000000   0.209E+00       0.001       32.256   0.100E-07
     TRS4 it   5 1.00000000   0.673E-01       0.001       32.256   0.100E-07
     TRS4 it   6 1.00000000   0.814E-02       0.001       32.256   0.100E-07
     TRS4 it   7 1.00000000   0.143E-03       0.001       32.256   0.100E-07
     TRS4 it   8 1.00000000   0.596E-07       0.001       32.256   0.100E-07
     Final TRS4 iteration    8 1.00000000   0.596E-07
     Chemical potential (mu):      -0.00169
 
 PAO| energy:  -7.7096460486740979      penalty:   1.4077163302432502E-005
 PAO|CG| trace_G_new    1.2377709377999122E-002
 PAO|CG| trace_G_prev    3.8069671196553564E-002
 PAO|CG| trace_G_mix   -5.4560282948197254E-004
 PAO|CG| trace_D    4.6439974949037240E-002
 PAO|CG| trace_D_Gnew   2.5559312773205793E-004
 PAO|CG| beta:   0.33946477080818699     
 PAO| norm of gradient:  0.11125515438845573     
 PAO| energy improvement:  -5.3035589559362606E-003
 PAO| step     12                   -7.709646049  0.695E-02  0.286E+00     0.056
 PAO|LS| adapt:  T F F
 PAO|LS| adapt: scan_steps:    0.0000000000000000        0.0000000000000000        0.0000000000000000     
 PAO|LS| adapt: energies:   -7.7096460486740979        0.0000000000000000        0.0000000000000000     
 PAO| ======================= Iteration:        13 =============================

     Lanczos converged:  T threshold:   0.100E-02
     Est. extremal eigenvalues:    0.267E+01   0.186E+00
     Est. condition number :    0.144E+02

 Order=           3
     NS sqrt iter    1 1.00000000   0.678E+00       0.001       58.162
     NS sqrt iter    2 1.00000000   0.309E+00       0.001       98.403
     NS sqrt iter    3 1.00000000   0.662E-01       0.001       98.127
     NS sqrt iter    4 1.00000000   0.133E-02       0.001       97.197
     NS sqrt iter    5 1.00000000   0.233E-07       0.001       48.460
     Symmetrizing Results
     Final NS sqrt iter    5 1.00000000   0.441E-08

     Est. extremal eigenvalues     -0.91266     1.61714  converged:  T
     TRS4 it   1 1.00000000   0.869E+00       0.000       16.128   0.100E-07
     TRS4 it   2 1.00000000   0.602E+00       0.001       32.256   0.100E-07
     TRS4 it   3 1.00000000   0.406E+00       0.001       32.256   0.100E-07
     TRS4 it   4 1.00000000   0.205E+00       0.001       32.256   0.100E-07
     TRS4 it   5 1.00000000   0.642E-01       0.001       32.256   0.100E-07
     TRS4 it   6 1.00000000   0.735E-02       0.001       32.256   0.100E-07
     TRS4 it   7 1.00000000   0.115E-03       0.001       32.256   0.100E-07
     TRS4 it   8 1.00000000   0.381E-07       0.001       32.256   0.100E-07
     Final TRS4 iteration    8 1.00000000   0.381E-07
     Chemical potential (mu):       0.00209
 
 PAO| energy:  -7.7117746331889769      penalty:   1.4407223644301067E-005
 PAO|LS| adapt:  T T F
 PAO|LS| adapt: scan_steps:    0.0000000000000000       0.28619280281464365        0.0000000000000000     
 PAO|LS| adapt: energies:   -7.7096460486740979       -7.7117746331889769        0.0000000000000000     
 PAO| ======================= Iteration:        14 =============================

     Lanczos converged:  T threshold:   0.100E-02
     Est. extremal eigenvalues:    0.264E+01   0.190E+00
     Est. condition number :    0.139E+02

 Order=           3
     NS sqrt iter    1 1.00000000   0.672E+00       0.001       58.341
     NS sqrt iter    2 1.00000000   0.302E+00       0.001       97.757
     NS sqrt iter    3 1.00000000   0.624E-01       0.001       98.830
     NS sqrt iter    4 1.00000000   0.113E-02       0.001      100.461
     NS sqrt iter    5 1.00000000   0.141E-07       0.001       42.902
     Symmetrizing Results
     Final NS sqrt iter    5 1.00000000   0.313E-08

     Est. extremal eigenvalues     -0.91261     1.61503  converged:  T
     TRS4 it   1 1.00000000   0.870E+00       0.000       16.128   0.100E-07
     TRS4 it   2 1.00000000   0.600E+00       0.001       32.256   0.100E-07
     TRS4 it   3 1.00000000   0.403E+00       0.001       32.256   0.100E-07
     TRS4 it   4 1.00000000   0.200E+00       0.001       32.256   0.100E-07
     TRS4 it   5 1.00000000   0.612E-01       0.001       32.256   0.100E-07
     TRS4 it   6 1.00000000   0.664E-02       0.001       32.256   0.100E-07
     TRS4 it   7 1.00000000   0.927E-04       0.001       32.256   0.100E-07
     TRS4 it   8 1.00000000   0.245E-07       0.001       32.256   0.100E-07
     Final TRS4 iteration    8 1.00000000   0.245E-07
     Chemical potential (mu):       0.00573
 
 PAO| energy:  -7.7111762621370090      penalty:   1.5208584907317564E-005
 PAO|LS| adapt:  T T T
 PAO|LS| adapt: scan_steps:    0.0000000000000000       0.28619280281464365       0.57238560562928731     
 PAO|LS| adapt: energies:   -7.7096460486740979       -7.7117746331889769       -7.7111762621370090     
 PAO|LS| adapt: suggested step_size:   0.36649042210471594     
 PAO|LS| adapt: predicted energy  -7.7118819668613030     
 PAO| ======================= Iteration:        15 =============================

     Lanczos converged:  T threshold:   0.100E-02
     Est. extremal eigenvalues:    0.266E+01   0.187E+00
     Est. condition number :    0.142E+02

 Order=           3
     NS sqrt iter    1 1.00000000   0.676E+00       0.001       58.447
     NS sqrt iter    2 1.00000000   0.307E+00       0.001       98.132
     NS sqrt iter    3 1.00000000   0.651E-01       0.001       97.998
     NS sqrt iter    4 1.00000000   0.127E-02       0.001       98.452
     NS sqrt iter    5 1.00000000   0.201E-07       0.001       44.681
     Symmetrizing Results
     Final NS sqrt iter    5 1.00000000   0.624E-08

     Est. extremal eigenvalues     -0.91271     1.61653  converged:  T
     TRS4 it   1 1.00000000   0.869E+00       0.000       16.128   0.100E-07
     TRS4 it   2 1.00000000   0.602E+00       0.001       32.256   0.100E-07
     TRS4 it   3 1.00000000   0.405E+00       0.001       32.256   0.100E-07
     TRS4 it   4 1.00000000   0.204E+00       0.001       32.256   0.100E-07
     TRS4 it   5 1.00000000   0.633E-01       0.001       32.256   0.100E-07
     TRS4 it   6 1.00000000   0.714E-02       0.001       32.256   0.100E-07
     TRS4 it   7 1.00000000   0.108E-03       0.001       32.256   0.100E-07
     TRS4 it   8 1.00000000   0.336E-07       0.001       32.256   0.100E-07
     Final TRS4 iteration    8 1.00000000   0.336E-07
     Chemical potential (mu):       0.00312
 
 PAO| energy:  -7.7118786562827539      penalty:   1.4581144759401833E-005
 PAO|CG| trace_G_new    2.5352451485646877E-003
 PAO|CG| trace_G_prev    1.2377709377999122E-002
 PAO|CG| trace_G_mix    9.7038528628961719E-005
 PAO|CG| trace_D    1.7555751960152740E-002
 PAO|CG| trace_D_Gnew   3.4454891756512017E-005
 PAO|CG| beta:   0.19698367003749012     
 PAO| norm of gradient:   5.0351217945196598E-002
 PAO| energy improvement:  -2.2326076086560676E-003
 PAO| step     15                   -7.711878656  0.315E-02  0.366E+00     0.056
 PAO|LS| adapt:  T F F
 PAO|LS| adapt: scan_steps:    0.0000000000000000        0.0000000000000000        0.0000000000000000     
 PAO|LS| adapt: energies:   -7.7118786562827539        0.0000000000000000        0.0000000000000000     
 PAO| ======================= Iteration:        16 =============================

     Lanczos converged:  T threshold:   0.100E-02
     Est. extremal eigenvalues:    0.265E+01   0.188E+00
     Est. condition number :    0.141E+02

 Order=           3
     NS sqrt iter    1 1.00000000   0.675E+00       0.001       57.701
     NS sqrt iter    2 1.00000000   0.306E+00       0.001       97.731
     NS sqrt iter    3 1.00000000   0.645E-01       0.001       97.902
     NS sqrt iter    4 1.00000000   0.123E-02       0.001       97.931
     NS sqrt iter    5 1.00000000   0.181E-07       0.001       44.729
     Symmetrizing Results
     Final NS sqrt iter    5 1.00000000   0.584E-08

     Est. extremal eigenvalues     -0.91273     1.61596  converged:  T
     TRS4 it   1 1.00000000   0.870E+00       0.000       16.128   0.100E-07
     TRS4 it   2 1.00000000   0.601E+00       0.001       32.256   0.100E-07
     TRS4 it   3 1.00000000   0.404E+00       0.001       32.256   0.100E-07
     TRS4 it   4 1.00000000   0.202E+00       0.001       32.256   0.100E-07
     TRS4 it   5 1.00000000   0.623E-01       0.001       32.256   0.100E-07
     TRS4 it   6 1.00000000   0.691E-02       0.001       32.256   0.100E-07
     TRS4 it   7 1.00000000   0.102E-03       0.001       32.256   0.100E-07
     TRS4 it   8 1.00000000   0.303E-07       0.001       32.256   0.100E-07
     Final TRS4 iteration    8 1.00000000   0.303E-07
     Chemical potential (mu):       0.00391
 
 PAO| energy:  -7.7120179428319631      penalty:   1.4372627700316242E-005
 PAO|LS| adapt:  T T F
 PAO|LS| adapt: scan_steps:    0.0000000000000000       0.36649042210471594        0.0000000000000000     
 PAO|LS| adapt: energies:   -7.7118786562827539       -7.7120179428319631        0.0000000000000000     
 PAO| ======================= Iteration:        17 =============================

     Lanczos converged:  T threshold:   0.100E-02
     Est. extremal eigenvalues:    0.265E+01   0.188E+00
     Est. condition number :    0.141E+02

 Order=           3
     NS sqrt iter    1 1.00000000   0.673E+00       0.001       58.901
     NS sqrt iter    2 1.00000000   0.305E+00       0.001       95.749
     NS sqrt iter    3 1.00000000   0.640E-01       0.001       97.044
     NS sqrt iter    4 1.00000000   0.120E-02       0.001       97.737
     NS sqrt iter    5 1.00000000   0.165E-07       0.001       42.184
     Symmetrizing Results
     Final NS sqrt iter    5 1.00000000   0.461E-08

     Est. extremal eigenvalues     -0.91263     1.61547  converged:  T
     TRS4 it   1 1.00000000   0.870E+00       0.016        0.980   0.100E-07
     TRS4 it   2 1.00000000   0.600E+00       0.001       32.256   0.100E-07
     TRS4 it   3 1.00000000   0.403E+00       0.001       32.256   0.100E-07
     TRS4 it   4 1.00000000   0.200E+00       0.001       32.256   0.100E-07
     TRS4 it   5 1.00000000   0.612E-01       0.001       32.256   0.100E-07
     TRS4 it   6 1.00000000   0.669E-02       0.001       32.256   0.100E-07
     TRS4 it   7 1.00000000   0.963E-04       0.001       32.256   0.100E-07
     TRS4 it   8 1.00000000   0.273E-07       0.001       32.256   0.100E-07
     Final TRS4 iteration    8 1.00000000   0.273E-07
     Chemical potential (mu):       0.00469
 
 PAO| energy:  -7.7105769510662290      penalty:   1.4274572249372284E-005
 PAO|LS| adapt:  T T T
 PAO|LS| adapt: scan_steps:    0.0000000000000000       0.36649042210471594       0.73298084420943188     
 PAO|LS| adapt: energies:   -7.7118786562827539       -7.7120179428319631       -7.7105769510662290     
 PAO|LS| adapt: suggested step_size:   0.21554786668615405     
 PAO|LS| adapt: predicted energy  -7.7121519727410233     
 PAO| ======================= Iteration:        18 =============================

     Lanczos converged:  T threshold:   0.100E-02
     Est. extremal eigenvalues:    0.266E+01   0.187E+00
     Est. condition number :    0.142E+02

 Order=           3
     NS sqrt iter    1 1.00000000   0.676E+00       0.001       55.739
     NS sqrt iter    2 1.00000000   0.306E+00       0.001       98.576
     NS sqrt iter    3 1.00000000   0.648E-01       0.001       98.373
     NS sqrt iter    4 1.00000000   0.125E-02       0.001       97.937
     NS sqrt iter    5 1.00000000   0.188E-07       0.001       44.649
     Symmetrizing Results
     Final NS sqrt iter    5 1.00000000   0.602E-08

     Est. extremal eigenvalues     -0.91274     1.61618  converged:  T
     TRS4 it   1 1.00000000   0.870E+00       0.000       16.128   0.100E-07
     TRS4 it   2 1.00000000   0.601E+00       0.001       32.256   0.100E-07
     TRS4 it   3 1.00000000   0.404E+00       0.001       32.256   0.100E-07
     TRS4 it   4 1.00000000   0.203E+00       0.001       32.256   0.100E-07
     TRS4 it   5 1.00000000   0.627E-01       0.001       32.256   0.100E-07
     TRS4 it   6 1.00000000   0.700E-02       0.001       32.256   0.100E-07
     TRS4 it   7 1.00000000   0.105E-03       0.001       32.256   0.100E-07
     TRS4 it   8 1.00000000   0.316E-07       0.001       32.256   0.100E-07
     Final TRS4 iteration    8 1.00000000   0.316E-07
     Chemical potential (mu):       0.00359
 
 PAO| energy:  -7.7121515202025384      penalty:   1.4445365375900511E-005
 PAO|CG| trace_G_new    7.4853561161925951E-004
 PAO|CG| trace_G_prev    2.5352451485646877E-003
 PAO|CG| trace_G_mix    1.7377952288426802E-006
 PAO|CG| trace_D    3.2028792752100141E-003
 PAO|CG| trace_D_Gnew  -1.8616064155089636E-006
 PAO|CG| beta:   0.29456631316825971     
 PAO| norm of gradient:   2.7359378860260325E-002
 PAO| energy improvement:  -2.7286391978442737E-004
 PAO| step     18                   -7.712151520  0.171E-02  0.216E+00     0.089
 PAO|LS| adapt:  T F F
 PAO|LS| adapt: scan_steps:    0.0000000000000000        0.0000000000000000        0.0000000000000000     
 PAO|LS| adapt: energies:   -7.7121515202025384        0.0000000000000000        0.0000000000000000     
 PAO| ======================= Iteration:        19 =============================

     Lanczos converged:  T threshold:   0.100E-02
     Est. extremal eigenvalues:    0.266E+01   0.187E+00
     Est. condition number :    0.142E+02

 Order=           3
     NS sqrt iter    1 1.00000000   0.675E+00       0.001       58.345
     NS sqrt iter    2 1.00000000   0.306E+00       0.001       96.605
     NS sqrt iter    3 1.00000000   0.650E-01       0.001       97.899
     NS sqrt iter    4 1.00000000   0.125E-02       0.001       98.560
     NS sqrt iter    5 1.00000000   0.190E-07       0.001       44.793
     Symmetrizing Results
     Final NS sqrt iter    5 1.00000000   0.608E-08

     Est. extremal eigenvalues     -0.91274     1.61654  converged:  T
     TRS4 it   1 1.00000000   0.870E+00       0.000       16.128   0.100E-07
     TRS4 it   2 1.00000000   0.601E+00       0.017        1.925   0.100E-07
     TRS4 it   3 1.00000000   0.404E+00       0.001       32.256   0.100E-07
     TRS4 it   4 1.00000000   0.202E+00       0.001       32.256   0.100E-07
     TRS4 it   5 1.00000000   0.626E-01       0.001       32.256   0.100E-07
     TRS4 it   6 1.00000000   0.700E-02       0.001       32.256   0.100E-07
     TRS4 it   7 1.00000000   0.105E-03       0.001       32.256   0.100E-07
     TRS4 it   8 1.00000000   0.322E-07       0.001       32.256   0.100E-07
     Final TRS4 iteration    8 1.00000000   0.322E-07
     Chemical potential (mu):       0.00343
 
 PAO| energy:  -7.7122727953773138      penalty:   1.4163348400162039E-005
 PAO|LS| adapt:  T T F
 PAO|LS| adapt: scan_steps:    0.0000000000000000       0.21554786668615405        0.0000000000000000     
 PAO|LS| adapt: energies:   -7.7121515202025384       -7.7122727953773138        0.0000000000000000     
 PAO| ======================= Iteration:        20 =============================

     Lanczos converged:  T threshold:   0.100E-02
     Est. extremal eigenvalues:    0.266E+01   0.187E+00
     Est. condition number :    0.142E+02

 Order=           3
     NS sqrt iter    1 1.00000000   0.675E+00       0.001       57.489
     NS sqrt iter    2 1.00000000   0.307E+00       0.001       98.920
     NS sqrt iter    3 1.00000000   0.652E-01       0.001       98.872
     NS sqrt iter    4 1.00000000   0.126E-02       0.001      101.113
     NS sqrt iter    5 1.00000000   0.192E-07       0.001       44.245
     Symmetrizing Results
     Final NS sqrt iter    5 1.00000000   0.615E-08

     Est. extremal eigenvalues     -0.91274     1.61690  converged:  T
     TRS4 it   1 1.00000000   0.870E+00       0.000       16.128   0.100E-07
     TRS4 it   2 1.00000000   0.601E+00       0.001       32.256   0.100E-07
     TRS4 it   3 1.00000000   0.404E+00       0.001       32.256   0.100E-07
     TRS4 it   4 1.00000000   0.202E+00       0.001       32.256   0.100E-07
     TRS4 it   5 1.00000000   0.626E-01       0.001       32.256   0.100E-07
     TRS4 it   6 1.00000000   0.700E-02       0.001       32.256   0.100E-07
     TRS4 it   7 1.00000000   0.106E-03       0.001       32.256   0.100E-07
     TRS4 it   8 1.00000000   0.328E-07       0.001       32.256   0.100E-07
     Final TRS4 iteration    8 1.00000000   0.328E-07
     Chemical potential (mu):       0.00328
 
 PAO| energy:  -7.7123132504827616      penalty:   1.3894108454784517E-005
 PAO|LS| adapt:  T T F
 PAO|LS| adapt: scan_steps:    0.0000000000000000       0.43109573337230811        0.0000000000000000     
 PAO|LS| adapt: energies:   -7.7121515202025384       -7.7123132504827616        0.0000000000000000     
 PAO| ======================= Iteration:        21 =============================

     Lanczos converged:  T threshold:   0.100E-02
     Est. extremal eigenvalues:    0.266E+01   0.187E+00
     Est. condition number :    0.142E+02

 Order=           3
     NS sqrt iter    1 1.00000000   0.675E+00       0.001       58.217
     NS sqrt iter    2 1.00000000   0.307E+00       0.001       97.762
     NS sqrt iter    3 1.00000000   0.656E-01       0.001       98.166
     NS sqrt iter    4 1.00000000   0.128E-02       0.001       94.327
     NS sqrt iter    5 1.00000000   0.197E-07       0.001       44.665
     Symmetrizing Results
     Final NS sqrt iter    5 1.00000000   0.667E-08

     Est. extremal eigenvalues     -0.91273     1.61763  converged:  T
     TRS4 it   1 1.00000000   0.870E+00       0.000       16.128   0.100E-07
     TRS4 it   2 1.00000000   0.601E+00       0.001       32.256   0.100E-07
     TRS4 it   3 1.00000000   0.404E+00       0.001       32.256   0.100E-07
     TRS4 it   4 1.00000000   0.202E+00       0.001       32.256   0.100E-07
     TRS4 it   5 1.00000000   0.624E-01       0.001       32.256   0.100E-07
     TRS4 it   6 1.00000000   0.701E-02       0.001       32.256   0.100E-07
     TRS4 it   7 1.00000000   0.107E-03       0.001       32.256   0.100E-07
     TRS4 it   8 1.00000000   0.340E-07       0.001       32.256   0.100E-07
     Final TRS4 iteration    8 1.00000000   0.340E-07
     Chemical potential (mu):       0.00295
 
 PAO| energy:  -7.7121490271053901      penalty:   1.3393422123994393E-005
 PAO|LS| Need extra step
 PAO|LS| adapt:  T T T
 PAO|LS| adapt: scan_steps:    0.0000000000000000       0.43109573337230811       0.86219146674461622     
 PAO|LS| adapt: energies:   -7.7121515202025384       -7.7123132504827616       -7.7121490271053901     
 PAO|LS| adapt: suggested step_size:   0.42944708866704906     
 PAO|LS| adapt: predicted energy  -7.7123132528663572     
 PAO| ======================= Iteration:        22 =============================

     Lanczos converged:  T threshold:   0.100E-02
     Est. extremal eigenvalues:    0.266E+01   0.187E+00
     Est. condition number :    0.142E+02

 Order=           3
     NS sqrt iter    1 1.00000000   0.675E+00       0.001       58.052
     NS sqrt iter    2 1.00000000   0.307E+00       0.001       98.845
     NS sqrt iter    3 1.00000000   0.652E-01       0.001       98.038
     NS sqrt iter    4 1.00000000   0.126E-02       0.001       97.449
     NS sqrt iter    5 1.00000000   0.192E-07       0.001       44.453
     Symmetrizing Results
     Final NS sqrt iter    5 1.00000000   0.615E-08

     Est. extremal eigenvalues     -0.91274     1.61689  converged:  T
     TRS4 it   1 1.00000000   0.870E+00       0.000       16.128   0.100E-07
     TRS4 it   2 1.00000000   0.601E+00       0.001       32.256   0.100E-07
     TRS4 it   3 1.00000000   0.404E+00       0.001       32.256   0.100E-07
     TRS4 it   4 1.00000000   0.202E+00       0.001       32.256   0.100E-07
     TRS4 it   5 1.00000000   0.626E-01       0.001       32.256   0.100E-07
     TRS4 it   6 1.00000000   0.700E-02       0.001       32.256   0.100E-07
     TRS4 it   7 1.00000000   0.106E-03       0.001       32.256   0.100E-07
     TRS4 it   8 1.00000000   0.328E-07       0.001       32.256   0.100E-07
     Final TRS4 iteration    8 1.00000000   0.328E-07
     Chemical potential (mu):       0.00328
 
 PAO| energy:  -7.7123132494579787      penalty:   1.3896119720542415E-005
 PAO|CG| trace_G_new    2.0967827365694672E-004
 PAO|CG| trace_G_prev    7.4853561161925951E-004
 PAO|CG| trace_G_mix    3.2597717962336052E-006
 PAO|CG| trace_D    1.0275439785588541E-003
 PAO|CG| trace_D_Gnew  -2.0713479913508157E-006
 PAO|CG| beta:   0.27576310152322758     
 PAO| norm of gradient:   1.4480271877867028E-002
 PAO| energy improvement:  -1.6172925544033490E-004
 PAO| step     22                   -7.712313249  0.905E-03  0.429E+00     0.134
 PAO|LS| adapt:  T F F
 PAO|LS| adapt: scan_steps:    0.0000000000000000        0.0000000000000000        0.0000000000000000     
 PAO|LS| adapt: energies:   -7.7123132494579787        0.0000000000000000        0.0000000000000000     
 PAO| ======================= Iteration:        23 =============================

     Lanczos converged:  T threshold:   0.100E-02
     Est. extremal eigenvalues:    0.266E+01   0.187E+00
     Est. condition number :    0.142E+02

 Order=           3
     NS sqrt iter    1 1.00000000   0.675E+00       0.001       57.162
     NS sqrt iter    2 1.00000000   0.307E+00       0.001       97.373
     NS sqrt iter    3 1.00000000   0.652E-01       0.001       97.801
     NS sqrt iter    4 1.00000000   0.126E-02       0.001       97.817
     NS sqrt iter    5 1.00000000   0.192E-07       0.001       44.151
     Symmetrizing Results
     Final NS sqrt iter    5 1.00000000   0.646E-08

     Est. extremal eigenvalues     -0.91274     1.61698  converged:  T
     TRS4 it   1 1.00000000   0.870E+00       0.000       16.128   0.100E-07
     TRS4 it   2 1.00000000   0.601E+00       0.001       32.256   0.100E-07
     TRS4 it   3 1.00000000   0.404E+00       0.001       32.256   0.100E-07
     TRS4 it   4 1.00000000   0.203E+00       0.001       32.256   0.100E-07
     TRS4 it   5 1.00000000   0.627E-01       0.001       32.256   0.100E-07
     TRS4 it   6 1.00000000   0.705E-02       0.001       32.256   0.100E-07
     TRS4 it   7 1.00000000   0.107E-03       0.001       32.256   0.100E-07
     TRS4 it   8 1.00000000   0.338E-07       0.001       32.256   0.100E-07
     Final TRS4 iteration    8 1.00000000   0.338E-07
     Chemical potential (mu):       0.00299
 
 PAO| energy:  -7.7123559962564023      penalty:   1.3276998533490354E-005
 PAO|LS| adapt:  T T F
 PAO|LS| adapt: scan_steps:    0.0000000000000000       0.42944708866704906        0.0000000000000000     
 PAO|LS| adapt: energies:   -7.7123132494579787       -7.7123559962564023        0.0000000000000000     
 PAO| ======================= Iteration:        24 =============================

     Lanczos converged:  T threshold:   0.100E-02
     Est. extremal eigenvalues:    0.266E+01   0.187E+00
     Est. condition number :    0.142E+02

 Order=           3
     NS sqrt iter    1 1.00000000   0.675E+00       0.001       56.924
     NS sqrt iter    2 1.00000000   0.307E+00       0.001       97.155
     NS sqrt iter    3 1.00000000   0.652E-01       0.001       96.417
     NS sqrt iter    4 1.00000000   0.126E-02       0.001      100.444
     NS sqrt iter    5 1.00000000   0.191E-07       0.001       44.965
     Symmetrizing Results
     Final NS sqrt iter    5 1.00000000   0.645E-08

     Est. extremal eigenvalues     -0.91274     1.61706  converged:  T
     TRS4 it   1 1.00000000   0.870E+00       0.000       16.128   0.100E-07
     TRS4 it   2 1.00000000   0.602E+00       0.001       32.256   0.100E-07
     TRS4 it   3 1.00000000   0.405E+00       0.001       32.256   0.100E-07
     TRS4 it   4 1.00000000   0.203E+00       0.001       32.256   0.100E-07
     TRS4 it   5 1.00000000   0.629E-01       0.001       32.256   0.100E-07
     TRS4 it   6 1.00000000   0.710E-02       0.001       32.256   0.100E-07
     TRS4 it   7 1.00000000   0.109E-03       0.001       32.256   0.100E-07
     TRS4 it   8 1.00000000   0.350E-07       0.001       32.256   0.100E-07
     Final TRS4 iteration    8 1.00000000   0.350E-07
     Chemical potential (mu):       0.00270
 
 PAO| energy:  -7.7123031583999229      penalty:   1.2681485158031304E-005
 PAO|LS| adapt:  T T T
 PAO|LS| adapt: scan_steps:    0.0000000000000000       0.42944708866704906       0.85889417733409812     
 PAO|LS| adapt: energies:   -7.7123132494579787       -7.7123559962564023       -7.7123031583999229     
 PAO|LS| adapt: suggested step_size:   0.40677830617242161     
 PAO|LS| adapt: predicted energy  -7.7123561294229823     
 PAO| ======================= Iteration:        25 =============================

     Lanczos converged:  T threshold:   0.100E-02
     Est. extremal eigenvalues:    0.266E+01   0.187E+00
     Est. condition number :    0.142E+02

 Order=           3
     NS sqrt iter    1 1.00000000   0.675E+00       0.001       57.934
     NS sqrt iter    2 1.00000000   0.307E+00       0.001       97.178
     NS sqrt iter    3 1.00000000   0.652E-01       0.001       98.560
     NS sqrt iter    4 1.00000000   0.126E-02       0.001       99.093
     NS sqrt iter    5 1.00000000   0.192E-07       0.001       44.106
     Symmetrizing Results
     Final NS sqrt iter    5 1.00000000   0.646E-08

     Est. extremal eigenvalues     -0.91274     1.61697  converged:  T
     TRS4 it   1 1.00000000   0.870E+00       0.000       16.128   0.100E-07
     TRS4 it   2 1.00000000   0.601E+00       0.001       32.256   0.100E-07
     TRS4 it   3 1.00000000   0.404E+00       0.001       32.256   0.100E-07
     TRS4 it   4 1.00000000   0.203E+00       0.001       32.256   0.100E-07
     TRS4 it   5 1.00000000   0.627E-01       0.001       32.256   0.100E-07
     TRS4 it   6 1.00000000   0.705E-02       0.001       32.256   0.100E-07
     TRS4 it   7 1.00000000   0.107E-03       0.001       32.256   0.100E-07
     TRS4 it   8 1.00000000   0.338E-07       0.001       32.256   0.100E-07
     Final TRS4 iteration    8 1.00000000   0.338E-07
     Chemical potential (mu):       0.00300
 
 PAO| energy:  -7.7123561228553470      penalty:   1.3309085243821011E-005
 PAO|CG| trace_G_new    5.9158303019264423E-005
 PAO|CG| trace_G_prev    2.0967827365694672E-004
 PAO|CG| trace_G_mix    3.6867079742995436E-007
 PAO|CG| trace_D    2.8896055429814243E-004
 PAO|CG| trace_D_Gnew  -2.9204081116530593E-007
 PAO|CG| beta:   0.28038018053324787     
 PAO| norm of gradient:   7.6914434938615012E-003
 PAO| energy improvement:  -4.2873397368303756E-005
 PAO| step     25                   -7.712356123  0.481E-03  0.407E+00     0.109
 PAO|LS| adapt:  T F F
 PAO|LS| adapt: scan_steps:    0.0000000000000000        0.0000000000000000        0.0000000000000000     
 PAO|LS| adapt: energies:   -7.7123561228553470        0.0000000000000000        0.0000000000000000     
 PAO| ======================= Iteration:        26 =============================

     Lanczos converged:  T threshold:   0.100E-02
     Est. extremal eigenvalues:    0.266E+01   0.187E+00
     Est. condition number :    0.142E+02

 Order=           3
     NS sqrt iter    1 1.00000000   0.675E+00       0.001       58.176
     NS sqrt iter    2 1.00000000   0.306E+00       0.001       98.007
     NS sqrt iter    3 1.00000000   0.651E-01       0.001       99.385
     NS sqrt iter    4 1.00000000   0.125E-02       0.001       98.390
     NS sqrt iter    5 1.00000000   0.190E-07       0.001       43.861
     Symmetrizing Results
     Final NS sqrt iter    5 1.00000000   0.607E-08

     Est. extremal eigenvalues     -0.91274     1.61668  converged:  T
     TRS4 it   1 1.00000000   0.870E+00       0.000       16.128   0.100E-07
     TRS4 it   2 1.00000000   0.601E+00       0.001       32.256   0.100E-07
     TRS4 it   3 1.00000000   0.404E+00       0.001       32.256   0.100E-07
     TRS4 it   4 1.00000000   0.202E+00       0.001       32.256   0.100E-07
     TRS4 it   5 1.00000000   0.627E-01       0.001       32.256   0.100E-07
     TRS4 it   6 1.00000000   0.704E-02       0.001       32.256   0.100E-07
     TRS4 it   7 1.00000000   0.107E-03       0.001       32.256   0.100E-07
     TRS4 it   8 1.00000000   0.336E-07       0.001       32.256   0.100E-07
     Final TRS4 iteration    8 1.00000000   0.336E-07
     Chemical potential (mu):       0.00303
 
 PAO| energy:  -7.7123597423343497      penalty:   1.2714078666250667E-005
 PAO|LS| adapt:  T T F
 PAO|LS| adapt: scan_steps:    0.0000000000000000       0.40677830617242161        0.0000000000000000     
 PAO|LS| adapt: energies:   -7.7123561228553470       -7.7123597423343497        0.0000000000000000     
 PAO| ======================= Iteration:        27 =============================

     Lanczos converged:  T threshold:   0.100E-02
     Est. extremal eigenvalues:    0.266E+01   0.187E+00
     Est. condition number :    0.142E+02

 Order=           3
     NS sqrt iter    1 1.00000000   0.675E+00       0.001       58.197
     NS sqrt iter    2 1.00000000   0.306E+00       0.001       98.197
     NS sqrt iter    3 1.00000000   0.650E-01       0.001       97.391
     NS sqrt iter    4 1.00000000   0.125E-02       0.001      101.771
     NS sqrt iter    5 1.00000000   0.188E-07       0.001       44.152
     Symmetrizing Results
     Final NS sqrt iter    5 1.00000000   0.601E-08

     Est. extremal eigenvalues     -0.91274     1.61638  converged:  T
     TRS4 it   1 1.00000000   0.870E+00       0.000       16.128   0.100E-07
     TRS4 it   2 1.00000000   0.601E+00       0.001       32.256   0.100E-07
     TRS4 it   3 1.00000000   0.404E+00       0.001       32.256   0.100E-07
     TRS4 it   4 1.00000000   0.202E+00       0.001       32.256   0.100E-07
     TRS4 it   5 1.00000000   0.626E-01       0.001       32.256   0.100E-07
     TRS4 it   6 1.00000000   0.703E-02       0.001       32.256   0.100E-07
     TRS4 it   7 1.00000000   0.106E-03       0.001       32.256   0.100E-07
     TRS4 it   8 1.00000000   0.333E-07       0.001       32.256   0.100E-07
     Final TRS4 iteration    8 1.00000000   0.333E-07
     Chemical potential (mu):       0.00306
 
 PAO| energy:  -7.7123223543703627      penalty:   1.2134661692210992E-005
 PAO|LS| adapt:  T T T
 PAO|LS| adapt: scan_steps:    0.0000000000000000       0.40677830617242161       0.81355661234484322     
 PAO|LS| adapt: energies:   -7.7123561228553470       -7.7123597423343497       -7.7123223543703627     
 PAO|LS| adapt: suggested step_size:   0.23929301420547897     
 PAO|LS| adapt: predicted energy  -7.7123632182599833     
 PAO| ======================= Iteration:        28 =============================

     Lanczos converged:  T threshold:   0.100E-02
     Est. extremal eigenvalues:    0.266E+01   0.187E+00
     Est. condition number :    0.142E+02

 Order=           3
     NS sqrt iter    1 1.00000000   0.675E+00       0.001       57.754
     NS sqrt iter    2 1.00000000   0.307E+00       0.001       96.600
     NS sqrt iter    3 1.00000000   0.651E-01       0.001       98.052
     NS sqrt iter    4 1.00000000   0.126E-02       0.001       98.670
     NS sqrt iter    5 1.00000000   0.190E-07       0.001       43.225
     Symmetrizing Results
     Final NS sqrt iter    5 1.00000000   0.609E-08

     Est. extremal eigenvalues     -0.91274     1.61680  converged:  T
     TRS4 it   1 1.00000000   0.870E+00       0.000       16.128   0.100E-07
     TRS4 it   2 1.00000000   0.601E+00       0.001       32.256   0.100E-07
     TRS4 it   3 1.00000000   0.404E+00       0.001       32.256   0.100E-07
     TRS4 it   4 1.00000000   0.202E+00       0.001       32.256   0.100E-07
     TRS4 it   5 1.00000000   0.627E-01       0.001       32.256   0.100E-07
     TRS4 it   6 1.00000000   0.704E-02       0.001       32.256   0.100E-07
     TRS4 it   7 1.00000000   0.107E-03       0.001       32.256   0.100E-07
     TRS4 it   8 1.00000000   0.336E-07       0.001       32.256   0.100E-07
     Final TRS4 iteration    8 1.00000000   0.336E-07
     Chemical potential (mu):       0.00302
 
 PAO| energy:  -7.7123632139524396      penalty:   1.2957169046171575E-005
 PAO|CG| trace_G_new    1.6518612117958036E-005
 PAO|CG| trace_G_prev    5.9158303019264423E-005
 PAO|CG| trace_G_mix    1.9434016907038368E-008
 PAO|CG| trace_D    8.2038137171981920E-005
 PAO|CG| trace_D_Gnew  -1.4520532868674610E-008
 PAO|CG| beta:   0.27889877259795925     
 PAO| norm of gradient:   4.0643095499676247E-003
 PAO| energy improvement:  -7.0910970926263417E-006
 PAO| step     28                   -7.712363214  0.254E-03  0.239E+00     0.057
 PAO|LS| adapt:  T F F
 PAO|LS| adapt: scan_steps:    0.0000000000000000        0.0000000000000000        0.0000000000000000     
 PAO|LS| adapt: energies:   -7.7123632139524396        0.0000000000000000        0.0000000000000000     
 PAO| ======================= Iteration:        29 =============================

     Lanczos converged:  T threshold:   0.100E-02
     Est. extremal eigenvalues:    0.266E+01   0.187E+00
     Est. condition number :    0.142E+02

 Order=           3
     NS sqrt iter    1 1.00000000   0.675E+00       0.001       58.230
     NS sqrt iter    2 1.00000000   0.306E+00       0.001      100.466
     NS sqrt iter    3 1.00000000   0.650E-01       0.001       97.864
     NS sqrt iter    4 1.00000000   0.125E-02       0.001       97.568
     NS sqrt iter    5 1.00000000   0.190E-07       0.001       43.997
     Symmetrizing Results
     Final NS sqrt iter    5 1.00000000   0.607E-08

     Est. extremal eigenvalues     -0.91274     1.61673  converged:  T
     TRS4 it   1 1.00000000   0.870E+00       0.000       16.128   0.100E-07
     TRS4 it   2 1.00000000   0.601E+00       0.001       32.256   0.100E-07
     TRS4 it   3 1.00000000   0.404E+00       0.001       32.256   0.100E-07
     TRS4 it   4 1.00000000   0.202E+00       0.001       32.256   0.100E-07
     TRS4 it   5 1.00000000   0.626E-01       0.001       32.256   0.100E-07
     TRS4 it   6 1.00000000   0.703E-02       0.001       32.256   0.100E-07
     TRS4 it   7 1.00000000   0.107E-03       0.001       32.256   0.100E-07
     TRS4 it   8 1.00000000   0.334E-07       0.001       32.256   0.100E-07
     Final TRS4 iteration    8 1.00000000   0.334E-07
     Chemical potential (mu):       0.00308
 
 PAO| energy:  -7.7123666186936939      penalty:   1.2609646521826209E-005
 PAO|LS| adapt:  T T F
 PAO|LS| adapt: scan_steps:    0.0000000000000000       0.23929301420547897        0.0000000000000000     
 PAO|LS| adapt: energies:   -7.7123632139524396       -7.7123666186936939        0.0000000000000000     
 PAO| ======================= Iteration:        30 =============================

     Lanczos converged:  T threshold:   0.100E-02
     Est. extremal eigenvalues:    0.266E+01   0.187E+00
     Est. condition number :    0.142E+02

 Order=           3
     NS sqrt iter    1 1.00000000   0.675E+00       0.001       58.364
     NS sqrt iter    2 1.00000000   0.306E+00       0.001       98.194
     NS sqrt iter    3 1.00000000   0.650E-01       0.001       97.326
     NS sqrt iter    4 1.00000000   0.125E-02       0.001       99.175
     NS sqrt iter    5 1.00000000   0.189E-07       0.001       44.630
     Symmetrizing Results
     Final NS sqrt iter    5 1.00000000   0.605E-08

     Est. extremal eigenvalues     -0.91274     1.61665  converged:  T
     TRS4 it   1 1.00000000   0.870E+00       0.000       16.128   0.100E-07
     TRS4 it   2 1.00000000   0.601E+00       0.001       32.256   0.100E-07
     TRS4 it   3 1.00000000   0.404E+00       0.001       32.256   0.100E-07
     TRS4 it   4 1.00000000   0.202E+00       0.001       32.256   0.100E-07
     TRS4 it   5 1.00000000   0.626E-01       0.001       32.256   0.100E-07
     TRS4 it   6 1.00000000   0.702E-02       0.001       32.256   0.100E-07
     TRS4 it   7 1.00000000   0.106E-03       0.001       32.256   0.100E-07
     TRS4 it   8 1.00000000   0.331E-07       0.001       32.256   0.100E-07
     Final TRS4 iteration    8 1.00000000   0.331E-07
     Chemical potential (mu):       0.00313
 
 PAO| energy:  -7.7123689246136529      penalty:   1.2267136844981071E-005
 PAO|LS| adapt:  T T F
 PAO|LS| adapt: scan_steps:    0.0000000000000000       0.47858602841095793        0.0000000000000000     
 PAO|LS| adapt: energies:   -7.7123632139524396       -7.7123689246136529        0.0000000000000000     
 PAO| ======================= Iteration:        31 =============================

     Lanczos converged:  T threshold:   0.100E-02
     Est. extremal eigenvalues:    0.265E+01   0.187E+00
     Est. condition number :    0.142E+02

 Order=           3
     NS sqrt iter    1 1.00000000   0.674E+00       0.001       57.838
     NS sqrt iter    2 1.00000000   0.306E+00       0.001       99.561
     NS sqrt iter    3 1.00000000   0.649E-01       0.001       97.218
     NS sqrt iter    4 1.00000000   0.125E-02       0.001       98.583
     NS sqrt iter    5 1.00000000   0.188E-07       0.001       43.964
     Symmetrizing Results
     Final NS sqrt iter    5 1.00000000   0.601E-08

     Est. extremal eigenvalues     -0.91275     1.61650  converged:  T
     TRS4 it   1 1.00000000   0.870E+00       0.000       16.128   0.100E-07
     TRS4 it   2 1.00000000   0.601E+00       0.001       32.256   0.100E-07
     TRS4 it   3 1.00000000   0.404E+00       0.001       32.256   0.100E-07
     TRS4 it   4 1.00000000   0.202E+00       0.001       32.256   0.100E-07
     TRS4 it   5 1.00000000   0.625E-01       0.001       32.256   0.100E-07
     TRS4 it   6 1.00000000   0.699E-02       0.001       32.256   0.100E-07
     TRS4 it   7 1.00000000   0.105E-03       0.001       32.256   0.100E-07
     TRS4 it   8 1.00000000   0.327E-07       0.001       32.256   0.100E-07
     Final TRS4 iteration    8 1.00000000   0.327E-07
     Chemical potential (mu):       0.00324
 
 PAO| energy:  -7.7123702394732900      penalty:   1.1597108228150011E-005
 PAO|LS| Need extra step
 PAO|LS| adapt:  T T F
 PAO|LS| adapt: scan_steps:    0.0000000000000000       0.95717205682191586        0.0000000000000000     
 PAO|LS| adapt: energies:   -7.7123632139524396       -7.7123702394732900        0.0000000000000000     
 PAO| ======================= Iteration:        32 =============================

     Lanczos converged:  T threshold:   0.100E-02
     Est. extremal eigenvalues:    0.265E+01   0.187E+00
     Est. condition number :    0.142E+02

 Order=           3
     NS sqrt iter    1 1.00000000   0.674E+00       0.001       57.524
     NS sqrt iter    2 1.00000000   0.306E+00       0.001       99.900
     NS sqrt iter    3 1.00000000   0.647E-01       0.001       99.713
     NS sqrt iter    4 1.00000000   0.124E-02       0.001       97.744
     NS sqrt iter    5 1.00000000   0.186E-07       0.001       44.198
     Symmetrizing Results
     Final NS sqrt iter    5 1.00000000   0.595E-08

     Est. extremal eigenvalues     -0.91276     1.61619  converged:  T
     TRS4 it   1 1.00000000   0.870E+00       0.000       16.128   0.100E-07
     TRS4 it   2 1.00000000   0.601E+00       0.001       32.256   0.100E-07
     TRS4 it   3 1.00000000   0.404E+00       0.001       32.256   0.100E-07
     TRS4 it   4 1.00000000   0.202E+00       0.001       32.256   0.100E-07
     TRS4 it   5 1.00000000   0.623E-01       0.001       32.256   0.100E-07
     TRS4 it   6 1.00000000   0.694E-02       0.001       32.256   0.100E-07
     TRS4 it   7 1.00000000   0.104E-03       0.001       32.256   0.100E-07
     TRS4 it   8 1.00000000   0.317E-07       0.001       32.256   0.100E-07
     Final TRS4 iteration    8 1.00000000   0.317E-07
     Chemical potential (mu):       0.00346
 
 PAO| energy:  -7.7123596775445664      penalty:   1.0316680274381491E-005
 PAO|LS| Need extra step
 PAO|LS| adapt:  T T T
 PAO|LS| adapt: scan_steps:    0.0000000000000000       0.95717205682191586        1.9143441136438317     
 PAO|LS| adapt: energies:   -7.7123632139524396       -7.7123702394732900       -7.7123596775445664     
 PAO|LS| adapt: suggested step_size:   0.86094005958122688     
 PAO|LS| adapt: predicted energy  -7.7123703283589791     
 PAO| ======================= Iteration:        33 =============================

     Lanczos converged:  T threshold:   0.100E-02
     Est. extremal eigenvalues:    0.265E+01   0.187E+00
     Est. condition number :    0.142E+02

 Order=           3
     NS sqrt iter    1 1.00000000   0.675E+00       0.001       59.032
     NS sqrt iter    2 1.00000000   0.306E+00       0.001      100.246
[...]
     NS sqrt iter    5 1.00000000   0.549E-09       0.001       36.864
     Symmetrizing Results
     Final NS sqrt iter    5 1.00000000   0.472E-10

     Est. extremal eigenvalues     -0.91259     1.42784  converged:  T
     TRS4 it   1 1.00000000   0.828E+00       0.000       16.128   0.100E-07
     TRS4 it   2 1.00000000   0.588E+00       0.001       32.256   0.100E-07
     TRS4 it   3 1.00000000   0.419E+00       0.001       32.256   0.100E-07
     TRS4 it   4 1.00000000   0.254E+00       0.001       32.256   0.100E-07
     TRS4 it   5 1.00000000   0.115E+00       0.001       32.256   0.100E-07
     TRS4 it   6 1.00000000   0.284E-01       0.001       32.256   0.100E-07
     TRS4 it   7 1.00000000   0.226E-02       0.001       32.256   0.100E-07
     TRS4 it   8 1.00000000   0.174E-04       0.001       32.256   0.100E-07
     TRS4 it   9 1.00000000   0.118E-08       0.001       32.256   0.100E-07
     Final TRS4 iteration    9 1.00000000   0.118E-08
     Chemical potential (mu):      -0.07743
 
 PAO| energy:  -7.7123300214931687      penalty:   2.1348934687152239E-011
 PAO|CG| warming up with steepest descent
 PAO|CG| beta:    0.0000000000000000     
 PAO| norm of gradient:   7.2812184256564498E-006
 PAO| energy improvement:  -2.0127011168824538E-011
 PAO| step    865                   -7.712330021  0.455E-06  0.258E+00     0.077
 PAO| converged after          865  steps :-)
 PAO| Recalculating energy after mixing.

     Lanczos converged:  T threshold:   0.100E-02
     Est. extremal eigenvalues:    0.241E+01   0.229E+00
     Est. condition number :    0.105E+02

 Order=           3
     NS sqrt iter    1 1.00000000   0.608E+00       0.001       55.864
     NS sqrt iter    2 1.00000000   0.252E+00       0.001      102.057
     NS sqrt iter    3 1.00000000   0.377E-01       0.001       99.761
     NS sqrt iter    4 1.00000000   0.249E-03       0.001       97.990
     NS sqrt iter    5 1.00000000   0.549E-09       0.001       36.864
     Symmetrizing Results
     Final NS sqrt iter    5 1.00000000   0.472E-10

     Est. extremal eigenvalues     -0.91259     1.42784  converged:  T
     TRS4 it   1 1.00000000   0.828E+00       0.000       16.128   0.100E-07
     TRS4 it   2 1.00000000   0.588E+00       0.001       32.256   0.100E-07
     TRS4 it   3 1.00000000   0.419E+00       0.001       32.256   0.100E-07
     TRS4 it   4 1.00000000   0.254E+00       0.001       32.256   0.100E-07
     TRS4 it   5 1.00000000   0.115E+00       0.001       32.256   0.100E-07
     TRS4 it   6 1.00000000   0.284E-01       0.001       32.256   0.100E-07
     TRS4 it   7 1.00000000   0.226E-02       0.001       32.256   0.100E-07
     TRS4 it   8 1.00000000   0.174E-04       0.001       32.256   0.100E-07
     TRS4 it   9 1.00000000   0.118E-08       0.001       32.256   0.100E-07
     Final TRS4 iteration    9 1.00000000   0.118E-08
     Chemical potential (mu):      -0.07743
 
 PAO| energy:  -7.7123300214881318      penalty:   2.1571769215669573E-011
 PAO| Writing restart file.
     Est. extremal eigenvalues     -0.91259     1.42784  converged:  T
     TRS4 it   1 1.00000000   0.828E+00       0.000       16.128   0.100E-07
     TRS4 it   2 1.00000000   0.588E+00       0.001       32.256   0.100E-07
     TRS4 it   3 1.00000000   0.419E+00       0.001       32.256   0.100E-07
     TRS4 it   4 1.00000000   0.254E+00       0.001       32.256   0.100E-07
     TRS4 it   5 1.00000000   0.115E+00       0.001       32.256   0.100E-07
     TRS4 it   6 1.00000000   0.284E-01       0.001       32.256   0.100E-07
     TRS4 it   7 1.00000000   0.226E-02       0.002       14.600   0.100E-07
     TRS4 it   8 1.00000000   0.174E-04       0.004        9.185   0.100E-07
     TRS4 it   9 1.00000000   0.118E-08       0.004        7.534   0.100E-07
     Final TRS4 iteration    9 1.00000000   0.118E-08
     Chemical potential (mu):      -0.07743

 SCF     1       -34.445997145       -34.445997145    4.076002

*********************************************************
 Using MIXING_FRACTION=0.450 to mix KS matrix:  iscf=  2
 KS_nw=0.450*KS + 0.550*KS_old
*********************************************************
     Est. extremal eigenvalues     -0.91259     1.42785  converged:  T
     TRS4 it   1 1.00000000   0.828E+00       0.000       16.128   0.100E-07
     TRS4 it   2 1.00000000   0.588E+00       0.001       32.256   0.100E-07
     TRS4 it   3 1.00000000   0.419E+00       0.001       32.256   0.100E-07
     TRS4 it   4 1.00000000   0.254E+00       0.001       32.256   0.100E-07
     TRS4 it   5 1.00000000   0.115E+00       0.001       32.256   0.100E-07
     TRS4 it   6 1.00000000   0.284E-01       0.001       32.256   0.100E-07
     TRS4 it   7 1.00000000   0.226E-02       0.001       32.256   0.100E-07
     TRS4 it   8 1.00000000   0.174E-04       0.001       32.256   0.100E-07
     TRS4 it   9 1.00000000   0.118E-08       0.001       32.256   0.100E-07
     Final TRS4 iteration    9 1.00000000   0.118E-08
     Chemical potential (mu):      -0.07743

 SCF     2       -34.445997145        -0.000000000    3.194271


 SCF run converged in     2 steps.

 PAO| Storing density matrix for ASPC guess in slot:           1

 ENERGY| Total FORCE_EVAL ( QS ) energy [a.u.]:              -34.445997144584197

 -------------------------------------------------------------------------------
 -                                                                             -
 -                                DBCSR STATISTICS                             -
 -                                                                             -
 -------------------------------------------------------------------------------
 COUNTER                                    TOTAL       BLAS       SMM       ACC
 flops     5 x     5 x     4                26000       0.0%    100.0%      0.0%
 flops    13 x     5 x     4                27040       0.0%    100.0%      0.0%
 flops     5 x    13 x     4                27040       0.0%    100.0%      0.0%
 flops    13 x    13 x     4                52728       0.0%    100.0%      0.0%
 flops     4 x     4 x     5              6750720       0.0%    100.0%      0.0%
 flops     5 x     4 x     5              8236800       0.0%    100.0%      0.0%
 flops     4 x     4 x    13              8775936       0.0%    100.0%      0.0%
 flops    13 x     4 x     5             10707840       0.0%    100.0%      0.0%
 flops     5 x     4 x    13             10707840       0.0%    100.0%      0.0%
 flops     5 x     4 x     4             12717920       0.0%    100.0%      0.0%
 flops    13 x     4 x    13             13920192       0.0%    100.0%      0.0%
 flops    13 x     4 x     4             16607552       0.0%    100.0%      0.0%
 flops     4 x     4 x     4            852822400       0.0%    100.0%      0.0%
 flops inhomo. stacks                           0       0.0%      0.0%      0.0%
 flops total                       941.380008E+06       0.0%    100.0%      0.0%
 flops max/rank                    941.380008E+06       0.0%    100.0%      0.0%
 matmuls inhomo. stacks                         0       0.0%      0.0%      0.0%
 matmuls total                            6938309       0.0%    100.0%      0.0%
 number of processed stacks                 55386       0.0%    100.0%      0.0%
 average stack size                                     0.0     125.3       0.0
 marketing flops                     1.539935E+09
 -------------------------------------------------------------------------------
 # multiplications                          46408
 max memory usage/rank             506.560512E+06
 # max total images/rank                        1
 # max 3D layers                                1
 # MPI messages exchanged                       0
 -------------------------------------------------------------------------------

 -------------------------------------------------------------------------------
 -                                                                             -
 -                                DBM STATISTICS                               -
 -                                                                             -
 -------------------------------------------------------------------------------
    M  x    N  x    K                                          COUNT     PERCENT
 -------------------------------------------------------------------------------

 -------------------------------------------------------------------------------
 -                                                                             -
 -                                GRID STATISTICS                              -
 -                                                                             -
 -------------------------------------------------------------------------------
 LP    KERNEL             BACKEND                              COUNT     PERCENT
 2     collocate ortho    REF                                  49569      30.71%
 2     integrate ortho    REF                                  49569      30.71%
 3     collocate ortho    REF                                  25519      15.81%
 3     integrate ortho    REF                                  25519      15.81%
 4     collocate ortho    REF                                   5616       3.48%
 4     integrate ortho    REF                                   5616       3.48%
 0     collocate general  REF                                      6       0.00%
 -------------------------------------------------------------------------------

 MEMORY| Estimated peak process memory [MiB]                                 484

 -------------------------------------------------------------------------------
 -                                                                             -
 -                           R E F E R E N C E S                               -
 -                                                                             -
 -------------------------------------------------------------------------------
 
 CP2K version 2023.1 (Development Version), the CP2K developers group (2023).
 CP2K is freely available from https://www.cp2k.org/ .

 Kuehne,Thomas D.; Iannuzzi,Marcella; Del Ben,Mauro;
 Rybkin,Vladimir V.; Seewald,Patrick; Stein,Frederick; Laino,Teodoro;
 Khaliullin,Rustam Z.; Schuett,Ole; Schiffmann,Florian; Golze,Dorothea;
 Wilhelm,Jan; Chulkov,Sergey; Bani-Hashemian,Mohammad Hossein;
 Weber,Valery; Borstnik,Urban; Taillefumier,Mathieu;
 Jakobovits,Alice Shoshana; Lazzaro,Alfio; Pabst,Hans; Mueller,Tiziano;
 Schade,Robert; Guidon,Manuel; Andermatt,Samuel; Holmberg,Nico;
 Schenter,Gregory K.; Hehn,Anna; Bussy,Augustin; Belleflamme,Fabian;
 Tabacchi,Gloria; Gloess,Andreas; Lass,Michael; Bethune,Iain;
 Mundy,Christopher J.; Plessl,Christian; Watkins,Matt;
 VandeVondele,Joost; Krack,Matthias; Hutter,Juerg. 
 The Journal of Chemical Physics, 152 (19), (2020). 
 CP2K: An electronic structure and molecular dynamics software package -
 Quickstep: Efficient and accurate electronic structure calculations.
 https://doi.org/10.1063/5.0007045

 Schuett, O; VandeVondele, J. 
 Journal of Chemical Theory and Computation, 14, (2018). 
 Machine Learning Adaptive Basis Sets for Efficient Large Scale
 Density Functional Theory Simulation.
 https://doi.org/10.1021/acs.jctc.8b00378

 Schuett, Ole; Messmer, Peter; Hutter, Juerg; VandeVondele, Joost. 
 Electronic Structure Calculations on Graphics Processing Units, John
 Wiley & Sons, Ltd, 173-190 (2016). 
 GPU-Accelerated Sparse Matrix-Matrix Multiplication for
 Linear Scaling Density Functional Theory.
 https://doi.org/10.1002/9781118670712.ch8

 Heinecke, A; Henry, G; Hutchinson, M; Pabst, H. 
 Proceedings of Intl. Supercomputing Conference, 981-991 (2016). 
 LIBXSMM: Accelerating Small Matrix Multiplications
 by Runtime Code Generation.
 https://doi.org/10.1109/SC.2016.83

 Borstnik, U; VandeVondele, J; Weber, V; Hutter, J. 
 PARALLEL COMPUTING, 40 (5-6), 47-58 (2014). 
 Sparse matrix multiplication: The distributed block-compressed sparse
 row library.
 https://doi.org/10.1016/j.parco.2014.03.012

 Hutter, J; Iannuzzi, M; Schiffmann, F; VandeVondele, J. 
 WIREs Comput Mol Sci., 4 (1), 15-25 (2014). 
 CP2K: atomistic simulations of condensed matter systems.
 https://doi.org/10.1002/wcms.1159

 VandeVondele, J; Borstnik, U; Hutter, J. 
 JOURNAL OF CHEMICAL THEORY AND COMPUTATION, 8 (10), 3565-3573 (2012). 
 Linear Scaling Self-Consistent Field Calculations with Millions of Atoms
 in the Condensed Phase.
 https://doi.org/10.1021/ct200897x

 VandeVondele, J; Hutter, J. 
 JOURNAL OF CHEMICAL PHYSICS, 127 (11), 114105 (2007). 
 Gaussian basis sets for accurate calculations on molecular systems in
 gas and condensed phases.
 https://doi.org/10.1063/1.2770708

 Krack, M. 
 THEORETICAL CHEMISTRY ACCOUNTS, 114 (1-3), 145-152 (2005). 
 Pseudopotentials for H to Kr optimized for gradient-corrected
 exchange-correlation functionals.
 https://doi.org/10.1007/s00214-005-0655-y

 VandeVondele, J; Krack, M; Mohamed, F; Parrinello, M; Chassaing, T;
 Hutter, J. COMPUTER PHYSICS COMMUNICATIONS, 167 (2), 103-128 (2005). 
 QUICKSTEP: Fast and accurate density functional calculations using a
 mixed Gaussian and plane waves approach.
 https://doi.org/10.1016/j.cpc.2004.12.014

 Frigo, M; Johnson, SG. 
 PROCEEDINGS OF THE IEEE, 93 (2), 216-231 (2005). 
 The design and implementation of FFTW3.
 https://doi.org/10.1109/JPROC.2004.840301

 Niklasson, AMN; Tymczak, CJ; Challacombe, M. 
 JOURNAL OF CHEMICAL PHYSICS, 118 (19), 8611-8620 (2003). 
 Trace resetting density matrix purification in O(N)
 self-consistent-field theory.
 https://doi.org/10.1063/1.1559913

 Hartwigsen, C; Goedecker, S; Hutter, J. 
 PHYSICAL REVIEW B, 58 (7), 3641-3662 (1998). 
 Relativistic separable dual-space Gaussian pseudopotentials from H to Rn.
 https://doi.org/10.1103/PhysRevB.58.3641

 Lippert, G; Hutter, J; Parrinello, M. 
 MOLECULAR PHYSICS, 92 (3), 477-487 (1997). 
 A hybrid Gaussian and plane wave density functional scheme.
 https://doi.org/10.1080/002689797170220

 Perdew, JP; Burke, K; Ernzerhof, M. 
 PHYSICAL REVIEW LETTERS, 77 (18), 3865-3868 (1996). 
 Generalized gradient approximation made simple.
 https://doi.org/10.1103/PhysRevLett.77.3865

 Goedecker, S; Teter, M; Hutter, J. 
 PHYSICAL REVIEW B, 54 (3), 1703-1710 (1996). 
 Separable dual-space Gaussian pseudopotentials.
 https://doi.org/10.1103/PhysRevB.54.1703


 -------------------------------------------------------------------------------
 -                                                                             -
 -                                T I M I N G                                  -
 -                                                                             -
 -------------------------------------------------------------------------------
 SUBROUTINE                       CALLS  ASD         SELF TIME        TOTAL TIME
                                MAXIMUM       AVERAGE  MAXIMUM  AVERAGE  MAXIMUM
 CP2K                                 1  1.0    0.032    0.032   79.912   79.912
 qs_energies                          1  2.0    0.000    0.000   79.023   79.023
 ls_scf                               1  3.0    0.000    0.000   78.839   78.839
 ls_scf_main                          6  4.0    0.002    0.002   50.918   50.918
 ls_scf_dm_to_ks                     12  5.0    0.001    0.001   50.668   50.668
 qs_ks_update_qs_env                 13  6.0    0.000    0.000   41.680   41.680
 rebuild_ks_matrix                   13  7.0    0.000    0.000   41.679   41.679
 qs_ks_build_kohn_sham_matrix        13  8.0    0.005    0.005   41.679   41.679
 qs_vxc_create                       13  9.0    0.001    0.001   24.919   24.919
 xc_vxc_pw_create                    13 10.0    0.514    0.514   24.919   24.919
 pao_update                           6  4.0    0.019    0.019   22.161   22.161
 pw_transfer                        248 11.1    0.037    0.037   21.873   21.873
 fft_wrap_pw1pw2                    222 12.3    0.006    0.006   21.264   21.264
 fft_wrap_pw1pw2_200                144 13.7    2.213    2.213   20.460   20.460
 pao_calc_energy                    870  5.0    0.007    0.007   20.067   20.067
 dbcsr_multiply_generic           46408  8.4    0.995    0.995   15.818   15.818
 qs_rho_update_rho_low               13  6.0    0.000    0.000   14.648   14.648
 calculate_rho_elec                  13  7.0    0.062    0.062   14.648   14.648
 xc_pw_derive                        78 12.0    0.002    0.002   14.564   14.564
 xc_rho_set_and_dset_create          13 11.0    0.581    0.581   14.104   14.104
 sum_up_and_integrate                13  9.0    0.420    0.420   12.917   12.917
 integrate_v_rspace                  13 10.0    0.002    0.002   12.497   12.497
 pao_dm_trs4                        870  6.0    0.026    0.026   10.327   10.327
 xc_pw_divergence                    13 11.0    0.001    0.001    9.914    9.914
 density_matrix_trs4                882  7.0    0.330    0.330    9.874    9.874
 grid_collocate_task_list            13  8.0    9.716    9.716    9.716    9.716
 grid_integrate_task_list            13 11.0    9.671    9.671    9.671    9.671
 ls_scf_init_matrix_S               876  7.0    0.006    0.006    9.612    9.612
 pao_rebuild_S                      870  6.0    0.003    0.003    9.563    9.563
 fft3d_s                            223 14.2    9.442    9.442    9.491    9.491
 matrix_sqrt_Newton_Schulz          876  8.0    0.193    0.193    8.669    8.669
 make_m2s                         92816  9.4    0.393    0.393    5.861    5.861
 multiply_cannon                  46408  9.4    2.359    2.359    5.797    5.797
 pao_guess_initial_P                  1  4.0    0.000    0.000    5.673    5.673
 pao_read_preopt_dm                   1  5.0    0.000    0.000    5.673    5.673
 xc_functional_eval                  13 12.0    0.000    0.000    5.632    5.632
 pbe_lda_eval                        13 13.0    5.631    5.631    5.631    5.631
 make_images                      92816 10.4    1.497    1.497    5.153    5.153
 density_rs2pw                       13  8.0    0.002    0.002    4.870    4.870
 pw_scatter_s                       117 14.7    4.801    4.801    4.801    4.801
 pw_gather_s                        105 13.8    4.675    4.675    4.675    4.675
 arnoldi_extremal                  1758  8.5    0.007    0.007    3.189    3.189
 arnoldi_normal_ev                 1758  9.5    0.022    0.022    3.182    3.182
 potential_pw2rs                     13 11.0    0.008    0.008    2.824    2.824
 pw_derive                           78 13.0    2.689    2.689    2.689    2.689
 build_subspace                    1758 10.5    0.103    0.103    2.443    2.443
 dbcsr_matrix_vector_mult         42187 11.5    0.286    0.286    2.287    2.287
 pao_calc_AB                       1143  5.8    0.002    0.002    2.101    2.101
 pao_calc_AB_equi                  1143  6.8    0.054    0.054    2.099    2.099
 pw_copy                            156 11.8    1.988    1.988    1.988    1.988
 dbcsr_finalize                  110899  9.6    0.422    0.422    1.935    1.935
 pao_calc_grad_lnv_wrt_AB           272  7.0    0.012    0.012    1.855    1.855
 dbcsr_create_new                356381 10.7    1.073    1.073    1.728    1.728
 -------------------------------------------------------------------------------

 The number of warnings for this run is : 0
 
 -------------------------------------------------------------------------------
  **** **** ******  **  PROGRAM ENDED AT                 2023-02-01 10:49:15.560
 ***** ** ***  *** **   PROGRAM RAN ON                                    moritz
 **    ****   ******    PROGRAM RAN BY                                       ole
 ***** **    ** ** **   PROGRAM PROCESS ID                                148777
  **** **  *******  **  PROGRAM STOPPED IN /home/ole/git/pao_ml_equivar/2H2O_MD/
                                           frame_1325
