 DBCSR| CPU Multiplication driver                                           XSMM (U)
 DBCSR| Multrec recursion limit                                              512 (U)
 DBCSR| Multiplication stack size                                           1000 (D)
 DBCSR| Maximum elements for images                                    UNLIMITED (U)
 DBCSR| Multiplicative factor virtual images                                   1 (U)
 DBCSR| Use multiplication densification                                       T (D)
 DBCSR| Multiplication size stacks                                             3 (U)
 DBCSR| Use memory pool for CPU allocation                                     F (U)
 DBCSR| OMP: Current number of threads                                         1
 DBCSR| OMP: Max number of threads                                             1
 DBCSR| Split modifier for TAS multiplication algorithm                  1.0E+00 (U)


  **** **** ******  **  PROGRAM STARTED AT               2023-02-01 10:47:55.493
 ***** ** ***  *** **   PROGRAM STARTED ON                                moritz
 **    ****   ******    PROGRAM STARTED BY                                   ole
 ***** **    ** ** **   PROGRAM PROCESS ID                                148676
  **** **  *******  **  PROGRAM STARTED IN /home/ole/git/pao_ml_equivar/2H2O_MD/
                                           frame_0075

 CP2K| version string:                 CP2K version 2023.1 (Development Version)
 CP2K| source code revision number:                                  git:03b4147
 CP2K| cp2kflags: omp libint fftw3 libxc quip xsmm spglib libvori libbqb libtorc
 CP2K|            h
 CP2K| is freely available from                            https://www.cp2k.org/
 CP2K| Program compiled at                           Mi 01 Feb 2023 10:36:52 CET
 CP2K| Program compiled on                                                moritz
 CP2K| Program compiled for                                                local
 CP2K| Data directory path                               /home/ole/git/cp2k/data
 CP2K| Input file name                                            2H2O_pao44.inp

 GLOBAL| Force Environment number                                              1
 GLOBAL| Basis set file name                                        BASIS_MOLOPT
 GLOBAL| Potential file name                                      GTH_POTENTIALS
 GLOBAL| MM Potential file name                                     MM_POTENTIAL
 GLOBAL| Coordinate file name                                         coords.xyz
 GLOBAL| Method name                                                        CP2K
 GLOBAL| Project name                                                 2H2O_pao44
 GLOBAL| Run type                                                         ENERGY
 GLOBAL| FFT library                                                       FFTW3
 GLOBAL| Diagonalization library                                       ScaLAPACK
 GLOBAL| DGEMM library                                                      BLAS
 GLOBAL| Orthonormality check for eigenvectors                          DISABLED
 GLOBAL| Matrix multiplication library                                 ScaLAPACK
 GLOBAL| All-to-all communication in single precision                          F
 GLOBAL| FFTs using library dependent lengths                                  F
 GLOBAL| Grid backend                                                       AUTO
 GLOBAL| Global print level                                                  LOW
 GLOBAL| MPI I/O enabled                                                       T
 GLOBAL| Total number of message passing processes                             1
 GLOBAL| Number of threads for this process                                    1
 GLOBAL| This output is from process                                           0
 GLOBAL| Stack size for threads created by OpenMP (OMP_STACKSIZE)        default
 GLOBAL| CPU model name           AMD Ryzen Threadripper 3970X 32-Core Processor
 GLOBAL| CPUID                                                              1002
 GLOBAL| Compiled for CPUID                                                    0

 *** HINT in environment.F:884 :: The compiler target flags (generic) used ***
 *** to build this binary cannot exploit all extensions of this CPU model  ***
 *** (x86_avx2). Consider compiler target flags as part of FCFLAGS and     ***
 *** CFLAGS (ARCH file).                                                   ***


 MEMORY| system memory details [Kb]
 MEMORY|                        rank 0           min           max       average
 MEMORY| MemTotal            131773860     131773860     131773860     131773860
 MEMORY| MemFree             111591340     111591340     111591340     111591340
 MEMORY| Buffers                302624        302624        302624        302624
 MEMORY| Cached                7056636       7056636       7056636       7056636
 MEMORY| Slab                   780228        780228        780228        780228
 MEMORY| SReclaimable           332704        332704        332704        332704
 MEMORY| MemLikelyFree       119283304     119283304     119283304     119283304


 GENERATE|  Preliminary Number of Bonds generated:                             0
 GENERATE|  Achieved consistency in connectivity generation.

 *******************************************************************************
 *******************************************************************************
 **                                                                           **
 **     #####                         ##              ##                      **
 **    ##   ##            ##          ##              ##                      **
 **   ##     ##                       ##            ######                    **
 **   ##     ##  ##   ##  ##   #####  ##  ##   ####   ##    #####    #####    **
 **   ##     ##  ##   ##  ##  ##      ## ##   ##      ##   ##   ##  ##   ##   **
 **   ##  ## ##  ##   ##  ##  ##      ####     ###    ##   ######   ######    **
 **    ##  ###   ##   ##  ##  ##      ## ##      ##   ##   ##       ##        **
 **     #######   #####   ##   #####  ##  ##  ####    ##    #####   ##        **
 **           ##                                                    ##        **
 **                                                                           **
 **                                                ... make the atoms dance   **
 **                                                                           **
 **            Copyright (C) by CP2K developers group (2000-2023)             **
 **                      J. Chem. Phys. 152, 194103 (2020)                    **
 **                                                                           **
 *******************************************************************************


 TOTAL NUMBERS AND MAXIMUM NUMBERS

  Total number of            - Atomic kinds:                                   2
                             - Atoms:                                          6
                             - Shell sets:                                     6
                             - Shells:                                        22
                             - Primitive Cartesian functions:                 42
                             - Cartesian basis functions:                     48
                             - Spherical basis functions:                     46

  Maximum angular momentum of- Orbital basis functions:                        2
                             - Local part of the GTH pseudopotential:          2
                             - Non-local part of the GTH pseudopotential:      0

 ------------------------------ Linear scaling SCF -----------------------------
 eps_scf:                                                              0.100E-07
 eps_filter:                                                           0.100E-07
 mixing_fraction:                                                      0.450E+00
 max_scf:                                                                     25
 fixed chemical potential (mu)                                                 F
 has unit metric:                                                              F
 Computing inv(S):                                                             T
 Computing sqrt(S):                                                            T
 Computing S preconditioner                                                    F
 S sqrt method:                                                     NEWTONSCHULZ
 S sqrt order:                                                                 3
 Extrapolation order:                                                          1
 Use single precision matrices                                                 F
 S preconditioner type                                                      NONE
 Polarized Atomic Orbitals (PAO)                                               T
 Purification method                                   Trace resetting 4th order
 Cluster type                                                             ATOMIC
 Computing Chebyshev                                                       FALSE
 Using PAO                                                                     T
 -------------------------------------------------------------------------------

 
 PAO|                                  EPS_PAO                           0.5E-06
 PAO|                                  MIXING                            0.5E+00
 PAO|                                  MAX_PAO                              1500
 PAO|                                  MAX_CYCLES                           1000
 PAO|                                  PARAMETERIZATION              EQUIVARIANT
 PAO|                                  PRECONDITION                            F
 PAO|                                  REGULARIZATION                    0.0E+00
 PAO|                                  EPS_PGF                           0.1E-09
 PAO|                                  PENALTY_DISTANCE                  0.1E+00
 PAO|                                  PENALTY_STRENGTH                  0.5E-02
 PAO|                                  LINPOT_PRECONDITION_DELTA         0.0E+00
 PAO|                                  LINPOT_INITGUESS_DELT             0.0E+00
 PAO|                                  LINPOT_REGULARIZATION_DELTA       0.0E+00
 PAO|                                  LINPOT_REGULARIZATION_STRENGTH    0.0E+00
 PAO|                                  OPTIMIZER                              CG
 PAO|                                  CG_INIT_STEPS                           2
 PAO|                                  CG_RESET_LIMIT                    0.1E+00
 PAO|                                  CHECK_UNITARY_TOL                -0.1E+01
 PAO|                                  CHECK_GRADIENT_TOL               -0.1E+01
 PAO|                                  NUM_GRADIENT_ORDER                      2
 PAO|                                  NUM_GRADIENT_EPS                  0.1E-07
 PAO|                                  PRINT%RESTART%WRITE_CYCLES            100
 PAO|                                  RESTART_FILE 
 PAO|                                  PREOPT_DM_FILE 2H2O_ref_LS_DM_SPIN_1_RESTART.dm
 PAO|                                  MACHINE_LEARNING%METHOD       GAUSSIAN_PR
 PAO|                                  MACHINE_LEARNING%PRIOR               ZERO
 PAO|                                  MACHINE_LEARNING%DESCRIPTOR     POTENTIAL
 PAO|                                  MACHINE_LEARNING%TOLERANCE        0.1E-01
 PAO|                                  MACHINE_LEARNING%GP_NOISE_VAR     0.1E+00
 PAO|                                  MACHINE_LEARNING%GP_SCALE         0.5E-01
 

 Calculating atomic Fock matrix for atomic kind: O

 Electronic structure
    Total number of core electrons                                          2.00
    Total number of valence electrons                                       6.00
    Total number of electrons                                               8.00
    Multiplicity                                                   not specified
    S   [  2.00] 2.00
    P      4.00


 *******************************************************************************
                  Iteration          Convergence                     Energy [au]
 *******************************************************************************
                          1        0.708315                     -15.576645311500
                          2        0.608879                     -15.587933561584
                          3        0.102828E-01                 -15.656849565404
                          4        0.113889E-02                 -15.656866888140
                          5        0.434197E-03                 -15.656867072159
                          6        0.263771E-03                 -15.656867091904
                          7        0.478536E-06                 -15.656867103452

 Energy components [Hartree]           Total Energy ::          -15.656867103452
                                        Band Energy ::           -3.000198112285
                                     Kinetic Energy ::           11.759971203220
                                   Potential Energy ::          -27.416838306672
                                      Virial (-V/T) ::            2.331369510426
                                        Core Energy ::          -26.140716385623
                                          XC Energy ::           -3.154051012914
                                     Coulomb Energy ::           13.637900295084
                       Total Pseudopotential Energy ::          -37.935781716540
                       Local Pseudopotential Energy ::          -39.218907440693
                    Nonlocal Pseudopotential Energy ::            1.283125724153
                                        Confinement ::            0.350941276976

 Orbital energies  State     L     Occupation   Energy[a.u.]          Energy[eV]

                       1     0          2.000      -0.864471          -23.523463

                       1     1          4.000      -0.317814           -8.648154


 Total Electron Density at R=0:                                         0.000068

 Calculating atomic Fock matrix for atomic kind: H

 Electronic structure
    Total number of core electrons                                          0.00
    Total number of valence electrons                                       1.00
    Total number of electrons                                               1.00
    Multiplicity                                                   not specified
    S      1.00


 *******************************************************************************
                  Iteration          Convergence                     Energy [au]
 *******************************************************************************
                          1        0.437545E-02                  -0.424159432110
                          2        0.531356E-03                  -0.424178438213
                          3        0.259176E-06                  -0.424178722480

 Energy components [Hartree]           Total Energy ::           -0.424178722480
                                        Band Energy ::           -0.199015229016
                                     Kinetic Energy ::            0.464007633961
                                   Potential Energy ::           -0.888186356441
                                      Virial (-V/T) ::            1.914163240935
                                        Core Energy ::           -0.479160803564
                                          XC Energy ::           -0.244352904054
                                     Coulomb Energy ::            0.299334985138
                       Total Pseudopotential Energy ::           -0.962295316385
                       Local Pseudopotential Energy ::           -0.962295316385
                    Nonlocal Pseudopotential Energy ::            0.000000000000
                                        Confinement ::            0.191268788606

 Orbital energies  State     L     Occupation   Energy[a.u.]          Energy[eV]

                       1     0          1.000      -0.199015           -5.415480


 Total Electron Density at R=0:                                         0.242907
 PAO| Made initial guess for matrix_X with norm:   4.8989794855663558     

     Lanczos converged:  T threshold:   0.100E-02
     Est. extremal eigenvalues:    0.328E+01   0.117E+00
     Est. condition number :    0.281E+02

 Order=           3
     NS sqrt iter    1 1.00000000   0.802E+00       0.001       60.398
     NS sqrt iter    2 1.00000000   0.428E+00       0.001      105.759
     NS sqrt iter    3 1.00000000   0.164E+00       0.001      107.536
     NS sqrt iter    4 1.00000000   0.186E-01       0.001      106.997
     NS sqrt iter    5 1.00000000   0.395E-04       0.001       86.645
     Symmetrizing Results
     Final NS sqrt iter    5 1.00000000   0.240E-08

 PAO| Read restart DM 2H2O_ref_LS_DM_SPIN_1_RESTART.dm with checksum:    54.238896589304886     
 PAO| Quickstep energy from restart density:  -34.448135037768608     
 PAO| ======================= Iteration:         1 =============================

     Lanczos converged:  T threshold:   0.100E-02
     Est. extremal eigenvalues:    0.328E+01   0.117E+00
     Est. condition number :    0.281E+02

 Order=           3
     NS sqrt iter    1 1.00000000   0.802E+00       0.001       64.512
     NS sqrt iter    2 1.00000000   0.428E+00       0.001      110.592
     NS sqrt iter    3 1.00000000   0.164E+00       0.001      100.933
     NS sqrt iter    4 1.00000000   0.186E-01       0.001       99.975
     NS sqrt iter    5 1.00000000   0.395E-04       0.001       81.114
     Symmetrizing Results
     Final NS sqrt iter    5 1.00000000   0.240E-08

     Est. extremal eigenvalues     -0.90991     1.77902  converged:  T
     TRS4 it   1 1.00000000   0.859E+00       0.000       16.128   0.100E-07
     TRS4 it   2 1.00000000   0.668E+00       0.001       32.256   0.100E-07
     TRS4 it   3 1.00000000   0.487E+00       0.001       32.256   0.100E-07
     TRS4 it   4 1.00000000   0.304E+00       0.001       32.256   0.100E-07
     TRS4 it   5 1.00000000   0.149E+00       0.001       32.256   0.100E-07
     TRS4 it   6 1.00000000   0.442E-01       0.001       32.256   0.100E-07
     TRS4 it   7 1.00000000   0.542E-02       0.001       32.256   0.100E-07
     TRS4 it   8 1.00000000   0.112E-03       0.001       32.256   0.100E-07
     TRS4 it   9 1.00000000   0.534E-07       0.001       32.256   0.100E-07
     Final TRS4 iteration    9 1.00000000   0.534E-07
     Chemical potential (mu):      -0.06830
 
 PAO| energy:  -7.5809877119493265      penalty:   6.1013460638187645E-033
 PAO|CG| warming up with steepest descent
 PAO|CG| beta:    0.0000000000000000     
 PAO| norm of gradient:  0.78439223710188077     
 PAO|LS| adapt:  T F F
 PAO|LS| adapt: scan_steps:    0.0000000000000000        0.0000000000000000        0.0000000000000000     
 PAO|LS| adapt: energies:   -7.5809877119493265        0.0000000000000000        0.0000000000000000     
 PAO| ======================= Iteration:         2 =============================

     Lanczos converged:  T threshold:   0.100E-02
     Est. extremal eigenvalues:    0.320E+01   0.131E+00
     Est. condition number :    0.244E+02

 Order=           3
     NS sqrt iter    1 1.00000000   0.786E+00       0.001       64.512
     NS sqrt iter    2 1.00000000   0.413E+00       0.001      110.592
     NS sqrt iter    3 1.00000000   0.146E+00       0.001      110.557
     NS sqrt iter    4 1.00000000   0.126E-01       0.001      110.055
     NS sqrt iter    5 1.00000000   0.114E-04       0.001       82.944
     Symmetrizing Results
     Final NS sqrt iter    5 1.00000000   0.200E-09

     Est. extremal eigenvalues     -0.91355     1.71895  converged:  T
     TRS4 it   1 1.00000000   0.851E+00       0.000       16.128   0.100E-07
     TRS4 it   2 1.00000000   0.647E+00       0.001       32.256   0.100E-07
     TRS4 it   3 1.00000000   0.467E+00       0.001       32.256   0.100E-07
     TRS4 it   4 1.00000000   0.281E+00       0.001       32.256   0.100E-07
     TRS4 it   5 1.00000000   0.127E+00       0.001       32.256   0.100E-07
     TRS4 it   6 1.00000000   0.324E-01       0.001       32.256   0.100E-07
     TRS4 it   7 1.00000000   0.298E-02       0.001       32.256   0.100E-07
     TRS4 it   8 1.00000000   0.340E-04       0.001       32.256   0.100E-07
     TRS4 it   9 1.00000000   0.500E-08       0.001       32.256   0.100E-07
     Final TRS4 iteration    9 1.00000000   0.500E-08
     Chemical potential (mu):      -0.05653
 
 PAO| energy:  -7.6366171658102955      penalty:   2.2586541942521547E-008
 PAO|LS| adapt:  T T F
 PAO|LS| adapt: scan_steps:    0.0000000000000000       0.10000000000000001        0.0000000000000000     
 PAO|LS| adapt: energies:   -7.5809877119493265       -7.6366171658102955        0.0000000000000000     
 PAO| ======================= Iteration:         3 =============================

     Lanczos converged:  T threshold:   0.100E-02
     Est. extremal eigenvalues:    0.311E+01   0.144E+00
     Est. condition number :    0.215E+02

 Order=           3
     NS sqrt iter    1 1.00000000   0.769E+00       0.001       58.257
     NS sqrt iter    2 1.00000000   0.397E+00       0.001       96.991
     NS sqrt iter    3 1.00000000   0.130E+00       0.001       98.716
     NS sqrt iter    4 1.00000000   0.849E-02       0.001       99.210
     NS sqrt iter    5 1.00000000   0.327E-05       0.001       76.122
     Symmetrizing Results
     Final NS sqrt iter    5 1.00000000   0.161E-10

     Est. extremal eigenvalues     -0.91695     1.67120  converged:  T
     TRS4 it   1 1.00000000   0.844E+00       0.000       16.128   0.100E-07
     TRS4 it   2 1.00000000   0.629E+00       0.001       32.256   0.100E-07
     TRS4 it   3 1.00000000   0.448E+00       0.001       32.256   0.100E-07
     TRS4 it   4 1.00000000   0.257E+00       0.001       32.256   0.100E-07
     TRS4 it   5 1.00000000   0.107E+00       0.001       32.256   0.100E-07
     TRS4 it   6 1.00000000   0.228E-01       0.001       32.256   0.100E-07
     TRS4 it   7 1.00000000   0.148E-02       0.001       32.256   0.100E-07
     TRS4 it   8 1.00000000   0.850E-05       0.001       32.256   0.100E-07
     TRS4 it   9 1.00000000   0.313E-09       0.001       32.256   0.100E-07
     Final TRS4 iteration    9 1.00000000   0.313E-09
     Chemical potential (mu):      -0.04353
 
 PAO| energy:  -7.6797637943330495      penalty:   3.6138466806720176E-007
 PAO|LS| adapt:  T T F
 PAO|LS| adapt: scan_steps:    0.0000000000000000       0.20000000000000001        0.0000000000000000     
 PAO|LS| adapt: energies:   -7.5809877119493265       -7.6797637943330495        0.0000000000000000     
 PAO| ======================= Iteration:         4 =============================

     Lanczos converged:  T threshold:   0.100E-02
     Est. extremal eigenvalues:    0.292E+01   0.166E+00
     Est. condition number :    0.176E+02

 Order=           3
     NS sqrt iter    1 1.00000000   0.735E+00       0.001       64.512
     NS sqrt iter    2 1.00000000   0.364E+00       0.001      110.592
     NS sqrt iter    3 1.00000000   0.101E+00       0.001      110.592
     NS sqrt iter    4 1.00000000   0.394E-02       0.001      110.592
     NS sqrt iter    5 1.00000000   0.344E-06       0.001       82.176
     Symmetrizing Results
     Final NS sqrt iter    5 1.00000000   0.242E-09

     Est. extremal eigenvalues     -0.92223     1.60559  converged:  T
     TRS4 it   1 1.00000000   0.835E+00       0.000       16.128   0.100E-07
     TRS4 it   2 1.00000000   0.599E+00       0.001       32.256   0.100E-07
     TRS4 it   3 1.00000000   0.412E+00       0.001       32.256   0.100E-07
     TRS4 it   4 1.00000000   0.215E+00       0.001       32.256   0.100E-07
     TRS4 it   5 1.00000000   0.730E-01       0.001       32.256   0.100E-07
     TRS4 it   6 1.00000000   0.103E-01       0.001       32.256   0.100E-07
     TRS4 it   7 1.00000000   0.286E-03       0.001       32.256   0.100E-07
     TRS4 it   8 1.00000000   0.317E-06       0.001       32.256   0.100E-07
     TRS4 it   9 1.00000000   0.443E-12       0.001       32.256   0.100E-07
     Final TRS4 iteration    9 1.00000000   0.443E-12
     Chemical potential (mu):      -0.01479
 
 PAO| energy:  -7.7268738688686005      penalty:   5.7821546649736222E-006
 PAO|LS| Need extra step
 PAO|LS| adapt:  T T F
 PAO|LS| adapt: scan_steps:    0.0000000000000000       0.40000000000000002        0.0000000000000000     
 PAO|LS| adapt: energies:   -7.5809877119493265       -7.7268738688686005        0.0000000000000000     
 PAO| ======================= Iteration:         5 =============================

     Lanczos converged:  T threshold:   0.100E-02
     Est. extremal eigenvalues:    0.257E+01   0.193E+00
     Est. condition number :    0.133E+02

 Order=           3
     NS sqrt iter    1 1.00000000   0.673E+00       0.001       57.867
     NS sqrt iter    2 1.00000000   0.303E+00       0.001       96.374
     NS sqrt iter    3 1.00000000   0.609E-01       0.001      100.742
     NS sqrt iter    4 1.00000000   0.999E-03       0.001       98.124
     NS sqrt iter    5 1.00000000   0.533E-08       0.001       36.858
     Symmetrizing Results
     Final NS sqrt iter    5 1.00000000   0.320E-08

     Est. extremal eigenvalues     -0.92338     1.54752  converged:  T
     TRS4 it   1 1.00000000   0.830E+00       0.000       16.128   0.100E-07
     TRS4 it   2 1.00000000   0.564E+00       0.001       32.256   0.100E-07
     TRS4 it   3 1.00000000   0.358E+00       0.001       32.256   0.100E-07
     TRS4 it   4 1.00000000   0.155E+00       0.001       32.256   0.100E-07
     TRS4 it   5 1.00000000   0.350E-01       0.001       32.256   0.100E-07
     TRS4 it   6 1.00000000   0.205E-02       0.001       32.256   0.100E-07
     TRS4 it   7 1.00000000   0.905E-05       0.001       32.256   0.100E-07
     TRS4 it   8 1.00000000   0.237E-09       0.001       32.256   0.100E-07
     Final TRS4 iteration    8 1.00000000   0.237E-09
     Chemical potential (mu):       0.03859
 
 PAO| energy:  -7.6703305502205321      penalty:   9.2514474446775882E-005
 PAO|LS| Need extra step
 PAO|LS| adapt:  T T T
 PAO|LS| adapt: scan_steps:    0.0000000000000000       0.40000000000000002       0.80000000000000004     
 PAO|LS| adapt: energies:   -7.5809877119493265       -7.7268738688686005       -7.6703305502205321     
 PAO|LS| adapt: suggested step_size:   0.48827058215786756     
 PAO|LS| adapt: predicted energy  -7.7318028340847480     
 PAO| ======================= Iteration:         6 =============================

     Lanczos converged:  T threshold:   0.100E-02
     Est. extremal eigenvalues:    0.283E+01   0.173E+00
     Est. condition number :    0.164E+02

 Order=           3
     NS sqrt iter    1 1.00000000   0.719E+00       0.001       64.512
     NS sqrt iter    2 1.00000000   0.349E+00       0.001      109.344
     NS sqrt iter    3 1.00000000   0.899E-01       0.001      110.592
     NS sqrt iter    4 1.00000000   0.286E-02       0.001      110.592
     NS sqrt iter    5 1.00000000   0.144E-06       0.001       78.464
     Symmetrizing Results
     Final NS sqrt iter    5 1.00000000   0.102E-08

     Est. extremal eigenvalues     -0.92366     1.58635  converged:  T
     TRS4 it   1 1.00000000   0.833E+00       0.000       16.128   0.100E-07
     TRS4 it   2 1.00000000   0.589E+00       0.001       32.256   0.100E-07
     TRS4 it   3 1.00000000   0.398E+00       0.001       32.256   0.100E-07
     TRS4 it   4 1.00000000   0.199E+00       0.001       32.256   0.100E-07
     TRS4 it   5 1.00000000   0.614E-01       0.001       32.256   0.100E-07
     TRS4 it   6 1.00000000   0.705E-02       0.001       32.256   0.100E-07
     TRS4 it   7 1.00000000   0.128E-03       0.001       32.256   0.100E-07
     TRS4 it   8 1.00000000   0.628E-07       0.001       32.256   0.100E-07
     Final TRS4 iteration    8 1.00000000   0.628E-07
     Chemical potential (mu):      -0.00081
 
 PAO| energy:  -7.7311210170916462      penalty:   1.2837840499798693E-005
 PAO|CG| warming up with steepest descent
 PAO|CG| beta:    0.0000000000000000     
 PAO| norm of gradient:  0.41681716592518692     
 PAO| energy improvement: -0.15013330514231971     
 PAO| step      6                   -7.731121017  0.261E-01  0.488E+00     0.104
 PAO|LS| adapt:  T F F
 PAO|LS| adapt: scan_steps:    0.0000000000000000        0.0000000000000000        0.0000000000000000     
 PAO|LS| adapt: energies:   -7.7311210170916462        0.0000000000000000        0.0000000000000000     
 PAO| ======================= Iteration:         7 =============================

     Lanczos converged:  T threshold:   0.100E-02
     Est. extremal eigenvalues:    0.275E+01   0.187E+00
     Est. condition number :    0.147E+02

 Order=           3
     NS sqrt iter    1 1.00000000   0.703E+00       0.001       57.689
     NS sqrt iter    2 1.00000000   0.329E+00       0.001       98.394
     NS sqrt iter    3 1.00000000   0.749E-01       0.001       98.099
     NS sqrt iter    4 1.00000000   0.170E-02       0.001       99.684
     NS sqrt iter    5 1.00000000   0.343E-07       0.001       62.340
     Symmetrizing Results
     Final NS sqrt iter    5 1.00000000   0.655E-09

     Est. extremal eigenvalues     -0.92522     1.58507  converged:  T
     TRS4 it   1 1.00000000   0.836E+00       0.000       16.128   0.100E-07
     TRS4 it   2 1.00000000   0.590E+00       0.001       32.256   0.100E-07
     TRS4 it   3 1.00000000   0.400E+00       0.001       32.256   0.100E-07
     TRS4 it   4 1.00000000   0.202E+00       0.001       32.256   0.100E-07
     TRS4 it   5 1.00000000   0.631E-01       0.017        1.928   0.100E-07
     TRS4 it   6 1.00000000   0.723E-02       0.001       32.256   0.100E-07
     TRS4 it   7 1.00000000   0.126E-03       0.001       32.256   0.100E-07
     TRS4 it   8 1.00000000   0.572E-07       0.001       32.256   0.100E-07
     Final TRS4 iteration    8 1.00000000   0.572E-07
     Chemical potential (mu):       0.00045
 
 PAO| energy:  -7.7257836206192536      penalty:   1.9363197426386197E-005
 PAO|LS| adapt:  T F T
 PAO|LS| adapt: scan_steps:    0.0000000000000000        0.0000000000000000       0.48827058215786756     
 PAO|LS| adapt: energies:   -7.7311210170916462        0.0000000000000000       -7.7257836206192536     
 PAO| ======================= Iteration:         8 =============================

     Lanczos converged:  T threshold:   0.100E-02
     Est. extremal eigenvalues:    0.279E+01   0.180E+00
     Est. condition number :    0.155E+02

 Order=           3
     NS sqrt iter    1 1.00000000   0.711E+00       0.001       58.616
     NS sqrt iter    2 1.00000000   0.339E+00       0.001      101.088
     NS sqrt iter    3 1.00000000   0.822E-01       0.001       97.997
     NS sqrt iter    4 1.00000000   0.222E-02       0.001       98.197
     NS sqrt iter    5 1.00000000   0.713E-07       0.001       68.501
     Symmetrizing Results
     Final NS sqrt iter    5 1.00000000   0.586E-09

     Est. extremal eigenvalues     -0.92533     1.58514  converged:  T
     TRS4 it   1 1.00000000   0.833E+00       0.000       16.128   0.100E-07
     TRS4 it   2 1.00000000   0.589E+00       0.001       32.256   0.100E-07
     TRS4 it   3 1.00000000   0.398E+00       0.001       32.256   0.100E-07
     TRS4 it   4 1.00000000   0.200E+00       0.013        2.534   0.100E-07
     TRS4 it   5 1.00000000   0.622E-01       0.001       32.256   0.100E-07
     TRS4 it   6 1.00000000   0.721E-02       0.001       32.256   0.100E-07
     TRS4 it   7 1.00000000   0.132E-03       0.001       32.256   0.100E-07
     TRS4 it   8 1.00000000   0.642E-07       0.001       32.256   0.100E-07
     Final TRS4 iteration    8 1.00000000   0.642E-07
     Chemical potential (mu):      -0.00053
 
 PAO| energy:  -7.7507924398002279      penalty:   1.3906032689647845E-005
 PAO|LS| adapt:  T T T
 PAO|LS| adapt: scan_steps:    0.0000000000000000       0.24413529107893378       0.48827058215786756     
 PAO|LS| adapt: energies:   -7.7311210170916462       -7.7507924398002279       -7.7257836206192536     
 PAO|LS| adapt: suggested step_size:   0.22955337761691383     
 PAO|LS| adapt: predicted energy  -7.7508721389018298     
 PAO| ======================= Iteration:         9 =============================

     Lanczos converged:  T threshold:   0.100E-02
     Est. extremal eigenvalues:    0.280E+01   0.179E+00
     Est. condition number :    0.156E+02

 Order=           3
     NS sqrt iter    1 1.00000000   0.712E+00       0.001       58.589
     NS sqrt iter    2 1.00000000   0.340E+00       0.001       95.938
     NS sqrt iter    3 1.00000000   0.826E-01       0.001       97.482
     NS sqrt iter    4 1.00000000   0.225E-02       0.001       97.431
     NS sqrt iter    5 1.00000000   0.745E-07       0.001       68.594
     Symmetrizing Results
     Final NS sqrt iter    5 1.00000000   0.750E-09

     Est. extremal eigenvalues     -0.92529     1.58517  converged:  T
     TRS4 it   1 1.00000000   0.833E+00       0.000       16.128   0.100E-07
     TRS4 it   2 1.00000000   0.589E+00       0.017        1.925   0.100E-07
     TRS4 it   3 1.00000000   0.398E+00       0.001       32.256   0.100E-07
     TRS4 it   4 1.00000000   0.200E+00       0.001       32.256   0.100E-07
     TRS4 it   5 1.00000000   0.621E-01       0.001       32.256   0.100E-07
     TRS4 it   6 1.00000000   0.721E-02       0.001       32.256   0.100E-07
     TRS4 it   7 1.00000000   0.132E-03       0.001       32.256   0.100E-07
     TRS4 it   8 1.00000000   0.644E-07       0.001       32.256   0.100E-07
     Final TRS4 iteration    8 1.00000000   0.644E-07
     Chemical potential (mu):      -0.00056
 
 PAO| energy:  -7.7508918837348553      penalty:   1.3753226863093055E-005
 PAO|CG| trace_G_new    3.5769040872698436E-002
 PAO|CG| trace_G_prev   0.17373654980990480     
 PAO|CG| trace_G_mix   -1.3120303564446789E-003
 PAO|CG| trace_D   0.17373654980990480     
 PAO|CG| trace_D_Gnew   1.3120303564446789E-003
 PAO|CG| beta:   0.21343275936880096     
 PAO| norm of gradient:  0.18912704955319964     
 PAO| energy improvement:  -1.9770866643209040E-002
 PAO| step      9                   -7.750891884  0.118E-01  0.230E+00     0.101
 PAO|LS| adapt:  T F F
 PAO|LS| adapt: scan_steps:    0.0000000000000000        0.0000000000000000        0.0000000000000000     
 PAO|LS| adapt: energies:   -7.7508918837348553        0.0000000000000000        0.0000000000000000     
 PAO| ======================= Iteration:        10 =============================

     Lanczos converged:  T threshold:   0.100E-02
     Est. extremal eigenvalues:    0.276E+01   0.185E+00
     Est. condition number :    0.149E+02

 Order=           3
     NS sqrt iter    1 1.00000000   0.704E+00       0.001       58.064
     NS sqrt iter    2 1.00000000   0.332E+00       0.001       96.817
     NS sqrt iter    3 1.00000000   0.772E-01       0.017        6.424
     NS sqrt iter    4 1.00000000   0.184E-02       0.001       98.124
     NS sqrt iter    5 1.00000000   0.409E-07       0.001       62.153
     Symmetrizing Results
     Final NS sqrt iter    5 1.00000000   0.416E-09

     Est. extremal eigenvalues     -0.92613     1.58377  converged:  T
     TRS4 it   1 1.00000000   0.833E+00       0.000       16.128   0.100E-07
     TRS4 it   2 1.00000000   0.589E+00       0.001       32.256   0.100E-07
     TRS4 it   3 1.00000000   0.397E+00       0.001       32.256   0.100E-07
     TRS4 it   4 1.00000000   0.198E+00       0.017        1.926   0.100E-07
     TRS4 it   5 1.00000000   0.605E-01       0.001       32.256   0.100E-07
     TRS4 it   6 1.00000000   0.677E-02       0.001       32.256   0.100E-07
     TRS4 it   7 1.00000000   0.114E-03       0.001       32.256   0.100E-07
     TRS4 it   8 1.00000000   0.471E-07       0.001       32.256   0.100E-07
     Final TRS4 iteration    8 1.00000000   0.471E-07
     Chemical potential (mu):       0.00226
 
 PAO| energy:  -7.7557224154194326      penalty:   1.4256618548170832E-005
 PAO|LS| adapt:  T T F
 PAO|LS| adapt: scan_steps:    0.0000000000000000       0.22955337761691383        0.0000000000000000     
 PAO|LS| adapt: energies:   -7.7508918837348553       -7.7557224154194326        0.0000000000000000     
 PAO| ======================= Iteration:        11 =============================

     Lanczos converged:  T threshold:   0.100E-02
     Est. extremal eigenvalues:    0.272E+01   0.191E+00
     Est. condition number :    0.143E+02

 Order=           3
     NS sqrt iter    1 1.00000000   0.697E+00       0.001       57.279
     NS sqrt iter    2 1.00000000   0.324E+00       0.001       93.631
     NS sqrt iter    3 1.00000000   0.720E-01       0.001       98.392
     NS sqrt iter    4 1.00000000   0.150E-02       0.001       97.537
     NS sqrt iter    5 1.00000000   0.218E-07       0.001       53.905
     Symmetrizing Results
     Final NS sqrt iter    5 1.00000000   0.233E-08

     Est. extremal eigenvalues     -0.92596     1.58485  converged:  T
     TRS4 it   1 1.00000000   0.833E+00       0.000       16.128   0.100E-07
     TRS4 it   2 1.00000000   0.588E+00       0.017        1.925   0.100E-07
     TRS4 it   3 1.00000000   0.396E+00       0.001       32.256   0.100E-07
     TRS4 it   4 1.00000000   0.196E+00       0.001       32.256   0.100E-07
     TRS4 it   5 1.00000000   0.591E-01       0.001       32.256   0.100E-07
     TRS4 it   6 1.00000000   0.640E-02       0.001       32.256   0.100E-07
     TRS4 it   7 1.00000000   0.994E-04       0.001       32.256   0.100E-07
     TRS4 it   8 1.00000000   0.351E-07       0.001       32.256   0.100E-07
     Final TRS4 iteration    8 1.00000000   0.351E-07
     Chemical potential (mu):       0.00514
 
 PAO| energy:  -7.7541616703581049      penalty:   1.5388485327608060E-005
 PAO|LS| adapt:  T T T
 PAO|LS| adapt: scan_steps:    0.0000000000000000       0.22955337761691383       0.45910675523382766     
 PAO|LS| adapt: energies:   -7.7508918837348553       -7.7557224154194326       -7.7541616703581049     
 PAO|LS| adapt: suggested step_size:   0.28827330113880290     
 PAO|LS| adapt: predicted energy  -7.7559315188776816     
 PAO| ======================= Iteration:        12 =============================

     Lanczos converged:  T threshold:   0.100E-02
     Est. extremal eigenvalues:    0.275E+01   0.187E+00
     Est. condition number :    0.147E+02

 Order=           3
     NS sqrt iter    1 1.00000000   0.703E+00       0.001       58.067
     NS sqrt iter    2 1.00000000   0.330E+00       0.001       98.044
     NS sqrt iter    3 1.00000000   0.758E-01       0.001       97.722
     NS sqrt iter    4 1.00000000   0.175E-02       0.001       99.480
     NS sqrt iter    5 1.00000000   0.350E-07       0.001       62.843
     Symmetrizing Results
     Final NS sqrt iter    5 1.00000000   0.366E-09

     Est. extremal eigenvalues     -0.92618     1.58381  converged:  T
     TRS4 it   1 1.00000000   0.833E+00       0.000       16.128   0.100E-07
     TRS4 it   2 1.00000000   0.588E+00       0.001       32.256   0.100E-07
     TRS4 it   3 1.00000000   0.396E+00       0.001       32.256   0.100E-07
     TRS4 it   4 1.00000000   0.197E+00       0.001       32.256   0.100E-07
     TRS4 it   5 1.00000000   0.601E-01       0.001       32.256   0.100E-07
     TRS4 it   6 1.00000000   0.667E-02       0.001       32.256   0.100E-07
     TRS4 it   7 1.00000000   0.110E-03       0.001       32.256   0.100E-07
     TRS4 it   8 1.00000000   0.436E-07       0.001       32.256   0.100E-07
     Final TRS4 iteration    8 1.00000000   0.436E-07
     Chemical potential (mu):       0.00299
 
 PAO| energy:  -7.7559167427271873      penalty:   1.4479738349178106E-005
 PAO|CG| trace_G_new    1.0842546358717352E-002
 PAO|CG| trace_G_prev    3.5769040872698436E-002
 PAO|CG| trace_G_mix   -4.3538800557035981E-004
 PAO|CG| trace_D    4.3123295706782284E-002
 PAO|CG| trace_D_Gnew   2.1757905284248004E-004
 PAO|CG| beta:   0.31529876365502052     
 PAO| norm of gradient:  0.10412754851007178     
 PAO| energy improvement:  -5.0248589923320708E-003
 PAO| step     12                   -7.755916743  0.651E-02  0.288E+00     0.121
 PAO|LS| adapt:  T F F
 PAO|LS| adapt: scan_steps:    0.0000000000000000        0.0000000000000000        0.0000000000000000     
 PAO|LS| adapt: energies:   -7.7559167427271873        0.0000000000000000        0.0000000000000000     
 PAO| ======================= Iteration:        13 =============================

     Lanczos converged:  T threshold:   0.100E-02
     Est. extremal eigenvalues:    0.272E+01   0.191E+00
     Est. condition number :    0.142E+02

 Order=           3
     NS sqrt iter    1 1.00000000   0.696E+00       0.001       57.901
     NS sqrt iter    2 1.00000000   0.323E+00       0.001       96.824
     NS sqrt iter    3 1.00000000   0.717E-01       0.001       99.012
     NS sqrt iter    4 1.00000000   0.149E-02       0.001       98.329
     NS sqrt iter    5 1.00000000   0.213E-07       0.001       52.944
     Symmetrizing Results
     Final NS sqrt iter    5 1.00000000   0.309E-08

     Est. extremal eigenvalues     -0.92662     1.57824  converged:  T
     TRS4 it   1 1.00000000   0.832E+00       0.000       16.128   0.100E-07
     TRS4 it   2 1.00000000   0.585E+00       0.001       32.256   0.100E-07
     TRS4 it   3 1.00000000   0.392E+00       0.001       32.256   0.100E-07
     TRS4 it   4 1.00000000   0.192E+00       0.001       32.256   0.100E-07
     TRS4 it   5 1.00000000   0.568E-01       0.001       32.256   0.100E-07
     TRS4 it   6 1.00000000   0.590E-02       0.001       32.256   0.100E-07
     TRS4 it   7 1.00000000   0.843E-04       0.001       32.256   0.100E-07
     TRS4 it   8 1.00000000   0.252E-07       0.001       32.256   0.100E-07
     Final TRS4 iteration    8 1.00000000   0.252E-07
     Chemical potential (mu):       0.00715
 
 PAO| energy:  -7.7577812548708973      penalty:   1.4703512334839061E-005
 PAO|LS| adapt:  T T F
 PAO|LS| adapt: scan_steps:    0.0000000000000000       0.28827330113880290        0.0000000000000000     
 PAO|LS| adapt: energies:   -7.7559167427271873       -7.7577812548708973        0.0000000000000000     
 PAO| ======================= Iteration:        14 =============================

     Lanczos converged:  T threshold:   0.100E-02
     Est. extremal eigenvalues:    0.269E+01   0.195E+00
     Est. condition number :    0.138E+02

 Order=           3
     NS sqrt iter    1 1.00000000   0.690E+00       0.001       59.393
     NS sqrt iter    2 1.00000000   0.317E+00       0.001       98.715
     NS sqrt iter    3 1.00000000   0.679E-01       0.001       99.864
     NS sqrt iter    4 1.00000000   0.126E-02       0.001      100.118
     NS sqrt iter    5 1.00000000   0.112E-07       0.001       39.988
     Symmetrizing Results
     Final NS sqrt iter    5 1.00000000   0.640E-08

     Est. extremal eigenvalues     -0.92660     1.57325  converged:  T
     TRS4 it   1 1.00000000   0.832E+00       0.000       16.128   0.100E-07
     TRS4 it   2 1.00000000   0.583E+00       0.001       32.256   0.100E-07
     TRS4 it   3 1.00000000   0.388E+00       0.001       32.256   0.100E-07
     TRS4 it   4 1.00000000   0.188E+00       0.001       32.256   0.100E-07
     TRS4 it   5 1.00000000   0.537E-01       0.001       32.256   0.100E-07
     TRS4 it   6 1.00000000   0.523E-02       0.001       32.256   0.100E-07
     TRS4 it   7 1.00000000   0.650E-04       0.001       32.256   0.100E-07
     TRS4 it   8 1.00000000   0.147E-07       0.001       32.256   0.100E-07
     Final TRS4 iteration    8 1.00000000   0.147E-07
     Chemical potential (mu):       0.01119
 
 PAO| energy:  -7.7572038944284492      penalty:   1.5331090880298634E-005
 PAO|LS| adapt:  T T T
 PAO|LS| adapt: scan_steps:    0.0000000000000000       0.28827330113880290       0.57654660227760579     
 PAO|LS| adapt: energies:   -7.7559167427271873       -7.7577812548708973       -7.7572038944284492     
 PAO|LS| adapt: suggested step_size:   0.36425012976051130     
 PAO|LS| adapt: predicted energy  -7.7578660647577573     
 PAO| ======================= Iteration:        15 =============================

     Lanczos converged:  T threshold:   0.100E-02
     Est. extremal eigenvalues:    0.271E+01   0.192E+00
     Est. condition number :    0.141E+02

 Order=           3
     NS sqrt iter    1 1.00000000   0.695E+00       0.001       59.165
     NS sqrt iter    2 1.00000000   0.322E+00       0.001       99.121
     NS sqrt iter    3 1.00000000   0.707E-01       0.001       98.753
     NS sqrt iter    4 1.00000000   0.142E-02       0.001       97.780
     NS sqrt iter    5 1.00000000   0.187E-07       0.001       53.302
     Symmetrizing Results
     Final NS sqrt iter    5 1.00000000   0.477E-09

     Est. extremal eigenvalues     -0.92665     1.57687  converged:  T
     TRS4 it   1 1.00000000   0.832E+00       0.000       16.128   0.100E-07
     TRS4 it   2 1.00000000   0.585E+00       0.001       32.256   0.100E-07
     TRS4 it   3 1.00000000   0.391E+00       0.001       32.256   0.100E-07
     TRS4 it   4 1.00000000   0.191E+00       0.001       32.256   0.100E-07
     TRS4 it   5 1.00000000   0.559E-01       0.001       32.256   0.100E-07
     TRS4 it   6 1.00000000   0.571E-02       0.001       32.256   0.100E-07
     TRS4 it   7 1.00000000   0.787E-04       0.001       32.256   0.100E-07
     TRS4 it   8 1.00000000   0.219E-07       0.001       32.256   0.100E-07
     Final TRS4 iteration    8 1.00000000   0.219E-07
     Chemical potential (mu):       0.00822
 
 PAO| energy:  -7.7578635340497790      penalty:   1.4827421798628898E-005
 PAO|CG| trace_G_new    2.2262310504221569E-003
 PAO|CG| trace_G_prev    1.0842546358717352E-002
 PAO|CG| trace_G_mix    7.7740369035777439E-005
 PAO|CG| trace_D    1.4992371125947651E-002
 PAO|CG| trace_D_Gnew   2.8463760072785786E-005
 PAO|CG| beta:   0.19815370027530516     
 PAO| norm of gradient:   4.7182952964202621E-002
 PAO| energy improvement:  -1.9467913225916789E-003
 PAO| step     15                   -7.757863534  0.295E-02  0.364E+00     0.056
 PAO|LS| adapt:  T F F
 PAO|LS| adapt: scan_steps:    0.0000000000000000        0.0000000000000000        0.0000000000000000     
 PAO|LS| adapt: energies:   -7.7578635340497790        0.0000000000000000        0.0000000000000000     
 PAO| ======================= Iteration:        16 =============================

     Lanczos converged:  T threshold:   0.100E-02
     Est. extremal eigenvalues:    0.270E+01   0.193E+00
     Est. condition number :    0.140E+02

 Order=           3
     NS sqrt iter    1 1.00000000   0.693E+00       0.001       59.482
     NS sqrt iter    2 1.00000000   0.321E+00       0.001       99.121
     NS sqrt iter    3 1.00000000   0.701E-01       0.001       98.957
     NS sqrt iter    4 1.00000000   0.139E-02       0.001       98.715
     NS sqrt iter    5 1.00000000   0.162E-07       0.001       46.238
     Symmetrizing Results
     Final NS sqrt iter    5 1.00000000   0.700E-08

     Est. extremal eigenvalues     -0.92668     1.57679  converged:  T
     TRS4 it   1 1.00000000   0.832E+00       0.000       16.128   0.100E-07
     TRS4 it   2 1.00000000   0.584E+00       0.001       32.256   0.100E-07
     TRS4 it   3 1.00000000   0.390E+00       0.001       32.256   0.100E-07
     TRS4 it   4 1.00000000   0.190E+00       0.001       32.256   0.100E-07
     TRS4 it   5 1.00000000   0.550E-01       0.001       32.256   0.100E-07
     TRS4 it   6 1.00000000   0.553E-02       0.001       32.256   0.100E-07
     TRS4 it   7 1.00000000   0.742E-04       0.001       32.256   0.100E-07
     TRS4 it   8 1.00000000   0.196E-07       0.001       32.256   0.100E-07
     Final TRS4 iteration    8 1.00000000   0.196E-07
     Chemical potential (mu):       0.00909
 
 PAO| energy:  -7.7579879991631557      penalty:   1.4565668786413131E-005
 PAO|LS| adapt:  T T F
 PAO|LS| adapt: scan_steps:    0.0000000000000000       0.36425012976051130        0.0000000000000000     
 PAO|LS| adapt: energies:   -7.7578635340497790       -7.7579879991631557        0.0000000000000000     
 PAO| ======================= Iteration:        17 =============================

     Lanczos converged:  T threshold:   0.100E-02
     Est. extremal eigenvalues:    0.270E+01   0.193E+00
     Est. condition number :    0.139E+02

 Order=           3
     NS sqrt iter    1 1.00000000   0.692E+00       0.001       58.085
     NS sqrt iter    2 1.00000000   0.319E+00       0.001       98.651
     NS sqrt iter    3 1.00000000   0.696E-01       0.001       99.345
     NS sqrt iter    4 1.00000000   0.135E-02       0.001       98.599
     NS sqrt iter    5 1.00000000   0.149E-07       0.001       45.515
     Symmetrizing Results
     Final NS sqrt iter    5 1.00000000   0.559E-08

     Est. extremal eigenvalues     -0.92658     1.57681  converged:  T
     TRS4 it   1 1.00000000   0.833E+00       0.000       16.128   0.100E-07
     TRS4 it   2 1.00000000   0.583E+00       0.001       32.256   0.100E-07
     TRS4 it   3 1.00000000   0.388E+00       0.001       32.256   0.100E-07
     TRS4 it   4 1.00000000   0.188E+00       0.001       32.256   0.100E-07
     TRS4 it   5 1.00000000   0.541E-01       0.001       32.256   0.100E-07
     TRS4 it   6 1.00000000   0.536E-02       0.001       32.256   0.100E-07
     TRS4 it   7 1.00000000   0.700E-04       0.001       32.256   0.100E-07
     TRS4 it   8 1.00000000   0.175E-07       0.001       32.256   0.100E-07
     Final TRS4 iteration    8 1.00000000   0.175E-07
     Chemical potential (mu):       0.00994
 
 PAO| energy:  -7.7567397754747791      penalty:   1.4400915049789512E-005
 PAO|LS| adapt:  T T T
 PAO|LS| adapt: scan_steps:    0.0000000000000000       0.36425012976051130       0.72850025952102260     
 PAO|LS| adapt: energies:   -7.7578635340497790       -7.7579879991631557       -7.7567397754747791     
 PAO|LS| adapt: suggested step_size:   0.21515253158663278     
 PAO|LS| adapt: predicted energy  -7.7581029954876390     
 PAO| ======================= Iteration:        18 =============================

     Lanczos converged:  T threshold:   0.100E-02
     Est. extremal eigenvalues:    0.271E+01   0.193E+00
     Est. condition number :    0.141E+02

 Order=           3
     NS sqrt iter    1 1.00000000   0.694E+00       0.001       59.724
     NS sqrt iter    2 1.00000000   0.321E+00       0.001       98.089
     NS sqrt iter    3 1.00000000   0.704E-01       0.001       98.876
     NS sqrt iter    4 1.00000000   0.140E-02       0.001       98.774
     NS sqrt iter    5 1.00000000   0.173E-07       0.001       49.942
     Symmetrizing Results
     Final NS sqrt iter    5 1.00000000   0.458E-08

     Est. extremal eigenvalues     -0.92669     1.57681  converged:  T
     TRS4 it   1 1.00000000   0.832E+00       0.000       16.128   0.100E-07
     TRS4 it   2 1.00000000   0.584E+00       0.001       32.256   0.100E-07
     TRS4 it   3 1.00000000   0.390E+00       0.001       32.256   0.100E-07
     TRS4 it   4 1.00000000   0.190E+00       0.001       32.256   0.100E-07
     TRS4 it   5 1.00000000   0.554E-01       0.001       32.256   0.100E-07
     TRS4 it   6 1.00000000   0.561E-02       0.001       32.256   0.100E-07
     TRS4 it   7 1.00000000   0.760E-04       0.001       32.256   0.100E-07
     TRS4 it   8 1.00000000   0.205E-07       0.001       32.256   0.100E-07
     Final TRS4 iteration    8 1.00000000   0.205E-07
     Chemical potential (mu):       0.00874
 
 PAO| energy:  -7.7581026789267131      penalty:   1.4661240745215779E-005
 PAO|CG| trace_G_new    6.5145440071090325E-004
 PAO|CG| trace_G_prev    2.2262310504221569E-003
 PAO|CG| trace_G_mix    1.4924343159052334E-006
 PAO|CG| trace_D    2.8036244387574000E-003
 PAO|CG| trace_D_Gnew  -1.3456782324463367E-006
 PAO|CG| beta:   0.29195620385931942     
 PAO| norm of gradient:   2.5523604775009805E-002
 PAO| energy improvement:  -2.3914487693410535E-004
 PAO| step     18                   -7.758102679  0.160E-02  0.215E+00     0.056
 PAO|LS| adapt:  T F F
 PAO|LS| adapt: scan_steps:    0.0000000000000000        0.0000000000000000        0.0000000000000000     
 PAO|LS| adapt: energies:   -7.7581026789267131        0.0000000000000000        0.0000000000000000     
 PAO| ======================= Iteration:        19 =============================

     Lanczos converged:  T threshold:   0.100E-02
     Est. extremal eigenvalues:    0.271E+01   0.192E+00
     Est. condition number :    0.141E+02

 Order=           3
     NS sqrt iter    1 1.00000000   0.694E+00       0.001       58.218
     NS sqrt iter    2 1.00000000   0.321E+00       0.001       96.647
     NS sqrt iter    3 1.00000000   0.706E-01       0.001       98.589
     NS sqrt iter    4 1.00000000   0.141E-02       0.001       99.124
     NS sqrt iter    5 1.00000000   0.175E-07       0.001       46.947
     Symmetrizing Results
     Final NS sqrt iter    5 1.00000000   0.458E-08

     Est. extremal eigenvalues     -0.92669     1.57709  converged:  T
     TRS4 it   1 1.00000000   0.832E+00       0.000       16.128   0.100E-07
     TRS4 it   2 1.00000000   0.584E+00       0.001       32.256   0.100E-07
     TRS4 it   3 1.00000000   0.390E+00       0.001       32.256   0.100E-07
     TRS4 it   4 1.00000000   0.190E+00       0.001       32.256   0.100E-07
     TRS4 it   5 1.00000000   0.553E-01       0.001       32.256   0.100E-07
     TRS4 it   6 1.00000000   0.560E-02       0.001       32.256   0.100E-07
     TRS4 it   7 1.00000000   0.764E-04       0.001       32.256   0.100E-07
     TRS4 it   8 1.00000000   0.208E-07       0.001       32.256   0.100E-07
     Final TRS4 iteration    8 1.00000000   0.208E-07
     Chemical potential (mu):       0.00858
 
 PAO| energy:  -7.7582079712319949      penalty:   1.4366194240950307E-005
 PAO|LS| adapt:  T T F
 PAO|LS| adapt: scan_steps:    0.0000000000000000       0.21515253158663278        0.0000000000000000     
 PAO|LS| adapt: energies:   -7.7581026789267131       -7.7582079712319949        0.0000000000000000     
 PAO| ======================= Iteration:        20 =============================

     Lanczos converged:  T threshold:   0.100E-02
     Est. extremal eigenvalues:    0.271E+01   0.192E+00
     Est. condition number :    0.141E+02

 Order=           3
     NS sqrt iter    1 1.00000000   0.694E+00       0.001       58.407
     NS sqrt iter    2 1.00000000   0.321E+00       0.001       99.026
     NS sqrt iter    3 1.00000000   0.708E-01       0.001      100.501
     NS sqrt iter    4 1.00000000   0.142E-02       0.001       98.513
     NS sqrt iter    5 1.00000000   0.177E-07       0.017        3.098
     Symmetrizing Results
     Final NS sqrt iter    5 1.00000000   0.458E-08

     Est. extremal eigenvalues     -0.92668     1.57737  converged:  T
     TRS4 it   1 1.00000000   0.832E+00       0.000       16.128   0.100E-07
     TRS4 it   2 1.00000000   0.584E+00       0.001       32.256   0.100E-07
     TRS4 it   3 1.00000000   0.390E+00       0.001       32.256   0.100E-07
     TRS4 it   4 1.00000000   0.190E+00       0.001       32.256   0.100E-07
     TRS4 it   5 1.00000000   0.552E-01       0.001       32.256   0.100E-07
     TRS4 it   6 1.00000000   0.560E-02       0.001       32.256   0.100E-07
     TRS4 it   7 1.00000000   0.767E-04       0.001       32.256   0.100E-07
     TRS4 it   8 1.00000000   0.211E-07       0.001       32.256   0.100E-07
     Final TRS4 iteration    8 1.00000000   0.211E-07
     Chemical potential (mu):       0.00843
 
 PAO| energy:  -7.7582430368411952      penalty:   1.4082984902188003E-005
 PAO|LS| adapt:  T T F
 PAO|LS| adapt: scan_steps:    0.0000000000000000       0.43030506317326556        0.0000000000000000     
 PAO|LS| adapt: energies:   -7.7581026789267131       -7.7582430368411952        0.0000000000000000     
 PAO| ======================= Iteration:        21 =============================

     Lanczos converged:  T threshold:   0.100E-02
     Est. extremal eigenvalues:    0.271E+01   0.192E+00
     Est. condition number :    0.141E+02

 Order=           3
     NS sqrt iter    1 1.00000000   0.693E+00       0.001       58.366
     NS sqrt iter    2 1.00000000   0.322E+00       0.001       98.327
     NS sqrt iter    3 1.00000000   0.712E-01       0.001       99.275
     NS sqrt iter    4 1.00000000   0.144E-02       0.001      100.320
     NS sqrt iter    5 1.00000000   0.183E-07       0.001       51.968
     Symmetrizing Results
     Final NS sqrt iter    5 1.00000000   0.434E-08

     Est. extremal eigenvalues     -0.92667     1.57795  converged:  T
     TRS4 it   1 1.00000000   0.833E+00       0.000       16.128   0.100E-07
     TRS4 it   2 1.00000000   0.584E+00       0.001       32.256   0.100E-07
     TRS4 it   3 1.00000000   0.390E+00       0.001       32.256   0.100E-07
     TRS4 it   4 1.00000000   0.190E+00       0.001       32.256   0.100E-07
     TRS4 it   5 1.00000000   0.551E-01       0.001       32.256   0.100E-07
     TRS4 it   6 1.00000000   0.560E-02       0.001       32.256   0.100E-07
     TRS4 it   7 1.00000000   0.775E-04       0.001       32.256   0.100E-07
     TRS4 it   8 1.00000000   0.218E-07       0.001       32.256   0.100E-07
     Final TRS4 iteration    8 1.00000000   0.218E-07
     Chemical potential (mu):       0.00811
 
 PAO| energy:  -7.7581005704795771      penalty:   1.3551456672046935E-005
 PAO|LS| Need extra step
 PAO|LS| adapt:  T T T
 PAO|LS| adapt: scan_steps:    0.0000000000000000       0.43030506317326556       0.86061012634653111     
 PAO|LS| adapt: energies:   -7.7581026789267131       -7.7582430368411952       -7.7581005704795771     
 PAO|LS| adapt: suggested step_size:   0.42870110701617326     
 PAO|LS| adapt: predicted energy  -7.7582430388059969     
 PAO| ======================= Iteration:        22 =============================

     Lanczos converged:  T threshold:   0.100E-02
     Est. extremal eigenvalues:    0.271E+01   0.192E+00
     Est. condition number :    0.141E+02

 Order=           3
     NS sqrt iter    1 1.00000000   0.694E+00       0.001       58.233
     NS sqrt iter    2 1.00000000   0.321E+00       0.001       97.744
     NS sqrt iter    3 1.00000000   0.708E-01       0.001       98.104
     NS sqrt iter    4 1.00000000   0.142E-02       0.001       98.067
     NS sqrt iter    5 1.00000000   0.177E-07       0.001       51.218
     Symmetrizing Results
     Final NS sqrt iter    5 1.00000000   0.458E-08

     Est. extremal eigenvalues     -0.92668     1.57737  converged:  T
     TRS4 it   1 1.00000000   0.832E+00       0.000       16.128   0.100E-07
     TRS4 it   2 1.00000000   0.584E+00       0.001       32.256   0.100E-07
     TRS4 it   3 1.00000000   0.390E+00       0.001       32.256   0.100E-07
     TRS4 it   4 1.00000000   0.190E+00       0.001       32.256   0.100E-07
     TRS4 it   5 1.00000000   0.552E-01       0.001       32.256   0.100E-07
     TRS4 it   6 1.00000000   0.560E-02       0.001       32.256   0.100E-07
     TRS4 it   7 1.00000000   0.767E-04       0.001       32.256   0.100E-07
     TRS4 it   8 1.00000000   0.211E-07       0.001       32.256   0.100E-07
     Final TRS4 iteration    8 1.00000000   0.211E-07
     Chemical potential (mu):       0.00843
 
 PAO| energy:  -7.7582430364223169      penalty:   1.4085052875411736E-005
 PAO|CG| trace_G_new    1.9884723718595796E-004
 PAO|CG| trace_G_prev    6.5145440071090325E-004
 PAO|CG| trace_G_mix    2.1434286130687012E-006
 PAO|CG| trace_D    8.9121669030015830E-004
 PAO|CG| trace_D_Gnew  -1.4869545833261369E-006
 PAO|CG| beta:   0.30194562867061014     
 PAO| norm of gradient:   1.4101320405761935E-002
 PAO| energy improvement:  -1.4035749560381561E-004
 PAO| step     22                   -7.758243036  0.881E-03  0.429E+00     0.089
 PAO|LS| adapt:  T F F
 PAO|LS| adapt: scan_steps:    0.0000000000000000        0.0000000000000000        0.0000000000000000     
 PAO|LS| adapt: energies:   -7.7582430364223169        0.0000000000000000        0.0000000000000000     
 PAO| ======================= Iteration:        23 =============================

     Lanczos converged:  T threshold:   0.100E-02
     Est. extremal eigenvalues:    0.271E+01   0.192E+00
     Est. condition number :    0.141E+02

 Order=           3
     NS sqrt iter    1 1.00000000   0.694E+00       0.001       58.769
     NS sqrt iter    2 1.00000000   0.321E+00       0.001       97.577
     NS sqrt iter    3 1.00000000   0.708E-01       0.001       99.361
     NS sqrt iter    4 1.00000000   0.142E-02       0.001       98.927
     NS sqrt iter    5 1.00000000   0.177E-07       0.001       49.783
     Symmetrizing Results
     Final NS sqrt iter    5 1.00000000   0.456E-08

     Est. extremal eigenvalues     -0.92669     1.57730  converged:  T
     TRS4 it   1 1.00000000   0.832E+00       0.000       16.128   0.100E-07
     TRS4 it   2 1.00000000   0.584E+00       0.001       32.256   0.100E-07
     TRS4 it   3 1.00000000   0.390E+00       0.001       32.256   0.100E-07
     TRS4 it   4 1.00000000   0.190E+00       0.001       32.256   0.100E-07
     TRS4 it   5 1.00000000   0.553E-01       0.001       32.256   0.100E-07
     TRS4 it   6 1.00000000   0.563E-02       0.001       32.256   0.100E-07
     TRS4 it   7 1.00000000   0.776E-04       0.001       32.256   0.100E-07
     TRS4 it   8 1.00000000   0.216E-07       0.001       32.256   0.100E-07
     Final TRS4 iteration    8 1.00000000   0.216E-07
     Chemical potential (mu):       0.00819
 
 PAO| energy:  -7.7582886679099294      penalty:   1.3438304330776367E-005
 PAO|LS| adapt:  T T F
 PAO|LS| adapt: scan_steps:    0.0000000000000000       0.42870110701617326        0.0000000000000000     
 PAO|LS| adapt: energies:   -7.7582430364223169       -7.7582886679099294        0.0000000000000000     
 PAO| ======================= Iteration:        24 =============================

     Lanczos converged:  T threshold:   0.100E-02
     Est. extremal eigenvalues:    0.271E+01   0.192E+00
     Est. condition number :    0.141E+02

 Order=           3
     NS sqrt iter    1 1.00000000   0.694E+00       0.001       59.452
     NS sqrt iter    2 1.00000000   0.322E+00       0.001       99.405
     NS sqrt iter    3 1.00000000   0.709E-01       0.001       98.989
     NS sqrt iter    4 1.00000000   0.142E-02       0.001       97.053
     NS sqrt iter    5 1.00000000   0.176E-07       0.001       49.708
     Symmetrizing Results
     Final NS sqrt iter    5 1.00000000   0.454E-08

     Est. extremal eigenvalues     -0.92668     1.57724  converged:  T
     TRS4 it   1 1.00000000   0.832E+00       0.000       16.128   0.100E-07
     TRS4 it   2 1.00000000   0.584E+00       0.001       32.256   0.100E-07
     TRS4 it   3 1.00000000   0.390E+00       0.001       32.256   0.100E-07
     TRS4 it   4 1.00000000   0.190E+00       0.001       32.256   0.100E-07
     TRS4 it   5 1.00000000   0.554E-01       0.001       32.256   0.100E-07
     TRS4 it   6 1.00000000   0.565E-02       0.001       32.256   0.100E-07
     TRS4 it   7 1.00000000   0.785E-04       0.001       32.256   0.100E-07
     TRS4 it   8 1.00000000   0.222E-07       0.001       32.256   0.100E-07
     Final TRS4 iteration    8 1.00000000   0.222E-07
     Chemical potential (mu):       0.00795
 
 PAO| energy:  -7.7582542231447915      penalty:   1.2816477345031679E-005
 PAO|LS| adapt:  T T T
 PAO|LS| adapt: scan_steps:    0.0000000000000000       0.42870110701617326       0.85740221403234651     
 PAO|LS| adapt: energies:   -7.7582430364223169       -7.7582886679099294       -7.7582542231447915     
 PAO|LS| adapt: suggested step_size:   0.45864606662661617     
 PAO|LS| adapt: predicted energy  -7.7582888632592919     
 PAO| ======================= Iteration:        25 =============================

     Lanczos converged:  T threshold:   0.100E-02
     Est. extremal eigenvalues:    0.271E+01   0.192E+00
     Est. condition number :    0.141E+02

 Order=           3
     NS sqrt iter    1 1.00000000   0.694E+00       0.001       58.754
     NS sqrt iter    2 1.00000000   0.321E+00       0.001       98.641
     NS sqrt iter    3 1.00000000   0.708E-01       0.001       96.863
     NS sqrt iter    4 1.00000000   0.142E-02       0.001       97.698
     NS sqrt iter    5 1.00000000   0.177E-07       0.001       49.943
     Symmetrizing Results
     Final NS sqrt iter    5 1.00000000   0.456E-08

     Est. extremal eigenvalues     -0.92669     1.57730  converged:  T
     TRS4 it   1 1.00000000   0.832E+00       0.000       16.128   0.100E-07
     TRS4 it   2 1.00000000   0.584E+00       0.001       32.256   0.100E-07
     TRS4 it   3 1.00000000   0.390E+00       0.001       32.256   0.100E-07
     TRS4 it   4 1.00000000   0.190E+00       0.001       32.256   0.100E-07
     TRS4 it   5 1.00000000   0.553E-01       0.001       32.256   0.100E-07
     TRS4 it   6 1.00000000   0.563E-02       0.001       32.256   0.100E-07
     TRS4 it   7 1.00000000   0.776E-04       0.001       32.256   0.100E-07
     TRS4 it   8 1.00000000   0.217E-07       0.001       32.256   0.100E-07
     Final TRS4 iteration    8 1.00000000   0.217E-07
     Chemical potential (mu):       0.00817
 
 PAO| energy:  -7.7582888713114997      penalty:   1.3394065742547422E-005
 PAO|CG| trace_G_new    6.5341360553275194E-005
 PAO|CG| trace_G_prev    1.9884723718595796E-004
 PAO|CG| trace_G_mix    6.1548339692240637E-007
 PAO|CG| trace_D    2.8099845790739898E-004
 PAO|CG| trace_D_Gnew  -2.6763079779601065E-007
 PAO|CG| beta:   0.32550553918846981     
 PAO| norm of gradient:   8.0834003088598293E-003
 PAO| energy improvement:  -4.5834889182749805E-005
 PAO| step     25                   -7.758288871  0.505E-03  0.459E+00     0.056
 PAO|LS| adapt:  T F F
 PAO|LS| adapt: scan_steps:    0.0000000000000000        0.0000000000000000        0.0000000000000000     
 PAO|LS| adapt: energies:   -7.7582888713114997        0.0000000000000000        0.0000000000000000     
 PAO| ======================= Iteration:        26 =============================

     Lanczos converged:  T threshold:   0.100E-02
     Est. extremal eigenvalues:    0.271E+01   0.192E+00
     Est. condition number :    0.141E+02

 Order=           3
     NS sqrt iter    1 1.00000000   0.693E+00       0.001       58.011
     NS sqrt iter    2 1.00000000   0.321E+00       0.001       99.302
     NS sqrt iter    3 1.00000000   0.707E-01       0.001       98.931
     NS sqrt iter    4 1.00000000   0.141E-02       0.001       97.422
     NS sqrt iter    5 1.00000000   0.175E-07       0.001       49.891
     Symmetrizing Results
     Final NS sqrt iter    5 1.00000000   0.455E-08

     Est. extremal eigenvalues     -0.92669     1.57721  converged:  T
     TRS4 it   1 1.00000000   0.832E+00       0.000       16.128   0.100E-07
     TRS4 it   2 1.00000000   0.584E+00       0.001       32.256   0.100E-07
     TRS4 it   3 1.00000000   0.390E+00       0.001       32.256   0.100E-07
     TRS4 it   4 1.00000000   0.190E+00       0.001       32.256   0.100E-07
     TRS4 it   5 1.00000000   0.553E-01       0.001       32.256   0.100E-07
     TRS4 it   6 1.00000000   0.561E-02       0.001       32.256   0.100E-07
     TRS4 it   7 1.00000000   0.770E-04       0.001       32.256   0.100E-07
     TRS4 it   8 1.00000000   0.213E-07       0.001       32.256   0.100E-07
     Final TRS4 iteration    8 1.00000000   0.213E-07
     Chemical potential (mu):       0.00832
 
 PAO| energy:  -7.7582906029998036      penalty:   1.2684584576847853E-005
 PAO|LS| adapt:  T T F
 PAO|LS| adapt: scan_steps:    0.0000000000000000       0.45864606662661617        0.0000000000000000     
 PAO|LS| adapt: energies:   -7.7582888713114997       -7.7582906029998036        0.0000000000000000     
 PAO| ======================= Iteration:        27 =============================

     Lanczos converged:  T threshold:   0.100E-02
     Est. extremal eigenvalues:    0.271E+01   0.192E+00
     Est. condition number :    0.141E+02

 Order=           3
     NS sqrt iter    1 1.00000000   0.693E+00       0.001       58.827
     NS sqrt iter    2 1.00000000   0.321E+00       0.001       99.526
     NS sqrt iter    3 1.00000000   0.706E-01       0.001       95.659
     NS sqrt iter    4 1.00000000   0.141E-02       0.001       99.377
     NS sqrt iter    5 1.00000000   0.174E-07       0.001       49.794
     Symmetrizing Results
     Final NS sqrt iter    5 1.00000000   0.455E-08

     Est. extremal eigenvalues     -0.92669     1.57712  converged:  T
     TRS4 it   1 1.00000000   0.833E+00       0.000       16.128   0.100E-07
     TRS4 it   2 1.00000000   0.584E+00       0.001       32.256   0.100E-07
     TRS4 it   3 1.00000000   0.390E+00       0.001       32.256   0.100E-07
     TRS4 it   4 1.00000000   0.190E+00       0.001       32.256   0.100E-07
     TRS4 it   5 1.00000000   0.552E-01       0.001       32.256   0.100E-07
     TRS4 it   6 1.00000000   0.559E-02       0.001       32.256   0.100E-07
     TRS4 it   7 1.00000000   0.765E-04       0.001       32.256   0.100E-07
     TRS4 it   8 1.00000000   0.209E-07       0.001       32.256   0.100E-07
     Final TRS4 iteration    8 1.00000000   0.209E-07
     Chemical potential (mu):       0.00847
 
 PAO| energy:  -7.7582356927783742      penalty:   1.1997996118770884E-005
 PAO|LS| adapt:  T T T
 PAO|LS| adapt: scan_steps:    0.0000000000000000       0.45864606662661617       0.91729213325323233     
 PAO|LS| adapt: energies:   -7.7582888713114997       -7.7582906029998036       -7.7582356927783742     
 PAO|LS| adapt: suggested step_size:   0.24334501867593442     
 PAO|LS| adapt: predicted energy  -7.7582968438654429     
 PAO| ======================= Iteration:        28 =============================

     Lanczos converged:  T threshold:   0.100E-02
     Est. extremal eigenvalues:    0.271E+01   0.192E+00
     Est. condition number :    0.141E+02

 Order=           3
     NS sqrt iter    1 1.00000000   0.693E+00       0.001       57.802
     NS sqrt iter    2 1.00000000   0.321E+00       0.001       97.388
     NS sqrt iter    3 1.00000000   0.707E-01       0.001       98.487
     NS sqrt iter    4 1.00000000   0.142E-02       0.001       98.369
     NS sqrt iter    5 1.00000000   0.176E-07       0.001       49.436
     Symmetrizing Results
     Final NS sqrt iter    5 1.00000000   0.456E-08

     Est. extremal eigenvalues     -0.92669     1.57725  converged:  T
     TRS4 it   1 1.00000000   0.832E+00       0.000       16.128   0.100E-07
     TRS4 it   2 1.00000000   0.584E+00       0.001       32.256   0.100E-07
     TRS4 it   3 1.00000000   0.390E+00       0.001       32.256   0.100E-07
     TRS4 it   4 1.00000000   0.190E+00       0.001       32.256   0.100E-07
     TRS4 it   5 1.00000000   0.553E-01       0.001       32.256   0.100E-07
     TRS4 it   6 1.00000000   0.562E-02       0.001       32.256   0.100E-07
     TRS4 it   7 1.00000000   0.773E-04       0.001       32.256   0.100E-07
     TRS4 it   8 1.00000000   0.215E-07       0.001       32.256   0.100E-07
     Final TRS4 iteration    8 1.00000000   0.215E-07
     Chemical potential (mu):       0.00825
 
 PAO| energy:  -7.7582968358799569      penalty:   1.3014766600833910E-005
 PAO|CG| trace_G_new    2.5416721343163765E-005
 PAO|CG| trace_G_prev    6.5341360553275194E-005
 PAO|CG| trace_G_mix    3.3021141612141258E-008
 PAO|CG| trace_D    9.5288461324805586E-005
 PAO|CG| trace_D_Gnew  -1.5426838878254626E-008
 PAO|CG| beta:   0.38847829287018548     
 PAO| norm of gradient:   5.0414999100628537E-003
 PAO| energy improvement:  -7.9645684571971742E-006
 PAO| step     28                   -7.758296836  0.315E-03  0.243E+00     0.056
 PAO|LS| adapt:  T F F
 PAO|LS| adapt: scan_steps:    0.0000000000000000        0.0000000000000000        0.0000000000000000     
 PAO|LS| adapt: energies:   -7.7582968358799569        0.0000000000000000        0.0000000000000000     
 PAO| ======================= Iteration:        29 =============================

     Lanczos converged:  T threshold:   0.100E-02
     Est. extremal eigenvalues:    0.271E+01   0.192E+00
     Est. condition number :    0.141E+02

 Order=           3
     NS sqrt iter    1 1.00000000   0.693E+00       0.001       59.831
     NS sqrt iter    2 1.00000000   0.321E+00       0.001       98.375
     NS sqrt iter    3 1.00000000   0.707E-01       0.001       98.690
     NS sqrt iter    4 1.00000000   0.141E-02       0.001       98.440
     NS sqrt iter    5 1.00000000   0.175E-07       0.001       49.456
     Symmetrizing Results
     Final NS sqrt iter    5 1.00000000   0.457E-08

     Est. extremal eigenvalues     -0.92669     1.57728  converged:  T
     TRS4 it   1 1.00000000   0.833E+00       0.000       16.128   0.100E-07
     TRS4 it   2 1.00000000   0.584E+00       0.001       32.256   0.100E-07
     TRS4 it   3 1.00000000   0.390E+00       0.001       32.256   0.100E-07
     TRS4 it   4 1.00000000   0.190E+00       0.001       32.256   0.100E-07
     TRS4 it   5 1.00000000   0.552E-01       0.001       32.256   0.100E-07
     TRS4 it   6 1.00000000   0.560E-02       0.001       32.256   0.100E-07
     TRS4 it   7 1.00000000   0.768E-04       0.001       32.256   0.100E-07
     TRS4 it   8 1.00000000   0.212E-07       0.001       32.256   0.100E-07
     Final TRS4 iteration    8 1.00000000   0.212E-07
     Chemical potential (mu):       0.00839
 
 PAO| energy:  -7.7583022286711776      penalty:   1.2614000451107615E-005
 PAO|LS| adapt:  T T F
 PAO|LS| adapt: scan_steps:    0.0000000000000000       0.24334501867593442        0.0000000000000000     
 PAO|LS| adapt: energies:   -7.7582968358799569       -7.7583022286711776        0.0000000000000000     
 PAO| ======================= Iteration:        30 =============================

     Lanczos converged:  T threshold:   0.100E-02
     Est. extremal eigenvalues:    0.271E+01   0.192E+00
     Est. condition number :    0.141E+02

 Order=           3
     NS sqrt iter    1 1.00000000   0.693E+00       0.001       58.696
     NS sqrt iter    2 1.00000000   0.321E+00       0.001       98.512
     NS sqrt iter    3 1.00000000   0.706E-01       0.001       97.145
     NS sqrt iter    4 1.00000000   0.141E-02       0.001       98.412
     NS sqrt iter    5 1.00000000   0.175E-07       0.001       49.863
     Symmetrizing Results
     Final NS sqrt iter    5 1.00000000   0.458E-08

     Est. extremal eigenvalues     -0.92669     1.57730  converged:  T
     TRS4 it   1 1.00000000   0.833E+00       0.000       16.128   0.100E-07
     TRS4 it   2 1.00000000   0.584E+00       0.001       32.256   0.100E-07
     TRS4 it   3 1.00000000   0.390E+00       0.001       32.256   0.100E-07
     TRS4 it   4 1.00000000   0.190E+00       0.001       32.256   0.100E-07
     TRS4 it   5 1.00000000   0.552E-01       0.001       32.256   0.100E-07
     TRS4 it   6 1.00000000   0.559E-02       0.001       32.256   0.100E-07
     TRS4 it   7 1.00000000   0.763E-04       0.001       32.256   0.100E-07
     TRS4 it   8 1.00000000   0.208E-07       0.001       32.256   0.100E-07
     Final TRS4 iteration    8 1.00000000   0.208E-07
     Chemical potential (mu):       0.00853
 
 PAO| energy:  -7.7583060335601362      penalty:   1.2220061381362371E-005
 PAO|LS| adapt:  T T F
 PAO|LS| adapt: scan_steps:    0.0000000000000000       0.48669003735186883        0.0000000000000000     
 PAO|LS| adapt: energies:   -7.7582968358799569       -7.7583060335601362        0.0000000000000000     
 PAO| ======================= Iteration:        31 =============================

     Lanczos converged:  T threshold:   0.100E-02
     Est. extremal eigenvalues:    0.271E+01   0.192E+00
     Est. condition number :    0.141E+02

 Order=           3
     NS sqrt iter    1 1.00000000   0.693E+00       0.001       58.327
     NS sqrt iter    2 1.00000000   0.321E+00       0.001       96.086
     NS sqrt iter    3 1.00000000   0.704E-01       0.001       97.325
     NS sqrt iter    4 1.00000000   0.140E-02       0.001       98.061
     NS sqrt iter    5 1.00000000   0.173E-07       0.001       48.890
     Symmetrizing Results
     Final NS sqrt iter    5 1.00000000   0.460E-08

     Est. extremal eigenvalues     -0.92670     1.57735  converged:  T
     TRS4 it   1 1.00000000   0.833E+00       0.000       16.128   0.100E-07
     TRS4 it   2 1.00000000   0.584E+00       0.001       32.256   0.100E-07
     TRS4 it   3 1.00000000   0.390E+00       0.001       32.256   0.100E-07
     TRS4 it   4 1.00000000   0.190E+00       0.001       32.256   0.100E-07
     TRS4 it   5 1.00000000   0.550E-01       0.001       32.256   0.100E-07
     TRS4 it   6 1.00000000   0.555E-02       0.001       32.256   0.100E-07
     TRS4 it   7 1.00000000   0.752E-04       0.001       32.256   0.100E-07
     TRS4 it   8 1.00000000   0.202E-07       0.001       32.256   0.100E-07
     Final TRS4 iteration    8 1.00000000   0.202E-07
     Chemical potential (mu):       0.00880
 
 PAO| energy:  -7.7583088801676254      penalty:   1.1452558459836760E-005
 PAO|LS| Need extra step
 PAO|LS| adapt:  T T F
 PAO|LS| adapt: scan_steps:    0.0000000000000000       0.97338007470373766        0.0000000000000000     
 PAO|LS| adapt: energies:   -7.7582968358799569       -7.7583088801676254        0.0000000000000000     
 PAO| ======================= Iteration:        32 =============================

     Lanczos converged:  T threshold:   0.100E-02
     Est. extremal eigenvalues:    0.270E+01   0.192E+00
     Est. condition number :    0.141E+02

 Order=           3
     NS sqrt iter    1 1.00000000   0.692E+00       0.001       56.556
     NS sqrt iter    2 1.00000000   0.320E+00       0.001       97.883
     NS sqrt iter    3 1.00000000   0.701E-01       0.001       99.256
     NS sqrt iter    4 1.00000000   0.139E-02       0.001       98.971
     NS sqrt iter    5 1.00000000   0.169E-07       0.001       48.877
     Symmetrizing Results
     Final NS sqrt iter    5 1.00000000   0.602E-08

     Est. extremal eigenvalues     -0.92670     1.57744  converged:  T
     TRS4 it   1 1.00000000   0.833E+00       0.000       16.128   0.100E-07
     TRS4 it   2 1.00000000   0.584E+00       0.001       32.256   0.100E-07
     TRS4 it   3 1.00000000   0.389E+00       0.001       32.256   0.100E-07
     TRS4 it   4 1.00000000   0.189E+00       0.001       32.256   0.100E-07
     TRS4 it   5 1.00000000   0.548E-01       0.001       32.256   0.100E-07
     TRS4 it   6 1.00000000   0.549E-02       0.001       32.256   0.100E-07
     TRS4 it   7 1.00000000   0.732E-04       0.001       32.256   0.100E-07
     TRS4 it   8 1.00000000   0.191E-07       0.001       32.256   0.100E-07
     Final TRS4 iteration    8 1.00000000   0.191E-07
     Chemical potential (mu):       0.00934
 
 PAO| energy:  -7.7582955214674048      penalty:   9.9983154562084317E-006
 PAO|LS| Need extra step
 PAO|LS| adapt:  T T T
 PAO|LS| adapt: scan_steps:    0.0000000000000000       0.97338007470373766        1.9467601494074753     
 PAO|LS| adapt: energies:   -7.7582968358799569       -7.7583088801676254       -7.7582955214674048     
 PAO|LS| adapt: suggested step_size:   0.94819754511771714     
 PAO|LS| adapt: predicted energy  -7.7583088886689895     
 PAO| ======================= Iteration:        33 =============================

     Lanczos converged:  T threshold:   0.100E-02
     Est. extremal eigenvalues:    0.271E+01   0.192E+00
     Est. condition number :    0.141E+02

 Order=           3
     NS sqrt iter    1 1.00000000   0.693E+00       0.001       58.232
     NS sqrt iter    2 1.00000000   0.321E+00       0.001       97.588
[...]
     Symmetrizing Results
     Final NS sqrt iter    5 1.00000000   0.684E-10

     Est. extremal eigenvalues     -0.92657     1.46371  converged:  T
     TRS4 it   1 1.00000000   0.819E+00       0.000       16.128   0.100E-07
     TRS4 it   2 1.00000000   0.588E+00       0.000       32.256   0.100E-07
     TRS4 it   3 1.00000000   0.418E+00       0.000       32.256   0.100E-07
     TRS4 it   4 1.00000000   0.250E+00       0.000       32.256   0.100E-07
     TRS4 it   5 1.00000000   0.114E+00       0.000       32.256   0.100E-07
     TRS4 it   6 1.00000000   0.300E-01       0.000       32.256   0.100E-07
     TRS4 it   7 1.00000000   0.297E-02       0.000       32.256   0.100E-07
     TRS4 it   8 1.00000000   0.361E-04       0.000       32.256   0.100E-07
     TRS4 it   9 1.00000000   0.568E-08       0.000       32.256   0.100E-07
     Final TRS4 iteration    9 1.00000000   0.568E-08
     Chemical potential (mu):      -0.07742
 
 PAO| energy:  -7.7586511081321339      penalty:   1.1302273591265401E-011
 PAO|CG| warming up with steepest descent
 PAO|CG| beta:    0.0000000000000000     
 PAO| norm of gradient:   6.8934613279065363E-006
 PAO| energy improvement:  -1.4223289213077805E-011
 PAO| step    929                   -7.758651108  0.431E-06  0.286E+00     0.049
 PAO| converged after          929  steps :-)
 PAO| Recalculating energy after mixing.

     Lanczos converged:  T threshold:   0.100E-02
     Est. extremal eigenvalues:    0.248E+01   0.217E+00
     Est. condition number :    0.114E+02

 Order=           3
     NS sqrt iter    1 1.00000000   0.631E+00       0.001       64.512
     NS sqrt iter    2 1.00000000   0.268E+00       0.001      110.592
     NS sqrt iter    3 1.00000000   0.429E-01       0.001      110.592
     NS sqrt iter    4 1.00000000   0.388E-03       0.001      109.824
     NS sqrt iter    5 1.00000000   0.505E-09       0.001       36.864
     Symmetrizing Results
     Final NS sqrt iter    5 1.00000000   0.684E-10

     Est. extremal eigenvalues     -0.92657     1.46371  converged:  T
     TRS4 it   1 1.00000000   0.819E+00       0.000       16.128   0.100E-07
     TRS4 it   2 1.00000000   0.588E+00       0.000       32.256   0.100E-07
     TRS4 it   3 1.00000000   0.418E+00       0.000       32.256   0.100E-07
     TRS4 it   4 1.00000000   0.250E+00       0.000       32.256   0.100E-07
     TRS4 it   5 1.00000000   0.114E+00       0.000       32.256   0.100E-07
     TRS4 it   6 1.00000000   0.300E-01       0.000       32.256   0.100E-07
     TRS4 it   7 1.00000000   0.297E-02       0.000       32.256   0.100E-07
     TRS4 it   8 1.00000000   0.361E-04       0.000       32.256   0.100E-07
     TRS4 it   9 1.00000000   0.568E-08       0.000       32.256   0.100E-07
     Final TRS4 iteration    9 1.00000000   0.568E-08
     Chemical potential (mu):      -0.07742
 
 PAO| energy:  -7.7586511081285767      penalty:   1.1433601816160343E-011
 PAO| Writing restart file.
     Est. extremal eigenvalues     -0.92657     1.46371  converged:  T
     TRS4 it   1 1.00000000   0.819E+00       0.000       16.128   0.100E-07
     TRS4 it   2 1.00000000   0.588E+00       0.000       32.256   0.100E-07
     TRS4 it   3 1.00000000   0.418E+00       0.000       32.256   0.100E-07
     TRS4 it   4 1.00000000   0.250E+00       0.000       32.256   0.100E-07
     TRS4 it   5 1.00000000   0.114E+00       0.000       32.256   0.100E-07
     TRS4 it   6 1.00000000   0.300E-01       0.000       32.256   0.100E-07
     TRS4 it   7 1.00000000   0.297E-02       0.000       32.256   0.100E-07
     TRS4 it   8 1.00000000   0.361E-04       0.000       32.256   0.100E-07
     TRS4 it   9 1.00000000   0.568E-08       0.000       32.256   0.100E-07
     Final TRS4 iteration    9 1.00000000   0.568E-08
     Chemical potential (mu):      -0.07742

 SCF     1       -34.447723561       -34.447723561    1.678196

*********************************************************
 Using MIXING_FRACTION=0.450 to mix KS matrix:  iscf=  2
 KS_nw=0.450*KS + 0.550*KS_old
*********************************************************
     Est. extremal eigenvalues     -0.92657     1.46371  converged:  T
     TRS4 it   1 1.00000000   0.819E+00       0.000       16.128   0.100E-07
     TRS4 it   2 1.00000000   0.588E+00       0.000       32.256   0.100E-07
     TRS4 it   3 1.00000000   0.418E+00       0.000       32.256   0.100E-07
     TRS4 it   4 1.00000000   0.250E+00       0.000       32.256   0.100E-07
     TRS4 it   5 1.00000000   0.114E+00       0.000       32.256   0.100E-07
     TRS4 it   6 1.00000000   0.300E-01       0.000       32.256   0.100E-07
     TRS4 it   7 1.00000000   0.297E-02       0.000       32.256   0.100E-07
     TRS4 it   8 1.00000000   0.361E-04       0.000       32.256   0.100E-07
     TRS4 it   9 1.00000000   0.568E-08       0.000       32.256   0.100E-07
     Final TRS4 iteration    9 1.00000000   0.568E-08
     Chemical potential (mu):      -0.07742

 SCF     2       -34.447723561        -0.000000000    1.336438


 SCF run converged in     2 steps.

 PAO| Storing density matrix for ASPC guess in slot:           1

 ENERGY| Total FORCE_EVAL ( QS ) energy [a.u.]:              -34.447723560823974

 -------------------------------------------------------------------------------
 -                                                                             -
 -                                DBCSR STATISTICS                             -
 -                                                                             -
 -------------------------------------------------------------------------------
 COUNTER                                    TOTAL       BLAS       SMM       ACC
 flops     5 x     5 x     4                32000       0.0%    100.0%      0.0%
 flops    13 x     5 x     4                33280       0.0%    100.0%      0.0%
 flops     5 x    13 x     4                33280       0.0%    100.0%      0.0%
 flops    13 x    13 x     4                64896       0.0%    100.0%      0.0%
 flops     4 x     4 x     5              7265280       0.0%    100.0%      0.0%
 flops     5 x     4 x     5              8857600       0.0%    100.0%      0.0%
 flops     4 x     4 x    13              9444864       0.0%    100.0%      0.0%
 flops    13 x     4 x     5             11514880       0.0%    100.0%      0.0%
 flops     5 x     4 x    13             11514880       0.0%    100.0%      0.0%
 flops     5 x     4 x     4             13772800       0.0%    100.0%      0.0%
 flops    13 x     4 x    13             14969344       0.0%    100.0%      0.0%
 flops    13 x     4 x     4             18115136       0.0%    100.0%      0.0%
 flops     4 x     4 x     4            918659456       0.0%    100.0%      0.0%
 flops inhomo. stacks                           0       0.0%      0.0%      0.0%
 flops total                         1.014278E+09       0.0%    100.0%      0.0%
 flops max/rank                      1.014278E+09       0.0%    100.0%      0.0%
 matmuls inhomo. stacks                         0       0.0%      0.0%      0.0%
 matmuls total                            7474749       0.0%    100.0%      0.0%
 number of processed stacks                 59978       0.0%    100.0%      0.0%
 average stack size                                     0.0     124.6       0.0
 marketing flops                     1.657100E+09
 -------------------------------------------------------------------------------
 # multiplications                          49938
 max memory usage/rank             506.699776E+06
 # max total images/rank                        1
 # max 3D layers                                1
 # MPI messages exchanged                       0
 -------------------------------------------------------------------------------

 -------------------------------------------------------------------------------
 -                                                                             -
 -                                DBM STATISTICS                               -
 -                                                                             -
 -------------------------------------------------------------------------------
    M  x    N  x    K                                          COUNT     PERCENT
 -------------------------------------------------------------------------------

 -------------------------------------------------------------------------------
 -                                                                             -
 -                                GRID STATISTICS                              -
 -                                                                             -
 -------------------------------------------------------------------------------
 LP    KERNEL             BACKEND                              COUNT     PERCENT
 2     collocate ortho    REF                                  60800      30.77%
 2     integrate ortho    REF                                  60800      30.77%
 3     collocate ortho    REF                                  31216      15.80%
 3     integrate ortho    REF                                  31216      15.80%
 4     collocate ortho    REF                                   6784       3.43%
 4     integrate ortho    REF                                   6784       3.43%
 0     collocate general  REF                                      6       0.00%
 -------------------------------------------------------------------------------

 MEMORY| Estimated peak process memory [MiB]                                 484

 -------------------------------------------------------------------------------
 -                                                                             -
 -                           R E F E R E N C E S                               -
 -                                                                             -
 -------------------------------------------------------------------------------
 
 CP2K version 2023.1 (Development Version), the CP2K developers group (2023).
 CP2K is freely available from https://www.cp2k.org/ .

 Kuehne,Thomas D.; Iannuzzi,Marcella; Del Ben,Mauro;
 Rybkin,Vladimir V.; Seewald,Patrick; Stein,Frederick; Laino,Teodoro;
 Khaliullin,Rustam Z.; Schuett,Ole; Schiffmann,Florian; Golze,Dorothea;
 Wilhelm,Jan; Chulkov,Sergey; Bani-Hashemian,Mohammad Hossein;
 Weber,Valery; Borstnik,Urban; Taillefumier,Mathieu;
 Jakobovits,Alice Shoshana; Lazzaro,Alfio; Pabst,Hans; Mueller,Tiziano;
 Schade,Robert; Guidon,Manuel; Andermatt,Samuel; Holmberg,Nico;
 Schenter,Gregory K.; Hehn,Anna; Bussy,Augustin; Belleflamme,Fabian;
 Tabacchi,Gloria; Gloess,Andreas; Lass,Michael; Bethune,Iain;
 Mundy,Christopher J.; Plessl,Christian; Watkins,Matt;
 VandeVondele,Joost; Krack,Matthias; Hutter,Juerg. 
 The Journal of Chemical Physics, 152 (19), (2020). 
 CP2K: An electronic structure and molecular dynamics software package -
 Quickstep: Efficient and accurate electronic structure calculations.
 https://doi.org/10.1063/5.0007045

 Schuett, O; VandeVondele, J. 
 Journal of Chemical Theory and Computation, 14, (2018). 
 Machine Learning Adaptive Basis Sets for Efficient Large Scale
 Density Functional Theory Simulation.
 https://doi.org/10.1021/acs.jctc.8b00378

 Schuett, Ole; Messmer, Peter; Hutter, Juerg; VandeVondele, Joost. 
 Electronic Structure Calculations on Graphics Processing Units, John
 Wiley & Sons, Ltd, 173-190 (2016). 
 GPU-Accelerated Sparse Matrix-Matrix Multiplication for
 Linear Scaling Density Functional Theory.
 https://doi.org/10.1002/9781118670712.ch8

 Heinecke, A; Henry, G; Hutchinson, M; Pabst, H. 
 Proceedings of Intl. Supercomputing Conference, 981-991 (2016). 
 LIBXSMM: Accelerating Small Matrix Multiplications
 by Runtime Code Generation.
 https://doi.org/10.1109/SC.2016.83

 Borstnik, U; VandeVondele, J; Weber, V; Hutter, J. 
 PARALLEL COMPUTING, 40 (5-6), 47-58 (2014). 
 Sparse matrix multiplication: The distributed block-compressed sparse
 row library.
 https://doi.org/10.1016/j.parco.2014.03.012

 Hutter, J; Iannuzzi, M; Schiffmann, F; VandeVondele, J. 
 WIREs Comput Mol Sci., 4 (1), 15-25 (2014). 
 CP2K: atomistic simulations of condensed matter systems.
 https://doi.org/10.1002/wcms.1159

 VandeVondele, J; Borstnik, U; Hutter, J. 
 JOURNAL OF CHEMICAL THEORY AND COMPUTATION, 8 (10), 3565-3573 (2012). 
 Linear Scaling Self-Consistent Field Calculations with Millions of Atoms
 in the Condensed Phase.
 https://doi.org/10.1021/ct200897x

 VandeVondele, J; Hutter, J. 
 JOURNAL OF CHEMICAL PHYSICS, 127 (11), 114105 (2007). 
 Gaussian basis sets for accurate calculations on molecular systems in
 gas and condensed phases.
 https://doi.org/10.1063/1.2770708

 Krack, M. 
 THEORETICAL CHEMISTRY ACCOUNTS, 114 (1-3), 145-152 (2005). 
 Pseudopotentials for H to Kr optimized for gradient-corrected
 exchange-correlation functionals.
 https://doi.org/10.1007/s00214-005-0655-y

 VandeVondele, J; Krack, M; Mohamed, F; Parrinello, M; Chassaing, T;
 Hutter, J. COMPUTER PHYSICS COMMUNICATIONS, 167 (2), 103-128 (2005). 
 QUICKSTEP: Fast and accurate density functional calculations using a
 mixed Gaussian and plane waves approach.
 https://doi.org/10.1016/j.cpc.2004.12.014

 Frigo, M; Johnson, SG. 
 PROCEEDINGS OF THE IEEE, 93 (2), 216-231 (2005). 
 The design and implementation of FFTW3.
 https://doi.org/10.1109/JPROC.2004.840301

 Niklasson, AMN; Tymczak, CJ; Challacombe, M. 
 JOURNAL OF CHEMICAL PHYSICS, 118 (19), 8611-8620 (2003). 
 Trace resetting density matrix purification in O(N)
 self-consistent-field theory.
 https://doi.org/10.1063/1.1559913

 Hartwigsen, C; Goedecker, S; Hutter, J. 
 PHYSICAL REVIEW B, 58 (7), 3641-3662 (1998). 
 Relativistic separable dual-space Gaussian pseudopotentials from H to Rn.
 https://doi.org/10.1103/PhysRevB.58.3641

 Lippert, G; Hutter, J; Parrinello, M. 
 MOLECULAR PHYSICS, 92 (3), 477-487 (1997). 
 A hybrid Gaussian and plane wave density functional scheme.
 https://doi.org/10.1080/002689797170220

 Perdew, JP; Burke, K; Ernzerhof, M. 
 PHYSICAL REVIEW LETTERS, 77 (18), 3865-3868 (1996). 
 Generalized gradient approximation made simple.
 https://doi.org/10.1103/PhysRevLett.77.3865

 Goedecker, S; Teter, M; Hutter, J. 
 PHYSICAL REVIEW B, 54 (3), 1703-1710 (1996). 
 Separable dual-space Gaussian pseudopotentials.
 https://doi.org/10.1103/PhysRevB.54.1703


 -------------------------------------------------------------------------------
 -                                                                             -
 -                                T I M I N G                                  -
 -                                                                             -
 -------------------------------------------------------------------------------
 SUBROUTINE                       CALLS  ASD         SELF TIME        TOTAL TIME
                                MAXIMUM       AVERAGE  MAXIMUM  AVERAGE  MAXIMUM
 CP2K                                 1  1.0    0.030    0.030   88.241   88.241
 qs_energies                          1  2.0    0.000    0.000   87.287   87.287
 ls_scf                               1  3.0    0.000    0.000   87.174   87.174
 ls_scf_main                          7  4.0    0.003    0.003   56.890   56.890
 ls_scf_dm_to_ks                     15  5.0    0.001    0.001   56.612   56.612
 qs_ks_update_qs_env                 16  6.0    0.000    0.000   47.025   47.025
 rebuild_ks_matrix                   16  7.0    0.000    0.000   47.024   47.024
 qs_ks_build_kohn_sham_matrix        16  8.0    0.005    0.005   47.024   47.024
 qs_vxc_create                       16  9.0    0.001    0.001   29.772   29.772
 xc_vxc_pw_create                    16 10.0    0.625    0.625   29.771   29.771
 pao_update                           7  4.0    0.022    0.022   24.558   24.558
 pw_transfer                        305 11.1    0.062    0.062   24.186   24.186
 fft_wrap_pw1pw2                    273 12.3    0.023    0.023   23.562   23.562
 fft_wrap_pw1pw2_200                177 13.7    2.560    2.560   22.659   22.659
 pao_calc_energy                    935  5.0    0.008    0.008   22.085   22.085
 dbcsr_multiply_generic           49938  8.4    1.182    1.182   17.605   17.605
 xc_pw_derive                        96 12.0    0.002    0.002   17.553   17.553
 xc_rho_set_and_dset_create          16 11.0    0.680    0.680   16.048   16.048
 qs_rho_update_rho_low               16  6.0    0.000    0.000   15.192   15.192
 calculate_rho_elec                  16  7.0    0.077    0.077   15.192   15.192
 sum_up_and_integrate                16  9.0    0.369    0.369   13.310   13.310
 integrate_v_rspace                  16 10.0    0.002    0.002   12.941   12.941
 xc_pw_divergence                    16 11.0    0.001    0.001   12.603   12.603
 pao_dm_trs4                        935  6.0    0.008    0.008   11.413   11.413
 density_matrix_trs4                950  7.0    0.383    0.383   10.917   10.917
 ls_scf_init_matrix_S               942  7.0    0.008    0.008   10.583   10.583
 pao_rebuild_S                      935  6.0    0.004    0.004   10.493   10.493
 grid_integrate_task_list            16 11.0   10.204   10.204   10.204   10.204
 fft3d_s                            274 14.2   10.001   10.001   10.083   10.083
 grid_collocate_task_list            16  8.0   10.001   10.001   10.001   10.001
 matrix_sqrt_Newton_Schulz          942  8.0    0.233    0.233    9.548    9.548
 make_m2s                         99876  9.4    0.482    0.482    6.638    6.638
 xc_functional_eval                  16 12.0    0.000    0.000    6.606    6.606
 pbe_lda_eval                        16 13.0    6.606    6.606    6.606    6.606
 multiply_cannon                  49938  9.4    2.678    2.678    6.520    6.520
 make_images                      99876 10.4    1.667    1.667    5.828    5.828
 pao_guess_initial_P                  1  4.0    0.000    0.000    5.615    5.615
 pao_read_preopt_dm                   1  5.0    0.000    0.000    5.615    5.615
 pw_gather_s                        129 13.8    5.591    5.591    5.591    5.591
 pw_scatter_s                       144 14.7    5.237    5.237    5.237    5.237
 density_rs2pw                       16  8.0    0.002    0.002    5.114    5.114
 arnoldi_extremal                  1892  8.5    0.009    0.009    3.546    3.546
 arnoldi_normal_ev                 1892  9.5    0.026    0.026    3.537    3.537
 pw_derive                           96 13.0    3.520    3.520    3.520    3.520
 build_subspace                    1892 10.5    0.162    0.162    2.785    2.785
 potential_pw2rs                     16 11.0    0.006    0.006    2.735    2.735
 dbcsr_matrix_vector_mult         44862 11.5    0.272    0.272    2.514    2.514
 pao_calc_AB                       1228  5.8    0.002    0.002    2.473    2.473
 pao_calc_AB_equi                  1228  6.8    0.095    0.095    2.471    2.471
 pw_copy                            192 11.8    2.308    2.308    2.308    2.308
 pao_calc_grad_lnv_wrt_AB           292  7.0    0.030    0.030    2.207    2.207
 dbcsr_create_new                383506 10.7    1.153    1.153    1.864    1.864
 pw_axpy                            144 10.3    1.844    1.844    1.844    1.844
 dbcsr_finalize                  119367  9.6    0.354    0.354    1.777    1.777
 -------------------------------------------------------------------------------

 The number of warnings for this run is : 0
 
 -------------------------------------------------------------------------------
  **** **** ******  **  PROGRAM ENDED AT                 2023-02-01 10:49:24.056
 ***** ** ***  *** **   PROGRAM RAN ON                                    moritz
 **    ****   ******    PROGRAM RAN BY                                       ole
 ***** **    ** ** **   PROGRAM PROCESS ID                                148676
  **** **  *******  **  PROGRAM STOPPED IN /home/ole/git/pao_ml_equivar/2H2O_MD/
                                           frame_0075
