 DBCSR| CPU Multiplication driver                                           XSMM (U)
 DBCSR| Multrec recursion limit                                              512 (U)
 DBCSR| Multiplication stack size                                           1000 (D)
 DBCSR| Maximum elements for images                                    UNLIMITED (U)
 DBCSR| Multiplicative factor virtual images                                   1 (U)
 DBCSR| Use multiplication densification                                       T (D)
 DBCSR| Multiplication size stacks                                             3 (U)
 DBCSR| Use memory pool for CPU allocation                                     F (U)
 DBCSR| OMP: Current number of threads                                         1
 DBCSR| OMP: Max number of threads                                             1
 DBCSR| Split modifier for TAS multiplication algorithm                  1.0E+00 (U)


  **** **** ******  **  PROGRAM STARTED AT               2023-01-22 17:34:12.238
 ***** ** ***  *** **   PROGRAM STARTED ON                                moritz
 **    ****   ******    PROGRAM STARTED BY                                   ole
 ***** **    ** ** **   PROGRAM PROCESS ID                                116724
  **** **  *******  **  PROGRAM STARTED IN /home/ole/git/pao_ml_equivar/2H2O_MD/
                                           frame_0075

 CP2K| version string:                 CP2K version 2023.1 (Development Version)
 CP2K| source code revision number:                                  git:cb52c7f
 CP2K| cp2kflags: omp libint fftw3 libxc quip xsmm spglib libvori libbqb libtorc
 CP2K|            h
 CP2K| is freely available from                            https://www.cp2k.org/
 CP2K| Program compiled at                           Mi 18 Jan 2023 11:14:10 CET
 CP2K| Program compiled on                                                moritz
 CP2K| Program compiled for                                                local
 CP2K| Data directory path                               /home/ole/git/cp2k/data
 CP2K| Input file name                                              2H2O_ref.inp

 GLOBAL| Force Environment number                                              1
 GLOBAL| Basis set file name                                        BASIS_MOLOPT
 GLOBAL| Potential file name                                      GTH_POTENTIALS
 GLOBAL| MM Potential file name                                     MM_POTENTIAL
 GLOBAL| Coordinate file name                                         coords.xyz
 GLOBAL| Method name                                                        CP2K
 GLOBAL| Project name                                                   2H2O_ref
 GLOBAL| Run type                                                         ENERGY
 GLOBAL| FFT library                                                       FFTW3
 GLOBAL| Diagonalization library                                       ScaLAPACK
 GLOBAL| DGEMM library                                                      BLAS
 GLOBAL| Orthonormality check for eigenvectors                          DISABLED
 GLOBAL| Matrix multiplication library                                 ScaLAPACK
 GLOBAL| All-to-all communication in single precision                          F
 GLOBAL| FFTs using library dependent lengths                                  F
 GLOBAL| Grid backend                                                       AUTO
 GLOBAL| Global print level                                                  LOW
 GLOBAL| MPI I/O enabled                                                       T
 GLOBAL| Total number of message passing processes                             1
 GLOBAL| Number of threads for this process                                    1
 GLOBAL| This output is from process                                           0
 GLOBAL| Stack size for threads created by OpenMP (OMP_STACKSIZE)        default
 GLOBAL| CPU model name           AMD Ryzen Threadripper 3970X 32-Core Processor
 GLOBAL| CPUID                                                              1002
 GLOBAL| Compiled for CPUID                                                    0

 *** HINT in environment.F:884 :: The compiler target flags (generic) used ***
 *** to build this binary cannot exploit all extensions of this CPU model  ***
 *** (x86_avx2). Consider compiler target flags as part of FCFLAGS and     ***
 *** CFLAGS (ARCH file).                                                   ***


 MEMORY| system memory details [Kb]
 MEMORY|                        rank 0           min           max       average
 MEMORY| MemTotal            131773860     131773860     131773860     131773860
 MEMORY| MemFree             117945416     117945416     117945416     117945416
 MEMORY| Buffers                437868        437868        437868        437868
 MEMORY| Cached                6651724       6651724       6651724       6651724
 MEMORY| Slab                   840084        840084        840084        840084
 MEMORY| SReclaimable           381664        381664        381664        381664
 MEMORY| MemLikelyFree       125416672     125416672     125416672     125416672


 GENERATE|  Preliminary Number of Bonds generated:                             0
 GENERATE|  Achieved consistency in connectivity generation.

 *******************************************************************************
 *******************************************************************************
 **                                                                           **
 **     #####                         ##              ##                      **
 **    ##   ##            ##          ##              ##                      **
 **   ##     ##                       ##            ######                    **
 **   ##     ##  ##   ##  ##   #####  ##  ##   ####   ##    #####    #####    **
 **   ##     ##  ##   ##  ##  ##      ## ##   ##      ##   ##   ##  ##   ##   **
 **   ##  ## ##  ##   ##  ##  ##      ####     ###    ##   ######   ######    **
 **    ##  ###   ##   ##  ##  ##      ## ##      ##   ##   ##       ##        **
 **     #######   #####   ##   #####  ##  ##  ####    ##    #####   ##        **
 **           ##                                                    ##        **
 **                                                                           **
 **                                                ... make the atoms dance   **
 **                                                                           **
 **            Copyright (C) by CP2K developers group (2000-2023)             **
 **                      J. Chem. Phys. 152, 194103 (2020)                    **
 **                                                                           **
 *******************************************************************************


 TOTAL NUMBERS AND MAXIMUM NUMBERS

  Total number of            - Atomic kinds:                                   2
                             - Atoms:                                          6
                             - Shell sets:                                     6
                             - Shells:                                        22
                             - Primitive Cartesian functions:                 42
                             - Cartesian basis functions:                     48
                             - Spherical basis functions:                     46

  Maximum angular momentum of- Orbital basis functions:                        2
                             - Local part of the GTH pseudopotential:          2
                             - Non-local part of the GTH pseudopotential:      0

 ------------------------------ Linear scaling SCF -----------------------------
 eps_scf:                                                              0.100E-07
 eps_filter:                                                           0.100E-07
 mixing_fraction:                                                      0.450E+00
 max_scf:                                                                     25
 fixed chemical potential (mu)                                                 F
 has unit metric:                                                              F
 Computing inv(S):                                                             T
 Computing sqrt(S):                                                            T
 Computing S preconditioner                                                    F
 S sqrt method:                                                     NEWTONSCHULZ
 S sqrt order:                                                                 3
 Extrapolation order:                                                          4
 Use single precision matrices                                                 F
 S preconditioner type                                                      NONE
 Polarized Atomic Orbitals (PAO)                                               F
 Purification method                                   Trace resetting 4th order
 Cluster type                                                             ATOMIC
 Computing Chebyshev                                                       FALSE
 Using PAO                                                                     F
 -------------------------------------------------------------------------------


     Lanczos converged:  T threshold:   0.100E-02
     Est. extremal eigenvalues:    0.393E+01   0.119E-01
     Est. condition number :    0.329E+03

 Order=           3
     NS sqrt iter    1 1.00000000   0.102E+01       0.002      248.427
     NS sqrt iter    2 1.00000000   0.598E+00       0.001      728.676
     NS sqrt iter    3 1.00000000   0.333E+00       0.001      727.675
     NS sqrt iter    4 1.00000000   0.229E+00       0.001      628.259
     NS sqrt iter    5 1.00000000   0.111E+00       0.001      607.492
     NS sqrt iter    6 1.00000000   0.123E-01       0.001      604.601
     NS sqrt iter    7 1.00000000   0.218E-04       0.001      457.829
     Symmetrizing Results
     Final NS sqrt iter    7 1.00000000   0.100E-08



 Guess for atomic kind: O

 Electronic structure
    Total number of core electrons                                          2.00
    Total number of valence electrons                                       6.00
    Total number of electrons                                               8.00
    Multiplicity                                                   not specified
    S   [  2.00] 2.00
    P      4.00


 *******************************************************************************
                  Iteration          Convergence                     Energy [au]
 *******************************************************************************
                          1        0.708315                     -15.576645311500
                          2        0.608879                     -15.587933561584
                          3        0.102828E-01                 -15.656849565404
                          4        0.113889E-02                 -15.656866888140
                          5        0.434197E-03                 -15.656867072159
                          6        0.263771E-03                 -15.656867091904
                          7        0.478536E-06                 -15.656867103452

 Energy components [Hartree]           Total Energy ::          -15.656867103452
                                        Band Energy ::           -3.000198112285
                                     Kinetic Energy ::           11.759971203220
                                   Potential Energy ::          -27.416838306672
                                      Virial (-V/T) ::            2.331369510426
                                        Core Energy ::          -26.140716385623
                                          XC Energy ::           -3.154051012914
                                     Coulomb Energy ::           13.637900295084
                       Total Pseudopotential Energy ::          -37.935781716540
                       Local Pseudopotential Energy ::          -39.218907440693
                    Nonlocal Pseudopotential Energy ::            1.283125724153
                                        Confinement ::            0.350941276976

 Orbital energies  State     L     Occupation   Energy[a.u.]          Energy[eV]

                       1     0          2.000      -0.864471          -23.523463

                       1     1          4.000      -0.317814           -8.648154


 Total Electron Density at R=0:                                         0.000068

 Guess for atomic kind: H

 Electronic structure
    Total number of core electrons                                          0.00
    Total number of valence electrons                                       1.00
    Total number of electrons                                               1.00
    Multiplicity                                                   not specified
    S      1.00


 *******************************************************************************
                  Iteration          Convergence                     Energy [au]
 *******************************************************************************
                          1        0.437545E-02                  -0.424159432110
                          2        0.531356E-03                  -0.424178438213
                          3        0.259176E-06                  -0.424178722480

 Energy components [Hartree]           Total Energy ::           -0.424178722480
                                        Band Energy ::           -0.199015229016
                                     Kinetic Energy ::            0.464007633961
                                   Potential Energy ::           -0.888186356441
                                      Virial (-V/T) ::            1.914163240935
                                        Core Energy ::           -0.479160803564
                                          XC Energy ::           -0.244352904054
                                     Coulomb Energy ::            0.299334985138
                       Total Pseudopotential Energy ::           -0.962295316385
                       Local Pseudopotential Energy ::           -0.962295316385
                    Nonlocal Pseudopotential Energy ::            0.000000000000
                                        Confinement ::            0.191268788606

 Orbital energies  State     L     Occupation   Energy[a.u.]          Energy[eV]

                       1     0          1.000      -0.199015           -5.415480


 Total Electron Density at R=0:                                         0.242907
 Re-scaling the density matrix to get the right number of electrons
                  # Electrons              Trace(P)               Scaling factor
                           16                15.990                        1.001
 Energy with the initial guess:       -34.120651097

     Est. extremal eigenvalues     -1.06624     3.74594  converged:  T
     TRS4 it   1 1.00000000   0.179E+01       0.000      117.484   0.100E-07
     TRS4 it   2 1.00000000   0.157E+01       0.000      117.484   0.100E-07
     TRS4 it   3 1.00000000   0.894E+00       0.001      234.968   0.100E-07
     TRS4 it   4 1.00000000   0.556E+00       0.001      234.968   0.100E-07
     TRS4 it   5 1.00000000   0.333E+00       0.001      234.968   0.100E-07
     TRS4 it   6 1.00000000   0.154E+00       0.001      234.968   0.100E-07
     TRS4 it   7 1.00000000   0.428E-01       0.001      234.968   0.100E-07
     TRS4 it   8 1.00000000   0.428E-02       0.001      234.968   0.100E-07
     TRS4 it   9 1.00000000   0.550E-04       0.001      234.968   0.100E-07
     TRS4 it  10 1.00000000   0.917E-08       0.001      234.968   0.100E-07
     Final TRS4 iteration   10 1.00000000   0.917E-08
     Chemical potential (mu):      -0.22807

 SCF     1       -34.241516634       -34.241516634    5.650910

*********************************************************
 Using MIXING_FRACTION=0.450 to mix KS matrix:  iscf=  2
 KS_nw=0.450*KS + 0.550*KS_old
*********************************************************
     Est. extremal eigenvalues     -0.91809     3.87097  converged:  T
     TRS4 it   1 1.00000000   0.176E+01       0.000      117.484   0.100E-07
     TRS4 it   2 1.00000000   0.159E+01       0.000      117.484   0.100E-07
     TRS4 it   3 1.00000000   0.960E+00       0.001      234.968   0.100E-07
     TRS4 it   4 1.00000000   0.592E+00       0.001      234.968   0.100E-07
     TRS4 it   5 1.00000000   0.398E+00       0.017       13.930   0.100E-07
     TRS4 it   6 1.00000000   0.232E+00       0.001      217.996   0.100E-07
     TRS4 it   7 1.00000000   0.106E+00       0.001      234.968   0.100E-07
     TRS4 it   8 1.00000000   0.292E-01       0.001      234.968   0.100E-07
     TRS4 it   9 1.00000000   0.309E-02       0.001      234.968   0.100E-07
     TRS4 it  10 1.00000000   0.379E-04       0.001      234.968   0.100E-07
     TRS4 it  11 1.00000000   0.606E-08       0.001      234.968   0.100E-07
     Final TRS4 iteration   11 1.00000000   0.606E-08
     Chemical potential (mu):      -0.11674

 SCF     2       -34.436781123        -0.195264489    5.436114

*********************************************************
 Using MIXING_FRACTION=0.450 to mix KS matrix:  iscf=  3
 KS_nw=0.450*KS + 0.550*KS_old
*********************************************************
     Est. extremal eigenvalues     -0.94186     3.85839  converged:  T
     TRS4 it   1 1.00000000   0.177E+01       0.000      117.484   0.100E-07
     TRS4 it   2 1.00000000   0.159E+01       0.000      117.484   0.100E-07
     TRS4 it   3 1.00000000   0.948E+00       0.001      234.968   0.100E-07
     TRS4 it   4 1.00000000   0.589E+00       0.001      234.968   0.100E-07
     TRS4 it   5 1.00000000   0.391E+00       0.001      234.968   0.100E-07
     TRS4 it   6 1.00000000   0.222E+00       0.001      234.968   0.100E-07
     TRS4 it   7 1.00000000   0.951E-01       0.001      234.968   0.100E-07
     TRS4 it   8 1.00000000   0.236E-01       0.001      234.968   0.100E-07
     TRS4 it   9 1.00000000   0.206E-02       0.001      234.968   0.100E-07
     TRS4 it  10 1.00000000   0.178E-04       0.001      234.968   0.100E-07
     TRS4 it  11 1.00000000   0.139E-08       0.001      234.968   0.100E-07
     Final TRS4 iteration   11 1.00000000   0.139E-08
     Chemical potential (mu):      -0.12831

 SCF     3       -34.447227124        -0.010446002    5.276104

*********************************************************
 Using MIXING_FRACTION=0.450 to mix KS matrix:  iscf=  4
 KS_nw=0.450*KS + 0.550*KS_old
*********************************************************
     Est. extremal eigenvalues     -0.92932     3.87097  converged:  T
     TRS4 it   1 1.00000000   0.177E+01       0.000      117.484   0.100E-07
     TRS4 it   2 1.00000000   0.159E+01       0.000      117.484   0.100E-07
     TRS4 it   3 1.00000000   0.953E+00       0.001      234.968   0.100E-07
     TRS4 it   4 1.00000000   0.592E+00       0.001      234.968   0.100E-07
     TRS4 it   5 1.00000000   0.396E+00       0.001      234.968   0.100E-07
     TRS4 it   6 1.00000000   0.229E+00       0.001      234.968   0.100E-07
     TRS4 it   7 1.00000000   0.102E+00       0.001      234.968   0.100E-07
     TRS4 it   8 1.00000000   0.274E-01       0.001      234.968   0.100E-07
     TRS4 it   9 1.00000000   0.286E-02       0.001      234.968   0.100E-07
     TRS4 it  10 1.00000000   0.354E-04       0.001      234.968   0.100E-07
     TRS4 it  11 1.00000000   0.558E-08       0.001      234.968   0.100E-07
     Final TRS4 iteration   11 1.00000000   0.558E-08
     Chemical potential (mu):      -0.11745

 SCF     4       -34.448055025        -0.000827901    4.674816

*********************************************************
 Using MIXING_FRACTION=0.450 to mix KS matrix:  iscf=  5
 KS_nw=0.450*KS + 0.550*KS_old
*********************************************************
     Est. extremal eigenvalues     -0.92964     3.87230  converged:  T
     TRS4 it   1 1.00000000   0.177E+01       0.001      115.709   0.100E-07
     TRS4 it   2 1.00000000   0.159E+01       0.001      117.484   0.100E-07
     TRS4 it   3 1.00000000   0.953E+00       0.001      233.742   0.100E-07
     TRS4 it   4 1.00000000   0.592E+00       0.001      234.968   0.100E-07
     TRS4 it   5 1.00000000   0.396E+00       0.001      234.968   0.100E-07
     TRS4 it   6 1.00000000   0.229E+00       0.001      222.279   0.100E-07
     TRS4 it   7 1.00000000   0.102E+00       0.001      234.968   0.100E-07
     TRS4 it   8 1.00000000   0.276E-01       0.001      231.601   0.100E-07
     TRS4 it   9 1.00000000   0.293E-02       0.001      234.968   0.100E-07
     TRS4 it  10 1.00000000   0.378E-04       0.002      132.551   0.100E-07
     TRS4 it  11 1.00000000   0.642E-08       0.001      234.968   0.100E-07
     Final TRS4 iteration   11 1.00000000   0.642E-08
     Chemical potential (mu):      -0.11639

 SCF     5       -34.448125586        -0.000070561    4.722391

*********************************************************
 Using MIXING_FRACTION=0.450 to mix KS matrix:  iscf=  6
 KS_nw=0.450*KS + 0.550*KS_old
*********************************************************
     Est. extremal eigenvalues     -0.92788     3.87444  converged:  T
     TRS4 it   1 1.00000000   0.177E+01       0.001       81.580   0.100E-07
     TRS4 it   2 1.00000000   0.159E+01       0.001      117.484   0.100E-07
     TRS4 it   3 1.00000000   0.953E+00       0.001      231.633   0.100E-07
     TRS4 it   4 1.00000000   0.593E+00       0.001      234.968   0.100E-07
     TRS4 it   5 1.00000000   0.397E+00       0.001      234.968   0.100E-07
     TRS4 it   6 1.00000000   0.230E+00       0.001      234.968   0.100E-07
     TRS4 it   7 1.00000000   0.103E+00       0.004       54.251   0.100E-07
     TRS4 it   8 1.00000000   0.283E-01       0.022       10.737   0.100E-07
     TRS4 it   9 1.00000000   0.309E-02       0.002      138.553   0.100E-07
     TRS4 it  10 1.00000000   0.424E-04       0.001      166.937   0.100E-07
     TRS4 it  11 1.00000000   0.809E-08       0.001      158.272   0.100E-07
     Final TRS4 iteration   11 1.00000000   0.809E-08
     Chemical potential (mu):      -0.11457

 SCF     6       -34.448133411        -0.000007825    5.021216

*********************************************************
 Using MIXING_FRACTION=0.450 to mix KS matrix:  iscf=  7
 KS_nw=0.450*KS + 0.550*KS_old
*********************************************************
     Est. extremal eigenvalues     -0.92750     3.87516  converged:  T
     TRS4 it   1 1.00000000   0.177E+01       0.001      114.050   0.100E-07
     TRS4 it   2 1.00000000   0.159E+01       0.000      117.484   0.100E-07
     TRS4 it   3 1.00000000   0.954E+00       0.001      234.968   0.100E-07
     TRS4 it   4 1.00000000   0.593E+00       0.001      234.968   0.100E-07
     TRS4 it   5 1.00000000   0.397E+00       0.001      234.968   0.100E-07
     TRS4 it   6 1.00000000   0.230E+00       0.001      234.968   0.100E-07
     TRS4 it   7 1.00000000   0.103E+00       0.001      234.968   0.100E-07
     TRS4 it   8 1.00000000   0.285E-01       0.001      234.968   0.100E-07
     TRS4 it   9 1.00000000   0.315E-02       0.001      234.968   0.100E-07
     TRS4 it  10 1.00000000   0.441E-04       0.001      234.968   0.100E-07
     TRS4 it  11 1.00000000   0.877E-08       0.001      234.968   0.100E-07
     Final TRS4 iteration   11 1.00000000   0.877E-08
     Chemical potential (mu):      -0.11396

 SCF     7       -34.448134679        -0.000001268    3.767453

*********************************************************
 Using MIXING_FRACTION=0.450 to mix KS matrix:  iscf=  8
 KS_nw=0.450*KS + 0.550*KS_old
*********************************************************
     Est. extremal eigenvalues     -0.92714     3.87565  converged:  T
     TRS4 it   1 1.00000000   0.177E+01       0.003       41.345   0.100E-07
     TRS4 it   2 1.00000000   0.159E+01       0.003       45.775   0.100E-07
     TRS4 it   3 1.00000000   0.954E+00       0.004       63.852   0.100E-07
     TRS4 it   4 1.00000000   0.593E+00       0.003       67.728   0.100E-07
     TRS4 it   5 1.00000000   0.397E+00       0.004       65.086   0.100E-07
     TRS4 it   6 1.00000000   0.230E+00       0.003       72.846   0.100E-07
     TRS4 it   7 1.00000000   0.104E+00       0.003       71.229   0.100E-07
     TRS4 it   8 1.00000000   0.286E-01       0.004       66.654   0.100E-07
     TRS4 it   9 1.00000000   0.319E-02       0.005       48.887   0.100E-07
     TRS4 it  10 1.00000000   0.453E-04       0.003       72.027   0.100E-07
     TRS4 it  11 1.00000000   0.925E-08       0.001      208.458   0.100E-07
     Final TRS4 iteration   11 1.00000000   0.925E-08
     Chemical potential (mu):      -0.11355

 SCF     8       -34.448134963        -0.000000284    3.469565

*********************************************************
 Using MIXING_FRACTION=0.450 to mix KS matrix:  iscf=  9
 KS_nw=0.450*KS + 0.550*KS_old
*********************************************************
     Est. extremal eigenvalues     -0.92699     3.87587  converged:  T
     TRS4 it   1 1.00000000   0.177E+01       0.001      117.484   0.100E-07
     TRS4 it   2 1.00000000   0.159E+01       0.000      117.484   0.100E-07
     TRS4 it   3 1.00000000   0.954E+00       0.002      107.970   0.100E-07
     TRS4 it   4 1.00000000   0.593E+00       0.001      234.968   0.100E-07
     TRS4 it   5 1.00000000   0.398E+00       0.001      234.968   0.100E-07
     TRS4 it   6 1.00000000   0.230E+00       0.001      234.968   0.100E-07
     TRS4 it   7 1.00000000   0.104E+00       0.001      234.968   0.100E-07
     TRS4 it   8 1.00000000   0.287E-01       0.001      234.968   0.100E-07
     TRS4 it   9 1.00000000   0.321E-02       0.001      234.968   0.100E-07
     TRS4 it  10 1.00000000   0.459E-04       0.001      234.968   0.100E-07
     TRS4 it  11 1.00000000   0.949E-08       0.001      234.968   0.100E-07
     Final TRS4 iteration   11 1.00000000   0.949E-08
     Chemical potential (mu):      -0.11335

 SCF     9       -34.448135038        -0.000000075    3.123011


 SCF run converged in     9 steps.

 Writing restart DM 2H2O_ref_LS_DM_SPIN_1_RESTART.dm with checksum:       0.54238897E+02

 ENERGY| Total FORCE_EVAL ( QS ) energy [a.u.]:              -34.448135037768608

 -------------------------------------------------------------------------------
 -                                                                             -
 -                                DBCSR STATISTICS                             -
 -                                                                             -
 -------------------------------------------------------------------------------
 COUNTER                                    TOTAL       BLAS       SMM       ACC
 flops     5 x     5 x     5              2774750       0.0%    100.0%      0.0%
 flops     5 x    13 x     5              3115450       0.0%    100.0%      0.0%
 flops    13 x     5 x     5              3115450       0.0%    100.0%      0.0%
 flops     5 x     5 x    13              3595800       0.0%    100.0%      0.0%
 flops    13 x     5 x    13              4056000       0.0%    100.0%      0.0%
 flops     5 x    13 x    13              4056000       0.0%    100.0%      0.0%
 flops    13 x    13 x     5              5306600       0.0%    100.0%      0.0%
 flops    13 x    13 x    13              6933732       0.0%    100.0%      0.0%
 flops inhomo. stacks                           0       0.0%      0.0%      0.0%
 flops total                        32.953782E+06       0.0%    100.0%      0.0%
 flops max/rank                     32.953782E+06       0.0%    100.0%      0.0%
 matmuls inhomo. stacks                         0       0.0%      0.0%      0.0%
 matmuls total                              35735       0.0%    100.0%      0.0%
 number of processed stacks                  1955       0.0%    100.0%      0.0%
 average stack size                                     0.0      18.3       0.0
 marketing flops                    47.889312E+06
 -------------------------------------------------------------------------------
 # multiplications                            246
 max memory usage/rank             418.955264E+06
 # max total images/rank                        1
 # max 3D layers                                1
 # MPI messages exchanged                       0
 -------------------------------------------------------------------------------

 -------------------------------------------------------------------------------
 -                                                                             -
 -                                DBM STATISTICS                               -
 -                                                                             -
 -------------------------------------------------------------------------------
    M  x    N  x    K                                          COUNT     PERCENT
 -------------------------------------------------------------------------------

 -------------------------------------------------------------------------------
 -                                                                             -
 -                                GRID STATISTICS                              -
 -                                                                             -
 -------------------------------------------------------------------------------
 LP    KERNEL             BACKEND                              COUNT     PERCENT
 2     collocate ortho    REF                                  38000      30.77%
 2     integrate ortho    REF                                  38000      30.77%
 3     collocate ortho    REF                                  19510      15.80%
 3     integrate ortho    REF                                  19510      15.80%
 4     collocate ortho    REF                                   4240       3.43%
 4     integrate ortho    REF                                   4240       3.43%
 0     collocate general  REF                                      6       0.00%
 -------------------------------------------------------------------------------

 MEMORY| Estimated peak process memory [MiB]                                 400

 -------------------------------------------------------------------------------
 -                                                                             -
 -                           R E F E R E N C E S                               -
 -                                                                             -
 -------------------------------------------------------------------------------
 
 CP2K version 2023.1 (Development Version), the CP2K developers group (2023).
 CP2K is freely available from https://www.cp2k.org/ .

 Kuehne,Thomas D.; Iannuzzi,Marcella; Del Ben,Mauro;
 Rybkin,Vladimir V.; Seewald,Patrick; Stein,Frederick; Laino,Teodoro;
 Khaliullin,Rustam Z.; Schuett,Ole; Schiffmann,Florian; Golze,Dorothea;
 Wilhelm,Jan; Chulkov,Sergey; Bani-Hashemian,Mohammad Hossein;
 Weber,Valery; Borstnik,Urban; Taillefumier,Mathieu;
 Jakobovits,Alice Shoshana; Lazzaro,Alfio; Pabst,Hans; Mueller,Tiziano;
 Schade,Robert; Guidon,Manuel; Andermatt,Samuel; Holmberg,Nico;
 Schenter,Gregory K.; Hehn,Anna; Bussy,Augustin; Belleflamme,Fabian;
 Tabacchi,Gloria; Gloess,Andreas; Lass,Michael; Bethune,Iain;
 Mundy,Christopher J.; Plessl,Christian; Watkins,Matt;
 VandeVondele,Joost; Krack,Matthias; Hutter,Juerg. 
 The Journal of Chemical Physics, 152 (19), (2020). 
 CP2K: An electronic structure and molecular dynamics software package -
 Quickstep: Efficient and accurate electronic structure calculations.
 https://doi.org/10.1063/5.0007045

 Schuett, Ole; Messmer, Peter; Hutter, Juerg; VandeVondele, Joost. 
 Electronic Structure Calculations on Graphics Processing Units, John
 Wiley & Sons, Ltd, 173-190 (2016). 
 GPU-Accelerated Sparse Matrix-Matrix Multiplication for
 Linear Scaling Density Functional Theory.
 https://doi.org/10.1002/9781118670712.ch8

 Heinecke, A; Henry, G; Hutchinson, M; Pabst, H. 
 Proceedings of Intl. Supercomputing Conference, 981-991 (2016). 
 LIBXSMM: Accelerating Small Matrix Multiplications
 by Runtime Code Generation.
 https://doi.org/10.1109/SC.2016.83

 Borstnik, U; VandeVondele, J; Weber, V; Hutter, J. 
 PARALLEL COMPUTING, 40 (5-6), 47-58 (2014). 
 Sparse matrix multiplication: The distributed block-compressed sparse
 row library.
 https://doi.org/10.1016/j.parco.2014.03.012

 Hutter, J; Iannuzzi, M; Schiffmann, F; VandeVondele, J. 
 WIREs Comput Mol Sci., 4 (1), 15-25 (2014). 
 CP2K: atomistic simulations of condensed matter systems.
 https://doi.org/10.1002/wcms.1159

 VandeVondele, J; Borstnik, U; Hutter, J. 
 JOURNAL OF CHEMICAL THEORY AND COMPUTATION, 8 (10), 3565-3573 (2012). 
 Linear Scaling Self-Consistent Field Calculations with Millions of Atoms
 in the Condensed Phase.
 https://doi.org/10.1021/ct200897x

 VandeVondele, J; Hutter, J. 
 JOURNAL OF CHEMICAL PHYSICS, 127 (11), 114105 (2007). 
 Gaussian basis sets for accurate calculations on molecular systems in
 gas and condensed phases.
 https://doi.org/10.1063/1.2770708

 Krack, M. 
 THEORETICAL CHEMISTRY ACCOUNTS, 114 (1-3), 145-152 (2005). 
 Pseudopotentials for H to Kr optimized for gradient-corrected
 exchange-correlation functionals.
 https://doi.org/10.1007/s00214-005-0655-y

 VandeVondele, J; Krack, M; Mohamed, F; Parrinello, M; Chassaing, T;
 Hutter, J. COMPUTER PHYSICS COMMUNICATIONS, 167 (2), 103-128 (2005). 
 QUICKSTEP: Fast and accurate density functional calculations using a
 mixed Gaussian and plane waves approach.
 https://doi.org/10.1016/j.cpc.2004.12.014

 Frigo, M; Johnson, SG. 
 PROCEEDINGS OF THE IEEE, 93 (2), 216-231 (2005). 
 The design and implementation of FFTW3.
 https://doi.org/10.1109/JPROC.2004.840301

 Niklasson, AMN; Tymczak, CJ; Challacombe, M. 
 JOURNAL OF CHEMICAL PHYSICS, 118 (19), 8611-8620 (2003). 
 Trace resetting density matrix purification in O(N)
 self-consistent-field theory.
 https://doi.org/10.1063/1.1559913

 Hartwigsen, C; Goedecker, S; Hutter, J. 
 PHYSICAL REVIEW B, 58 (7), 3641-3662 (1998). 
 Relativistic separable dual-space Gaussian pseudopotentials from H to Rn.
 https://doi.org/10.1103/PhysRevB.58.3641

 Lippert, G; Hutter, J; Parrinello, M. 
 MOLECULAR PHYSICS, 92 (3), 477-487 (1997). 
 A hybrid Gaussian and plane wave density functional scheme.
 https://doi.org/10.1080/002689797170220

 Perdew, JP; Burke, K; Ernzerhof, M. 
 PHYSICAL REVIEW LETTERS, 77 (18), 3865-3868 (1996). 
 Generalized gradient approximation made simple.
 https://doi.org/10.1103/PhysRevLett.77.3865

 Goedecker, S; Teter, M; Hutter, J. 
 PHYSICAL REVIEW B, 54 (3), 1703-1710 (1996). 
 Separable dual-space Gaussian pseudopotentials.
 https://doi.org/10.1103/PhysRevB.54.1703


 -------------------------------------------------------------------------------
 -                                                                             -
 -                                T I M I N G                                  -
 -                                                                             -
 -------------------------------------------------------------------------------
 SUBROUTINE                       CALLS  ASD         SELF TIME        TOTAL TIME
                                MAXIMUM       AVERAGE  MAXIMUM  AVERAGE  MAXIMUM
 CP2K                                 1  1.0    0.011    0.011   48.422   48.422
 qs_energies                          1  2.0    0.000    0.000   47.390   47.390
 ls_scf                               1  3.0    0.000    0.000   47.243   47.243
 ls_scf_main                          1  4.0    0.001    0.001   41.143   41.143
 ls_scf_dm_to_ks                      9  5.0    0.000    0.000   40.906   40.906
 qs_ks_update_qs_env                 10  6.1    0.000    0.000   35.954   35.954
 rebuild_ks_matrix                   10  7.1    0.000    0.000   35.953   35.953
 qs_ks_build_kohn_sham_matrix        10  8.1    0.004    0.004   35.953   35.953
 qs_vxc_create                       10  9.1    0.000    0.000   21.894   21.894
 xc_vxc_pw_create                    10 10.1    0.453    0.453   21.894   21.894
 pw_transfer                        191 11.2    0.058    0.058   19.021   19.021
 fft_wrap_pw1pw2                    171 12.4    0.005    0.005   18.428   18.428
 fft_wrap_pw1pw2_200                111 13.8    2.043    2.043   17.836   17.836
 xc_pw_derive                        60 12.1    0.002    0.002   13.461   13.461
 xc_rho_set_and_dset_create          10 11.1    0.545    0.545   12.507   12.507
 qs_rho_update_rho_low               10  6.1    0.000    0.000   11.034   11.034
 calculate_rho_elec                  10  7.1    0.091    0.091   11.034   11.034
 sum_up_and_integrate                10  9.1    0.317    0.317   10.560   10.560
 integrate_v_rspace                  10 10.1    0.001    0.001   10.243   10.243
 xc_pw_divergence                    10 11.1    0.001    0.001    8.668    8.668
 grid_integrate_task_list            10 11.1    8.031    8.031    8.031    8.031
 fft3d_s                            172 14.3    7.822    7.822    7.846    7.846
 grid_collocate_task_list            10  8.1    6.752    6.752    6.752    6.752
 ls_scf_init_scf                      1  4.0    0.000    0.000    6.098    6.098
 ls_scf_initial_guess                 1  5.0    0.000    0.000    6.085    6.085
 ls_scf_qs_atomic_guess               1  6.0    0.000    0.000    6.085    6.085
 xc_functional_eval                  10 12.1    0.000    0.000    4.450    4.450
 pbe_lda_eval                        10 13.1    4.450    4.450    4.450    4.450
 pw_scatter_s                        90 14.8    4.447    4.447    4.447    4.447
 density_rs2pw                       10  8.1    0.001    0.001    4.192    4.192
 pw_gather_s                         81 13.9    4.021    4.021    4.021    4.021
 pw_derive                           60 13.1    2.752    2.752    2.752    2.752
 potential_pw2rs                     10 11.1    0.006    0.006    2.211    2.211
 pw_copy                            120 11.9    1.942    1.942    1.942    1.942
 pw_axpy                             90 10.4    1.389    1.389    1.389    1.389
 pw_poisson_solve                    10  9.1    0.252    0.252    1.354    1.354
 qs_init_subsys                       1  2.0    0.001    0.001    0.992    0.992
 qs_env_setup                         1  3.0    0.000    0.000    0.991    0.991
 qs_env_rebuild_pw_env                2  3.5    0.000    0.000    0.991    0.991
 pw_env_rebuild                       1  5.0    0.000    0.000    0.991    0.991
 pw_grid_setup                        4  6.0    0.000    0.000    0.985    0.985
 pw_grid_setup_internal               4  7.0    0.005    0.005    0.985    0.985
 -------------------------------------------------------------------------------

 The number of warnings for this run is : 0
 
 -------------------------------------------------------------------------------
  **** **** ******  **  PROGRAM ENDED AT                 2023-01-22 17:35:00.916
 ***** ** ***  *** **   PROGRAM RAN ON                                    moritz
 **    ****   ******    PROGRAM RAN BY                                       ole
 ***** **    ** ** **   PROGRAM PROCESS ID                                116724
  **** **  *******  **  PROGRAM STOPPED IN /home/ole/git/pao_ml_equivar/2H2O_MD/
                                           frame_0075
