 DBCSR| CPU Multiplication driver                                           BLAS
 DBCSR| Multrec recursion limit                                              512
 DBCSR| Multiplication stack size                                           1000
 DBCSR| Maximum elements for images                                    UNLIMITED
 DBCSR| Multiplicative factor virtual images                                   1
 DBCSR| Use multiplication densification                                       T
 DBCSR| Multiplication size stacks                                             3


  **** **** ******  **  PROGRAM STARTED AT               2019-03-28 17:31:45.740
 ***** ** ***  *** **   PROGRAM STARTED ON        oleschuett.zrh.corp.google.com
 **    ****   ******    PROGRAM STARTED BY                            oleschuett
 ***** **    ** ** **   PROGRAM PROCESS ID                                 29194
  **** **  *******  **  PROGRAM STARTED IN /usr/local/google/home/oleschuett/git
                                           /pao_ml_equivar/2H2O_rotations/phi_04

 CP2K| version string:                    CP2K version 7.0 (Development Version)
 CP2K| source code revision number:                                git:d9814d431
 CP2K| cp2kflags: libint fftw3 libxc libderiv_max_am1=5 libint_max_am=6         
 CP2K| is freely available from                            https://www.cp2k.org/
 CP2K| Program compiled at                          Mon Mar 25 16:50:07 CET 2019
 CP2K| Program compiled on                        oleschuett.zrh.corp.google.com
 CP2K| Program compiled for                                                local
 CP2K| Data directory path       /usr/local/google/home/oleschuett/git/cp2k/data
 CP2K| Input file name                                            2H2O_pao44.inp

 GLOBAL| Force Environment number                                              1
 GLOBAL| Basis set file name                                        BASIS_MOLOPT
 GLOBAL| Potential file name                                      GTH_POTENTIALS
 GLOBAL| MM Potential file name                                     MM_POTENTIAL
 GLOBAL| Coordinate file name                                         coords.xyz
 GLOBAL| Method name                                                        CP2K
 GLOBAL| Project name                                                 2H2O_pao44
 GLOBAL| Preferred FFT library                                             FFTW3
 GLOBAL| Preferred diagonalization lib.                                       SL
 GLOBAL| Run type                                                         ENERGY
 GLOBAL| All-to-all communication in single precision                          F
 GLOBAL| FFTs using library dependent lengths                                  F
 GLOBAL| Global print level                                                  LOW
 GLOBAL| MPI I/O enabled                                                       T
 GLOBAL| Total number of message passing processes                             1
 GLOBAL| Number of threads for this process                                    1
 GLOBAL| This output is from process                                           0
 GLOBAL| CPU model name :  Intel(R) Xeon(R) CPU E5-1650 v4 @ 3.60GHz

 MEMORY| system memory details [Kb]
 MEMORY|                        rank 0           min           max       average
 MEMORY| MemTotal             65953612      65953612      65953612      65953612
 MEMORY| MemFree               6701564       6701564       6701564       6701564
 MEMORY| Buffers               2547996       2547996       2547996       2547996
 MEMORY| Cached               25385676      25385676      25385676      25385676
 MEMORY| Slab                  3623792       3623792       3623792       3623792
 MEMORY| SReclaimable          2422904       2422904       2422904       2422904
 MEMORY| MemLikelyFree        37058140      37058140      37058140      37058140


 GENERATE|  Preliminary Number of Bonds generated:                             0
 GENERATE|  Achieved consistency in connectivity generation.

 *******************************************************************************
 *******************************************************************************
 **                                                                           **
 **     #####                         ##              ##                      **
 **    ##   ##            ##          ##              ##                      **
 **   ##     ##                       ##            ######                    **
 **   ##     ##  ##   ##  ##   #####  ##  ##   ####   ##    #####    #####    **
 **   ##     ##  ##   ##  ##  ##      ## ##   ##      ##   ##   ##  ##   ##   **
 **   ##  ## ##  ##   ##  ##  ##      ####     ###    ##   ######   ######    **
 **    ##  ###   ##   ##  ##  ##      ## ##      ##   ##   ##       ##        **
 **     #######   #####   ##   #####  ##  ##  ####    ##    #####   ##        **
 **           ##                                                    ##        **
 **                                                                           **
 **                                                ... make the atoms dance   **
 **                                                                           **
 **            Copyright (C) by CP2K developers group (2000 - 2018)           **
 **                                                                           **
 *******************************************************************************


 TOTAL NUMBERS AND MAXIMUM NUMBERS

  Total number of            - Atomic kinds:                                   2
                             - Atoms:                                          6
                             - Shell sets:                                     6
                             - Shells:                                        22
                             - Primitive Cartesian functions:                 42
                             - Cartesian basis functions:                     48
                             - Spherical basis functions:                     46

  Maximum angular momentum of- Orbital basis functions:                        2
                             - Local part of the GTH pseudopotential:          2
                             - Non-local part of the GTH pseudopotential:      0

 ------------------------------ Linear scaling SCF -----------------------------
 eps_scf:                                                              0.100E-07
 eps_filter:                                                           0.100E-07
 mixing_fraction:                                                      0.450E+00
 max_scf:                                                                     25
 fixed chemical potential (mu)                                                 F
 has unit metric:                                                              F
 Computing inv(S):                                                             T
 Computing sqrt(S):                                                            T
 Computing s preconditioner                                                    F
 sign sqrt order:                                                              3
 Extrapolation order:                                                          1
 Use single precision matrices                                                 F
 S preconditioner type                                                      NONE
 Polarized Atomic Orbitals (PAO)                                               T
 Purification method                                   Trace resetting 4th order
 Cluster type                                                             ATOMIC
 Computing Chebyshev                                                       FALSE
 Using PAO                                                                     T
 -------------------------------------------------------------------------------

 
 PAO|                                  EPS_PAO                           0.1E-04
 PAO|                                  MIXING                            0.5E+00
 PAO|                                  MAX_PAO                              1000
 PAO|                                  MAX_CYCLES                           1000
 PAO|                                  PARAMETERIZATION                   DIRECT
 PAO|                                  PRECONDITION                            F
 PAO|                                  REGULARIZATION                    0.0E+00
 PAO|                                  EPS_PGF                           0.1E-09
 PAO|                                  PENALTY_DISTANCE                  0.1E+00
 PAO|                                  PENALTY_STRENGTH                  0.5E-02
 PAO|                                  LINPOT_PRECONDITION_DELTA         0.0E+00
 PAO|                                  LINPOT_INITGUESS_DELT             0.0E+00
 PAO|                                  LINPOT_REGULARIZATION_DELTA       0.0E+00
 PAO|                                  LINPOT_REGULARIZATION_STRENGTH    0.0E+00
 PAO|                                  OPTIMIZER                              CG
 PAO|                                  CG_INIT_STEPS                           2
 PAO|                                  CG_RESET_LIMIT                    0.1E+00
 PAO|                                  CHECK_UNITARY_TOL                -0.1E+01
 PAO|                                  CHECK_GRADIENT_TOL               -0.1E+01
 PAO|                                  NUM_GRADIENT_ORDER                      2
 PAO|                                  NUM_GRADIENT_EPS                  0.1E-07
 PAO|                                  PRINT%RESTART%WRITE_CYCLES            100
 PAO|                                  RESTART_FILE 
 PAO|                                  PREOPT_DM_FILE 2H2O_ref_LS_DM_SPIN_1_RESTART.dm
 PAO|                                  MACHINE_LEARNING%METHOD        GAUSSIAN_P
 PAO|                                  MACHINE_LEARNING%PRIOR               ZERO
 PAO|                                  MACHINE_LEARNING%DESCRIPTOR     POTENTIAL
 PAO|                                  MACHINE_LEARNING%TOLERANCE        0.1E-01
 PAO|                                  MACHINE_LEARNING%GP_NOISE_VAR     0.1E+00
 PAO|                                  MACHINE_LEARNING%GP_SCALE         0.5E-01
 

 Calculating atomic Fock matrix for atomic kind: O

 Electronic structure
    Total number of core electrons                                          2.00
    Total number of valence electrons                                       6.00
    Total number of electrons                                               8.00
    Multiplicity                                                   not specified
    S   [  2.00] 2.00
    P      4.00


 *******************************************************************************
                  Iteration          Convergence                     Energy [au]
 *******************************************************************************
                          1        0.708315                     -15.576645311500
                          2        0.608879                     -15.587933561584
                          3        0.102828E-01                 -15.656849565404
                          4        0.113889E-02                 -15.656866888140
                          5        0.434197E-03                 -15.656867072159
                          6        0.263771E-03                 -15.656867091904
                          7        0.478536E-06                 -15.656867103452

 Energy components [Hartree]           Total Energy ::          -15.656867103452
                                        Band Energy ::           -3.000198112285
                                     Kinetic Energy ::           11.759971203220
                                   Potential Energy ::          -27.416838306672
                                      Virial (-V/T) ::            2.331369510426
                                        Core Energy ::          -26.140716385623
                                          XC Energy ::           -3.154051012914
                                     Coulomb Energy ::           13.637900295084
                       Total Pseudopotential Energy ::          -37.935781716540
                       Local Pseudopotential Energy ::          -39.218907440693
                    Nonlocal Pseudopotential Energy ::            1.283125724153
                                        Confinement ::            0.350941276976

 Orbital energies  State     L     Occupation   Energy[a.u.]          Energy[eV]

                       1     0          2.000      -0.864471          -23.523463

                       1     1          4.000      -0.317814           -8.648154


 Total Electron Density at R=0:                                         0.000068

 Calculating atomic Fock matrix for atomic kind: H

 Electronic structure
    Total number of core electrons                                          0.00
    Total number of valence electrons                                       1.00
    Total number of electrons                                               1.00
    Multiplicity                                                   not specified
    S      1.00


 *******************************************************************************
                  Iteration          Convergence                     Energy [au]
 *******************************************************************************
                          1        0.437545E-02                  -0.424159432110
                          2        0.531356E-03                  -0.424178438213
                          3        0.259176E-06                  -0.424178722480

 Energy components [Hartree]           Total Energy ::           -0.424178722480
                                        Band Energy ::           -0.199015229016
                                     Kinetic Energy ::            0.464007633961
                                   Potential Energy ::           -0.888186356441
                                      Virial (-V/T) ::            1.914163240935
                                        Core Energy ::           -0.479160803564
                                          XC Energy ::           -0.244352904054
                                     Coulomb Energy ::            0.299334985138
                       Total Pseudopotential Energy ::           -0.962295316385
                       Local Pseudopotential Energy ::           -0.962295316385
                    Nonlocal Pseudopotential Energy ::            0.000000000000
                                        Confinement ::            0.191268788606

 Orbital energies  State     L     Occupation   Energy[a.u.]          Energy[eV]

                       1     0          1.000      -0.199015           -5.415480


 Total Electron Density at R=0:                                         0.242907
 PAO| Made initial guess for matrix_X with norm:   4.8989794855663558     

     Lanczos converged:  T threshold:   0.100E-02
     Est. extremal eigenvalues:    0.336E+01   0.111E+00
     Est. condition number :    0.304E+02
     NS sqrt iter    1 1.00000000   0.821E+00       0.002       39.296
     NS sqrt iter    2 1.00000000   0.440E+00       0.002       68.125
     NS sqrt iter    3 1.00000000   0.171E+00       0.002       67.068
     NS sqrt iter    4 1.00000000   0.212E-01       0.002       66.363
     NS sqrt iter    5 1.00000000   0.618E-04       0.002       61.996
     Final NS sqrt iter    5 1.00000000   0.525E-08

 PAO| Read restart DM 2H2O_ref_LS_DM_SPIN_1_RESTART.dm with checksum:    60.852308320557668     
 PAO| Quickstep energy from restart density:  -34.450551123097867     
 PAO| ======================= Iteration:         1 =============================

     Lanczos converged:  T threshold:   0.100E-02
     Est. extremal eigenvalues:    0.336E+01   0.111E+00
     Est. condition number :    0.304E+02
     NS sqrt iter    1 1.00000000   0.821E+00       0.002       41.452
     NS sqrt iter    2 1.00000000   0.440E+00       0.002       65.519
     NS sqrt iter    3 1.00000000   0.171E+00       0.002       65.788
     NS sqrt iter    4 1.00000000   0.212E-01       0.002       66.347
     NS sqrt iter    5 1.00000000   0.618E-04       0.002       60.302
     Final NS sqrt iter    5 1.00000000   0.525E-08

     Est. extremal eigenvalues     -0.91999     1.94713  converged:  T
     TRS4 it   1 1.00000000   0.900E+00       0.001       16.128   0.100E-07
     TRS4 it   2 1.00000000   0.708E+00       0.001       32.256   0.100E-07
     TRS4 it   3 1.00000000   0.505E+00       0.001       32.256   0.100E-07
     TRS4 it   4 1.00000000   0.318E+00       0.001       32.256   0.100E-07
     TRS4 it   5 1.00000000   0.159E+00       0.001       32.256   0.100E-07
     TRS4 it   6 1.00000000   0.504E-01       0.001       32.256   0.100E-07
     TRS4 it   7 1.00000000   0.706E-02       0.001       32.256   0.100E-07
     TRS4 it   8 1.00000000   0.196E-03       0.001       32.256   0.100E-07
     TRS4 it   9 1.00000000   0.170E-06       0.001       32.256   0.100E-07
     TRS4 it  10 1.00000000   0.130E-12       0.001       32.256   0.100E-07
     Final TRS4 iteration   10 1.00000000   0.130E-12
     Chemical potential (mu):      -0.06493
 
 PAO| energy:  -7.6251649010690610      penalty:   3.8826747678846682E-033
 PAO|CG| warming up with steepest descent
 PAO|CG| beta:    0.0000000000000000     
 PAO| norm of gradient:  0.78365250638722750     
 PAO|LS| adapt:  T F F
 PAO|LS| adapt: scan_steps:    0.0000000000000000        0.0000000000000000        0.0000000000000000     
 PAO|LS| adapt: energies:   -7.6251649010690610        0.0000000000000000        0.0000000000000000     
 PAO| ======================= Iteration:         2 =============================

     Lanczos converged:  T threshold:   0.100E-02
     Est. extremal eigenvalues:    0.328E+01   0.123E+00
     Est. condition number :    0.266E+02
     NS sqrt iter    1 1.00000000   0.805E+00       0.002       42.241
     NS sqrt iter    2 1.00000000   0.425E+00       0.002       65.386
     NS sqrt iter    3 1.00000000   0.153E+00       0.002       66.011
     NS sqrt iter    4 1.00000000   0.148E-01       0.002       61.100
     NS sqrt iter    5 1.00000000   0.212E-04       0.002       52.119
     Final NS sqrt iter    5 1.00000000   0.695E-09

     Est. extremal eigenvalues     -0.92366     1.89228  converged:  T
     TRS4 it   1 1.00000000   0.898E+00       0.001       16.128   0.100E-07
     TRS4 it   2 1.00000000   0.690E+00       0.001       32.256   0.100E-07
     TRS4 it   3 1.00000000   0.491E+00       0.001       32.256   0.100E-07
     TRS4 it   4 1.00000000   0.299E+00       0.001       32.256   0.100E-07
     TRS4 it   5 1.00000000   0.140E+00       0.001       32.256   0.100E-07
     TRS4 it   6 1.00000000   0.394E-01       0.001       32.256   0.100E-07
     TRS4 it   7 1.00000000   0.436E-02       0.001       32.256   0.100E-07
     TRS4 it   8 1.00000000   0.755E-04       0.001       32.256   0.100E-07
     TRS4 it   9 1.00000000   0.253E-07       0.001       32.256   0.100E-07
     Final TRS4 iteration    9 1.00000000   0.253E-07
     Chemical potential (mu):      -0.05303
 
 PAO| energy:  -7.6806869790468610      penalty:   2.2526611798034383E-008
 PAO|LS| adapt:  T T F
 PAO|LS| adapt: scan_steps:    0.0000000000000000       0.10000000000000001        0.0000000000000000     
 PAO|LS| adapt: energies:   -7.6251649010690610       -7.6806869790468610        0.0000000000000000     
 PAO| ======================= Iteration:         3 =============================

     Lanczos converged:  T threshold:   0.100E-02
     Est. extremal eigenvalues:    0.319E+01   0.134E+00
     Est. condition number :    0.238E+02
     NS sqrt iter    1 1.00000000   0.787E+00       0.002       41.579
     NS sqrt iter    2 1.00000000   0.408E+00       0.002       64.623
     NS sqrt iter    3 1.00000000   0.137E+00       0.002       65.650
     NS sqrt iter    4 1.00000000   0.103E-01       0.002       65.618
     NS sqrt iter    5 1.00000000   0.757E-05       0.002       52.748
     Final NS sqrt iter    5 1.00000000   0.902E-10

     Est. extremal eigenvalues     -0.92709     1.84730  converged:  T
     TRS4 it   1 1.00000000   0.896E+00       0.001       16.128   0.100E-07
     TRS4 it   2 1.00000000   0.674E+00       0.001       32.256   0.100E-07
     TRS4 it   3 1.00000000   0.476E+00       0.001       32.256   0.100E-07
     TRS4 it   4 1.00000000   0.280E+00       0.001       30.553   0.100E-07
     TRS4 it   5 1.00000000   0.122E+00       0.001       32.256   0.100E-07
     TRS4 it   6 1.00000000   0.300E-01       0.001       32.256   0.100E-07
     TRS4 it   7 1.00000000   0.251E-02       0.001       32.256   0.100E-07
     TRS4 it   8 1.00000000   0.250E-04       0.001       32.256   0.100E-07
     TRS4 it   9 1.00000000   0.279E-08       0.001       32.256   0.100E-07
     Final TRS4 iteration    9 1.00000000   0.279E-08
     Chemical potential (mu):      -0.04016
 
 PAO| energy:  -7.7237702704991342      penalty:   3.6042602916482541E-007
 PAO|LS| adapt:  T T F
 PAO|LS| adapt: scan_steps:    0.0000000000000000       0.20000000000000001        0.0000000000000000     
 PAO|LS| adapt: energies:   -7.6251649010690610       -7.7237702704991342        0.0000000000000000     
 PAO| ======================= Iteration:         4 =============================

     Lanczos converged:  T threshold:   0.100E-02
     Est. extremal eigenvalues:    0.299E+01   0.152E+00
     Est. condition number :    0.197E+02
     NS sqrt iter    1 1.00000000   0.750E+00       0.002       42.097
     NS sqrt iter    2 1.00000000   0.374E+00       0.002       64.659
     NS sqrt iter    3 1.00000000   0.107E+00       0.002       66.151
     NS sqrt iter    4 1.00000000   0.515E-02       0.002       66.338
     NS sqrt iter    5 1.00000000   0.114E-05       0.002       50.678
     Final NS sqrt iter    5 1.00000000   0.218E-11

     Est. extremal eigenvalues     -0.93243     1.77985  converged:  T
     TRS4 it   1 1.00000000   0.893E+00       0.001       16.128   0.100E-07
     TRS4 it   2 1.00000000   0.647E+00       0.001       32.256   0.100E-07
     TRS4 it   3 1.00000000   0.449E+00       0.001       32.256   0.100E-07
     TRS4 it   4 1.00000000   0.245E+00       0.001       32.256   0.100E-07
     TRS4 it   5 1.00000000   0.913E-01       0.001       32.256   0.100E-07
     TRS4 it   6 1.00000000   0.161E-01       0.001       32.256   0.100E-07
     TRS4 it   7 1.00000000   0.692E-03       0.001       32.256   0.100E-07
     TRS4 it   8 1.00000000   0.183E-05       0.001       32.256   0.100E-07
     TRS4 it   9 1.00000000   0.149E-10       0.001       32.256   0.100E-07
     Final TRS4 iteration    9 1.00000000   0.149E-10
     Chemical potential (mu):      -0.01173
 
 PAO| energy:  -7.7710107846558509      penalty:   5.7668183898161960E-006
 PAO|LS| Need extra step
 PAO|LS| adapt:  T T F
 PAO|LS| adapt: scan_steps:    0.0000000000000000       0.40000000000000002        0.0000000000000000     
 PAO|LS| adapt: energies:   -7.6251649010690610       -7.7710107846558509        0.0000000000000000     
 PAO| ======================= Iteration:         5 =============================

     Lanczos converged:  T threshold:   0.100E-02
     Est. extremal eigenvalues:    0.263E+01   0.180E+00
     Est. condition number :    0.146E+02
     NS sqrt iter    1 1.00000000   0.685E+00       0.002       42.078
     NS sqrt iter    2 1.00000000   0.312E+00       0.002       65.173
     NS sqrt iter    3 1.00000000   0.664E-01       0.002       66.123
     NS sqrt iter    4 1.00000000   0.144E-02       0.002       65.859
     NS sqrt iter    5 1.00000000   0.300E-07       0.001       41.009
     Final NS sqrt iter    5 1.00000000   0.262E-08

     Est. extremal eigenvalues     -0.93366     1.69955  converged:  T
     TRS4 it   1 1.00000000   0.888E+00       0.001       16.128   0.100E-07
     TRS4 it   2 1.00000000   0.608E+00       0.001       32.256   0.100E-07
     TRS4 it   3 1.00000000   0.403E+00       0.001       32.256   0.100E-07
     TRS4 it   4 1.00000000   0.189E+00       0.001       32.256   0.100E-07
     TRS4 it   5 1.00000000   0.506E-01       0.001       32.256   0.100E-07
     TRS4 it   6 1.00000000   0.451E-02       0.001       32.256   0.100E-07
     TRS4 it   7 1.00000000   0.461E-04       0.001       32.256   0.100E-07
     TRS4 it   8 1.00000000   0.618E-08       0.001       32.256   0.100E-07
     Final TRS4 iteration    8 1.00000000   0.618E-08
     Chemical potential (mu):       0.03666
 
 PAO| energy:  -7.7162342794261720      penalty:   9.2269109622523143E-005
 PAO|LS| Need extra step
 PAO|LS| adapt:  T T T
 PAO|LS| adapt: scan_steps:    0.0000000000000000       0.40000000000000002       0.80000000000000004     
 PAO|LS| adapt: energies:   -7.6251649010690610       -7.7710107846558509       -7.7162342794261720     
 PAO|LS| adapt: suggested step_size:   0.49078685474174288     
 PAO|LS| adapt: predicted energy  -7.7761782236710557     
 PAO| ======================= Iteration:         6 =============================

     Lanczos converged:  T threshold:   0.100E-02
     Est. extremal eigenvalues:    0.290E+01   0.159E+00
     Est. condition number :    0.182E+02
     NS sqrt iter    1 1.00000000   0.733E+00       0.002       42.235
     NS sqrt iter    2 1.00000000   0.358E+00       0.002       65.581
     NS sqrt iter    3 1.00000000   0.957E-01       0.002       65.701
     NS sqrt iter    4 1.00000000   0.381E-02       0.002       66.031
     NS sqrt iter    5 1.00000000   0.495E-06       0.002       52.900
     Final NS sqrt iter    5 1.00000000   0.425E-12

     Est. extremal eigenvalues     -0.93391     1.75656  converged:  T
     TRS4 it   1 1.00000000   0.892E+00       0.001       16.128   0.100E-07
     TRS4 it   2 1.00000000   0.636E+00       0.001       32.256   0.100E-07
     TRS4 it   3 1.00000000   0.437E+00       0.001       32.256   0.100E-07
     TRS4 it   4 1.00000000   0.230E+00       0.001       32.256   0.100E-07
     TRS4 it   5 1.00000000   0.795E-01       0.001       32.256   0.100E-07
     TRS4 it   6 1.00000000   0.119E-01       0.001       32.256   0.100E-07
     TRS4 it   7 1.00000000   0.363E-03       0.001       32.256   0.100E-07
     TRS4 it   8 1.00000000   0.481E-06       0.001       32.256   0.100E-07
     TRS4 it   9 1.00000000   0.101E-11       0.001       32.256   0.100E-07
     Final TRS4 iteration    9 1.00000000   0.101E-11
     Chemical potential (mu):       0.00205
 
 PAO| energy:  -7.7754436561783260      penalty:   1.3069772388942161E-005
 PAO|CG| warming up with steepest descent
 PAO|CG| beta:    0.0000000000000000     
 PAO| norm of gradient:  0.41712954469924945     
 PAO| energy improvement: -0.15027875510926503     
 PAO| step      6                   -7.775443656  0.261E-01  0.491E+00     0.128
 PAO|LS| adapt:  T F F
 PAO|LS| adapt: scan_steps:    0.0000000000000000        0.0000000000000000        0.0000000000000000     
 PAO|LS| adapt: energies:   -7.7754436561783260        0.0000000000000000        0.0000000000000000     
 PAO| ======================= Iteration:         7 =============================

     Lanczos converged:  T threshold:   0.100E-02
     Est. extremal eigenvalues:    0.282E+01   0.173E+00
     Est. condition number :    0.163E+02
     NS sqrt iter    1 1.00000000   0.716E+00       0.002       41.864
     NS sqrt iter    2 1.00000000   0.338E+00       0.002       65.155
     NS sqrt iter    3 1.00000000   0.802E-01       0.002       65.855
     NS sqrt iter    4 1.00000000   0.233E-02       0.002       66.105
     NS sqrt iter    5 1.00000000   0.125E-06       0.002       50.208
     Final NS sqrt iter    5 1.00000000   0.124E-08

     Est. extremal eigenvalues     -0.93562     1.74140  converged:  T
     TRS4 it   1 1.00000000   0.891E+00       0.001       16.128   0.100E-07
     TRS4 it   2 1.00000000   0.634E+00       0.001       32.256   0.100E-07
     TRS4 it   3 1.00000000   0.437E+00       0.001       32.256   0.100E-07
     TRS4 it   4 1.00000000   0.231E+00       0.001       32.256   0.100E-07
     TRS4 it   5 1.00000000   0.802E-01       0.001       32.256   0.100E-07
     TRS4 it   6 1.00000000   0.119E-01       0.001       32.256   0.100E-07
     TRS4 it   7 1.00000000   0.341E-03       0.001       32.256   0.100E-07
     TRS4 it   8 1.00000000   0.401E-06       0.001       32.256   0.100E-07
     TRS4 it   9 1.00000000   0.689E-12       0.001       32.256   0.100E-07
     Final TRS4 iteration    9 1.00000000   0.689E-12
     Chemical potential (mu):       0.00398
 
 PAO| energy:  -7.7694166481182130      penalty:   1.9766402672647959E-005
 PAO|LS| adapt:  T F T
 PAO|LS| adapt: scan_steps:    0.0000000000000000        0.0000000000000000       0.49078685474174288     
 PAO|LS| adapt: energies:   -7.7754436561783260        0.0000000000000000       -7.7694166481182130     
 PAO| ======================= Iteration:         8 =============================

     Lanczos converged:  T threshold:   0.100E-02
     Est. extremal eigenvalues:    0.286E+01   0.166E+00
     Est. condition number :    0.172E+02
     NS sqrt iter    1 1.00000000   0.724E+00       0.002       41.148
     NS sqrt iter    2 1.00000000   0.348E+00       0.002       63.145
     NS sqrt iter    3 1.00000000   0.878E-01       0.002       61.859
     NS sqrt iter    4 1.00000000   0.300E-02       0.002       64.845
     NS sqrt iter    5 1.00000000   0.254E-06       0.002       50.437
     Final NS sqrt iter    5 1.00000000   0.683E-09

     Est. extremal eigenvalues     -0.93572     1.74841  converged:  T
     TRS4 it   1 1.00000000   0.891E+00       0.001       16.128   0.100E-07
     TRS4 it   2 1.00000000   0.635E+00       0.001       32.256   0.100E-07
     TRS4 it   3 1.00000000   0.437E+00       0.001       32.256   0.100E-07
     TRS4 it   4 1.00000000   0.230E+00       0.001       32.256   0.100E-07
     TRS4 it   5 1.00000000   0.796E-01       0.001       32.256   0.100E-07
     TRS4 it   6 1.00000000   0.120E-01       0.001       32.256   0.100E-07
     TRS4 it   7 1.00000000   0.361E-03       0.001       32.256   0.100E-07
     TRS4 it   8 1.00000000   0.466E-06       0.001       32.256   0.100E-07
     TRS4 it   9 1.00000000   0.943E-12       0.001       32.256   0.100E-07
     Final TRS4 iteration    9 1.00000000   0.943E-12
     Chemical potential (mu):       0.00254
 
 PAO| energy:  -7.7950472327401803      penalty:   1.4168056433097518E-005
 PAO|LS| adapt:  T T T
 PAO|LS| adapt: scan_steps:    0.0000000000000000       0.24539342737087144       0.49078685474174288     
 PAO|LS| adapt: energies:   -7.7754436561783260       -7.7950472327401803       -7.7694166481182130     
 PAO|LS| adapt: suggested step_size:   0.22904529438955315     
 PAO|LS| adapt: predicted energy  -7.7951476126997230     
 PAO| ======================= Iteration:         9 =============================

     Lanczos converged:  T threshold:   0.100E-02
     Est. extremal eigenvalues:    0.286E+01   0.165E+00
     Est. condition number :    0.173E+02
     NS sqrt iter    1 1.00000000   0.725E+00       0.002       41.662
     NS sqrt iter    2 1.00000000   0.349E+00       0.002       62.519
     NS sqrt iter    3 1.00000000   0.883E-01       0.002       64.534
     NS sqrt iter    4 1.00000000   0.305E-02       0.002       63.373
     NS sqrt iter    5 1.00000000   0.266E-06       0.002       51.263
     Final NS sqrt iter    5 1.00000000   0.716E-09

     Est. extremal eigenvalues     -0.93566     1.74891  converged:  T
     TRS4 it   1 1.00000000   0.891E+00       0.001       16.128   0.100E-07
     TRS4 it   2 1.00000000   0.635E+00       0.001       32.256   0.100E-07
     TRS4 it   3 1.00000000   0.437E+00       0.001       32.256   0.100E-07
     TRS4 it   4 1.00000000   0.230E+00       0.001       32.256   0.100E-07
     TRS4 it   5 1.00000000   0.796E-01       0.001       32.256   0.100E-07
     TRS4 it   6 1.00000000   0.120E-01       0.001       32.256   0.100E-07
     TRS4 it   7 1.00000000   0.362E-03       0.001       32.256   0.100E-07
     TRS4 it   8 1.00000000   0.469E-06       0.001       32.256   0.100E-07
     TRS4 it   9 1.00000000   0.955E-12       0.001       32.256   0.100E-07
     Final TRS4 iteration    9 1.00000000   0.955E-12
     Chemical potential (mu):       0.00248
 
 PAO| energy:  -7.7951719425371406      penalty:   1.3993921416336513E-005
 PAO|CG| trace_G_new    3.6811790159055918E-002
 PAO|CG| trace_G_prev   0.17399705706100316     
 PAO|CG| trace_G_mix   -1.4395982983808260E-003
 PAO|CG| trace_D   0.17399705706100316     
 PAO|CG| trace_D_Gnew   1.4395982983808260E-003
 PAO|CG| beta:   0.21983928408643058     
 PAO| norm of gradient:  0.19186398869786878     
 PAO| energy improvement:  -1.9728286358814628E-002
 PAO| step      9                   -7.795171943  0.120E-01  0.229E+00     0.082
 PAO|LS| adapt:  T F F
 PAO|LS| adapt: scan_steps:    0.0000000000000000        0.0000000000000000        0.0000000000000000     
 PAO|LS| adapt: energies:   -7.7951719425371406        0.0000000000000000        0.0000000000000000     
 PAO| ======================= Iteration:        10 =============================

     Lanczos converged:  T threshold:   0.100E-02
     Est. extremal eigenvalues:    0.283E+01   0.171E+00
     Est. condition number :    0.165E+02
     NS sqrt iter    1 1.00000000   0.717E+00       0.002       41.137
     NS sqrt iter    2 1.00000000   0.340E+00       0.002       63.988
     NS sqrt iter    3 1.00000000   0.827E-01       0.002       64.142
     NS sqrt iter    4 1.00000000   0.251E-02       0.002       64.138
     NS sqrt iter    5 1.00000000   0.148E-06       0.002       49.838
     Final NS sqrt iter    5 1.00000000   0.115E-08

     Est. extremal eigenvalues     -0.93656     1.74236  converged:  T
     TRS4 it   1 1.00000000   0.889E+00       0.001       16.128   0.100E-07
     TRS4 it   2 1.00000000   0.633E+00       0.001       32.256   0.100E-07
     TRS4 it   3 1.00000000   0.434E+00       0.001       32.256   0.100E-07
     TRS4 it   4 1.00000000   0.227E+00       0.001       32.256   0.100E-07
     TRS4 it   5 1.00000000   0.774E-01       0.001       32.256   0.100E-07
     TRS4 it   6 1.00000000   0.113E-01       0.001       32.256   0.100E-07
     TRS4 it   7 1.00000000   0.315E-03       0.001       32.256   0.100E-07
     TRS4 it   8 1.00000000   0.347E-06       0.001       32.256   0.100E-07
     TRS4 it   9 1.00000000   0.516E-12       0.001       32.256   0.100E-07
     Final TRS4 iteration    9 1.00000000   0.516E-12
     Chemical potential (mu):       0.00560
 
 PAO| energy:  -7.8001958813529670      penalty:   1.4527896808153856E-005
 PAO|LS| adapt:  T T F
 PAO|LS| adapt: scan_steps:    0.0000000000000000       0.22904529438955315        0.0000000000000000     
 PAO|LS| adapt: energies:   -7.7951719425371406       -7.8001958813529670        0.0000000000000000     
 PAO| ======================= Iteration:        11 =============================

     Lanczos converged:  T threshold:   0.100E-02
     Est. extremal eigenvalues:    0.279E+01   0.177E+00
     Est. condition number :    0.157E+02
     NS sqrt iter    1 1.00000000   0.709E+00       0.002       40.892
     NS sqrt iter    2 1.00000000   0.332E+00       0.002       63.737
     NS sqrt iter    3 1.00000000   0.773E-01       0.002       63.895
     NS sqrt iter    4 1.00000000   0.206E-02       0.002       64.555
     NS sqrt iter    5 1.00000000   0.807E-07       0.002       47.264
     Final NS sqrt iter    5 1.00000000   0.605E-09

     Est. extremal eigenvalues     -0.93647     1.73690  converged:  T
     TRS4 it   1 1.00000000   0.887E+00       0.001       16.128   0.100E-07
     TRS4 it   2 1.00000000   0.631E+00       0.001       32.256   0.100E-07
     TRS4 it   3 1.00000000   0.432E+00       0.001       32.256   0.100E-07
     TRS4 it   4 1.00000000   0.224E+00       0.001       32.256   0.100E-07
     TRS4 it   5 1.00000000   0.752E-01       0.001       32.256   0.100E-07
     TRS4 it   6 1.00000000   0.106E-01       0.001       32.256   0.100E-07
     TRS4 it   7 1.00000000   0.274E-03       0.001       32.256   0.100E-07
     TRS4 it   8 1.00000000   0.254E-06       0.001       32.256   0.100E-07
     TRS4 it   9 1.00000000   0.271E-12       0.001       32.256   0.100E-07
     Final TRS4 iteration    9 1.00000000   0.271E-12
     Chemical potential (mu):       0.00882
 
 PAO| energy:  -7.7987924399118249      penalty:   1.5727236895937051E-005
 PAO|LS| adapt:  T T T
 PAO|LS| adapt: scan_steps:    0.0000000000000000       0.22904529438955315       0.45809058877910630     
 PAO|LS| adapt: energies:   -7.7951719425371406       -7.8001958813529670       -7.7987924399118249     
 PAO|LS| adapt: suggested step_size:   0.29355508328232077     
 PAO|LS| adapt: predicted energy  -7.8004508063907743     
 PAO| ======================= Iteration:        12 =============================

     Lanczos converged:  T threshold:   0.100E-02
     Est. extremal eigenvalues:    0.282E+01   0.173E+00
     Est. condition number :    0.163E+02
     NS sqrt iter    1 1.00000000   0.715E+00       0.002       40.878
     NS sqrt iter    2 1.00000000   0.338E+00       0.002       64.830
     NS sqrt iter    3 1.00000000   0.811E-01       0.002       62.709
     NS sqrt iter    4 1.00000000   0.237E-02       0.002       64.640
     NS sqrt iter    5 1.00000000   0.125E-06       0.002       48.946
     Final NS sqrt iter    5 1.00000000   0.122E-08

     Est. extremal eigenvalues     -0.93663     1.74071  converged:  T
     TRS4 it   1 1.00000000   0.888E+00       0.001       16.128   0.100E-07
     TRS4 it   2 1.00000000   0.632E+00       0.001       32.256   0.100E-07
     TRS4 it   3 1.00000000   0.434E+00       0.001       32.256   0.100E-07
     TRS4 it   4 1.00000000   0.226E+00       0.001       32.256   0.100E-07
     TRS4 it   5 1.00000000   0.768E-01       0.001       32.256   0.100E-07
     TRS4 it   6 1.00000000   0.111E-01       0.001       32.256   0.100E-07
     TRS4 it   7 1.00000000   0.303E-03       0.001       32.256   0.100E-07
     TRS4 it   8 1.00000000   0.318E-06       0.001       32.256   0.100E-07
     TRS4 it   9 1.00000000   0.432E-12       0.001       32.256   0.100E-07
     Final TRS4 iteration    9 1.00000000   0.432E-12
     Chemical potential (mu):       0.00650
 
 PAO| energy:  -7.8004346369694897      penalty:   1.4790762388059231E-005
 PAO|CG| trace_G_new    1.1783303760780498E-002
 PAO|CG| trace_G_prev    3.6811790159055918E-002
 PAO|CG| trace_G_mix   -4.5761575124792777E-004
 PAO|CG| trace_D    4.4587987494274596E-002
 PAO|CG| trace_D_Gnew   2.0865376505615780E-004
 PAO|CG| beta:   0.33252714576330072     
 PAO| norm of gradient:  0.10855092703786780     
 PAO| energy improvement:  -5.2626944323490576E-003
 PAO| step     12                   -7.800434637  0.678E-02  0.294E+00     0.081
 PAO|LS| adapt:  T F F
 PAO|LS| adapt: scan_steps:    0.0000000000000000        0.0000000000000000        0.0000000000000000     
 PAO|LS| adapt: energies:   -7.8004346369694897        0.0000000000000000        0.0000000000000000     
 PAO| ======================= Iteration:        13 =============================

     Lanczos converged:  T threshold:   0.100E-02
     Est. extremal eigenvalues:    0.278E+01   0.177E+00
     Est. condition number :    0.157E+02
     NS sqrt iter    1 1.00000000   0.708E+00       0.002       41.363
     NS sqrt iter    2 1.00000000   0.331E+00       0.002       64.667
     NS sqrt iter    3 1.00000000   0.768E-01       0.002       49.100
     NS sqrt iter    4 1.00000000   0.202E-02       0.002       63.962
     NS sqrt iter    5 1.00000000   0.780E-07       0.002       47.235
     Final NS sqrt iter    5 1.00000000   0.606E-09

     Est. extremal eigenvalues     -0.93711     1.73321  converged:  T
     TRS4 it   1 1.00000000   0.887E+00       0.001       16.128   0.100E-07
     TRS4 it   2 1.00000000   0.629E+00       0.001       32.256   0.100E-07
     TRS4 it   3 1.00000000   0.430E+00       0.001       31.170   0.100E-07
     TRS4 it   4 1.00000000   0.221E+00       0.001       32.256   0.100E-07
     TRS4 it   5 1.00000000   0.731E-01       0.001       32.256   0.100E-07
     TRS4 it   6 1.00000000   0.998E-02       0.001       32.256   0.100E-07
     TRS4 it   7 1.00000000   0.244E-03       0.001       32.256   0.100E-07
     TRS4 it   8 1.00000000   0.200E-06       0.001       32.256   0.100E-07
     TRS4 it   9 1.00000000   0.167E-12       0.001       32.256   0.100E-07
     Final TRS4 iteration    9 1.00000000   0.167E-12
     Chemical potential (mu):       0.01100
 
 PAO| energy:  -7.8024981626164713      penalty:   1.5093412529532047E-005
 PAO|LS| adapt:  T T F
 PAO|LS| adapt: scan_steps:    0.0000000000000000       0.29355508328232077        0.0000000000000000     
 PAO|LS| adapt: energies:   -7.8004346369694897       -7.8024981626164713        0.0000000000000000     
 PAO| ======================= Iteration:        14 =============================

     Lanczos converged:  T threshold:   0.100E-02
     Est. extremal eigenvalues:    0.275E+01   0.181E+00
     Est. condition number :    0.151E+02
     NS sqrt iter    1 1.00000000   0.701E+00       0.002       41.269
     NS sqrt iter    2 1.00000000   0.324E+00       0.002       63.299
     NS sqrt iter    3 1.00000000   0.727E-01       0.002       64.176
     NS sqrt iter    4 1.00000000   0.173E-02       0.002       64.346
     NS sqrt iter    5 1.00000000   0.487E-07       0.002       43.928
     Final NS sqrt iter    5 1.00000000   0.433E-09

     Est. extremal eigenvalues     -0.93709     1.72602  converged:  T
     TRS4 it   1 1.00000000   0.886E+00       0.001       16.128   0.100E-07
     TRS4 it   2 1.00000000   0.626E+00       0.001       32.256   0.100E-07
     TRS4 it   3 1.00000000   0.426E+00       0.001       32.256   0.100E-07
     TRS4 it   4 1.00000000   0.217E+00       0.001       32.256   0.100E-07
     TRS4 it   5 1.00000000   0.697E-01       0.001       32.256   0.100E-07
     TRS4 it   6 1.00000000   0.900E-02       0.001       32.256   0.100E-07
     TRS4 it   7 1.00000000   0.196E-03       0.001       32.256   0.100E-07
     TRS4 it   8 1.00000000   0.126E-06       0.001       32.256   0.100E-07
     TRS4 it   9 1.00000000   0.648E-13       0.001       32.256   0.100E-07
     Final TRS4 iteration    9 1.00000000   0.648E-13
     Chemical potential (mu):       0.01542
 
 PAO| energy:  -7.8018610790250582      penalty:   1.5873427594942559E-005
 PAO|LS| adapt:  T T T
 PAO|LS| adapt: scan_steps:    0.0000000000000000       0.29355508328232077       0.58711016656464154     
 PAO|LS| adapt: energies:   -7.8004346369694897       -7.8024981626164713       -7.8018610790250582     
 PAO|LS| adapt: suggested step_size:   0.37108190768671317     
 PAO|LS| adapt: predicted energy  -7.8025923421496008     
 PAO| ======================= Iteration:        15 =============================

     Lanczos converged:  T threshold:   0.100E-02
     Est. extremal eigenvalues:    0.277E+01   0.178E+00
     Est. condition number :    0.155E+02
     NS sqrt iter    1 1.00000000   0.706E+00       0.002       41.154
     NS sqrt iter    2 1.00000000   0.329E+00       0.006       18.908
     NS sqrt iter    3 1.00000000   0.757E-01       0.002       59.690
     NS sqrt iter    4 1.00000000   0.194E-02       0.002       62.037
     NS sqrt iter    5 1.00000000   0.689E-07       0.002       44.760
     Final NS sqrt iter    5 1.00000000   0.851E-09

     Est. extremal eigenvalues     -0.93715     1.73128  converged:  T
     TRS4 it   1 1.00000000   0.887E+00       0.001       16.128   0.100E-07
     TRS4 it   2 1.00000000   0.628E+00       0.001       32.256   0.100E-07
     TRS4 it   3 1.00000000   0.429E+00       0.001       32.256   0.100E-07
     TRS4 it   4 1.00000000   0.220E+00       0.001       32.256   0.100E-07
     TRS4 it   5 1.00000000   0.722E-01       0.001       32.256   0.100E-07
     TRS4 it   6 1.00000000   0.971E-02       0.001       32.256   0.100E-07
     TRS4 it   7 1.00000000   0.230E-03       0.001       32.256   0.100E-07
     TRS4 it   8 1.00000000   0.177E-06       0.001       32.256   0.100E-07
     TRS4 it   9 1.00000000   0.131E-12       0.001       26.387   0.100E-07
     Final TRS4 iteration    9 1.00000000   0.131E-12
     Chemical potential (mu):       0.01218
 
 PAO| energy:  -7.8025892630713845      penalty:   1.5249970118850374E-005
 PAO|CG| trace_G_new    2.6271551993273640E-003
 PAO|CG| trace_G_prev    1.1783303760780498E-002
 PAO|CG| trace_G_mix    6.2963587444825504E-005
 PAO|CG| trace_D    1.6574823303501955E-002
 PAO|CG| trace_D_Gnew   3.3839442493459530E-005
 PAO|CG| beta:   0.21761228123619997     
 PAO| norm of gradient:   5.1255782106288887E-002
 PAO| energy improvement:  -2.1546261018947632E-003
 PAO| step     15                   -7.802589263  0.320E-02  0.371E+00     0.088
 PAO|LS| adapt:  T F F
 PAO|LS| adapt: scan_steps:    0.0000000000000000        0.0000000000000000        0.0000000000000000     
 PAO|LS| adapt: energies:   -7.8025892630713845        0.0000000000000000        0.0000000000000000     
 PAO| ======================= Iteration:        16 =============================

     Lanczos converged:  T threshold:   0.100E-02
     Est. extremal eigenvalues:    0.276E+01   0.179E+00
     Est. condition number :    0.154E+02
     NS sqrt iter    1 1.00000000   0.704E+00       0.002       41.727
     NS sqrt iter    2 1.00000000   0.328E+00       0.002       62.717
     NS sqrt iter    3 1.00000000   0.750E-01       0.002       60.076
     NS sqrt iter    4 1.00000000   0.188E-02       0.002       65.383
     NS sqrt iter    5 1.00000000   0.625E-07       0.002       43.664
     Final NS sqrt iter    5 1.00000000   0.819E-09

     Est. extremal eigenvalues     -0.93718     1.72993  converged:  T
     TRS4 it   1 1.00000000   0.887E+00       0.001       16.128   0.100E-07
     TRS4 it   2 1.00000000   0.627E+00       0.001       32.256   0.100E-07
     TRS4 it   3 1.00000000   0.427E+00       0.001       32.223   0.100E-07
     TRS4 it   4 1.00000000   0.218E+00       0.001       32.256   0.100E-07
     TRS4 it   5 1.00000000   0.710E-01       0.001       32.256   0.100E-07
     TRS4 it   6 1.00000000   0.939E-02       0.001       32.256   0.100E-07
     TRS4 it   7 1.00000000   0.216E-03       0.001       32.256   0.100E-07
     TRS4 it   8 1.00000000   0.158E-06       0.001       32.256   0.100E-07
     TRS4 it   9 1.00000000   0.105E-12       0.001       32.256   0.100E-07
     Final TRS4 iteration    9 1.00000000   0.105E-12
     Chemical potential (mu):       0.01302
 
 PAO| energy:  -7.8027134511572731      penalty:   1.5030820116612049E-005
 PAO|LS| adapt:  T T F
 PAO|LS| adapt: scan_steps:    0.0000000000000000       0.37108190768671317        0.0000000000000000     
 PAO|LS| adapt: energies:   -7.8025892630713845       -7.8027134511572731        0.0000000000000000     
 PAO| ======================= Iteration:        17 =============================

     Lanczos converged:  T threshold:   0.100E-02
     Est. extremal eigenvalues:    0.275E+01   0.180E+00
     Est. condition number :    0.153E+02
     NS sqrt iter    1 1.00000000   0.702E+00       0.002       40.134
     NS sqrt iter    2 1.00000000   0.327E+00       0.002       62.133
     NS sqrt iter    3 1.00000000   0.743E-01       0.002       61.607
     NS sqrt iter    4 1.00000000   0.182E-02       0.002       64.677
     NS sqrt iter    5 1.00000000   0.568E-07       0.002       42.998
     Final NS sqrt iter    5 1.00000000   0.646E-09

     Est. extremal eigenvalues     -0.93708     1.72865  converged:  T
     TRS4 it   1 1.00000000   0.887E+00       0.001       16.128   0.100E-07
     TRS4 it   2 1.00000000   0.626E+00       0.001       32.256   0.100E-07
     TRS4 it   3 1.00000000   0.426E+00       0.001       32.256   0.100E-07
     TRS4 it   4 1.00000000   0.217E+00       0.001       32.256   0.100E-07
     TRS4 it   5 1.00000000   0.698E-01       0.001       32.256   0.100E-07
     TRS4 it   6 1.00000000   0.908E-02       0.001       29.216   0.100E-07
     TRS4 it   7 1.00000000   0.203E-03       0.001       32.256   0.100E-07
     TRS4 it   8 1.00000000   0.141E-06       0.001       32.256   0.100E-07
     TRS4 it   9 1.00000000   0.840E-13       0.001       32.256   0.100E-07
     Final TRS4 iteration    9 1.00000000   0.840E-13
     Chemical potential (mu):       0.01384
 
 PAO| energy:  -7.8011361753199191      penalty:   1.4938604426773385E-005
 PAO|LS| adapt:  T T T
 PAO|LS| adapt: scan_steps:    0.0000000000000000       0.37108190768671317       0.74216381537342635     
 PAO|LS| adapt: energies:   -7.8025892630713845       -7.8027134511572731       -7.8011361753199191     
 PAO|LS| adapt: suggested step_size:   0.21262583715707159     
 PAO|LS| adapt: predicted energy  -7.8028685722844839     
 PAO| ======================= Iteration:        18 =============================

     Lanczos converged:  T threshold:   0.100E-02
     Est. extremal eigenvalues:    0.277E+01   0.179E+00
     Est. condition number :    0.155E+02
     NS sqrt iter    1 1.00000000   0.705E+00       0.002       40.028
     NS sqrt iter    2 1.00000000   0.329E+00       0.002       63.107
     NS sqrt iter    3 1.00000000   0.753E-01       0.002       61.270
     NS sqrt iter    4 1.00000000   0.191E-02       0.002       62.550
     NS sqrt iter    5 1.00000000   0.652E-07       0.002       44.675
     Final NS sqrt iter    5 1.00000000   0.844E-09

     Est. extremal eigenvalues     -0.93718     1.73050  converged:  T
     TRS4 it   1 1.00000000   0.887E+00       0.001       16.128   0.100E-07
     TRS4 it   2 1.00000000   0.627E+00       0.001       32.256   0.100E-07
     TRS4 it   3 1.00000000   0.428E+00       0.001       32.256   0.100E-07
     TRS4 it   4 1.00000000   0.219E+00       0.001       31.678   0.100E-07
     TRS4 it   5 1.00000000   0.715E-01       0.001       32.256   0.100E-07
     TRS4 it   6 1.00000000   0.953E-02       0.001       30.146   0.100E-07
     TRS4 it   7 1.00000000   0.222E-03       0.001       32.256   0.100E-07
     TRS4 it   8 1.00000000   0.166E-06       0.001       29.725   0.100E-07
     TRS4 it   9 1.00000000   0.115E-12       0.001       32.256   0.100E-07
     Final TRS4 iteration    9 1.00000000   0.115E-12
     Chemical potential (mu):       0.01266
 
 PAO| energy:  -7.8028681183426380      penalty:   1.5109153836664862E-005
 PAO|CG| trace_G_new    7.2526835952703298E-004
 PAO|CG| trace_G_prev    2.6271551993273640E-003
 PAO|CG| trace_G_mix    1.4045474659858218E-006
 PAO|CG| trace_D    3.3973299397530711E-003
 PAO|CG| trace_D_Gnew  -1.7140636002676399E-006
 PAO|CG| beta:   0.27553142358943222     
 PAO| norm of gradient:   2.6930806885925883E-002
 PAO| energy improvement:  -2.7885527125359744E-004
 PAO| step     18                   -7.802868118  0.168E-02  0.213E+00     0.083
 PAO|LS| adapt:  T F F
 PAO|LS| adapt: scan_steps:    0.0000000000000000        0.0000000000000000        0.0000000000000000     
 PAO|LS| adapt: energies:   -7.8028681183426380        0.0000000000000000        0.0000000000000000     
 PAO| ======================= Iteration:        19 =============================

     Lanczos converged:  T threshold:   0.100E-02
     Est. extremal eigenvalues:    0.277E+01   0.179E+00
     Est. condition number :    0.155E+02
     NS sqrt iter    1 1.00000000   0.705E+00       0.002       39.329
     NS sqrt iter    2 1.00000000   0.329E+00       0.002       63.773
     NS sqrt iter    3 1.00000000   0.755E-01       0.002       60.067
     NS sqrt iter    4 1.00000000   0.192E-02       0.002       65.691
     NS sqrt iter    5 1.00000000   0.658E-07       0.002       44.052
     Final NS sqrt iter    5 1.00000000   0.837E-09

     Est. extremal eigenvalues     -0.93718     1.73063  converged:  T
     TRS4 it   1 1.00000000   0.887E+00       0.001       16.128   0.100E-07
     TRS4 it   2 1.00000000   0.627E+00       0.001       32.256   0.100E-07
     TRS4 it   3 1.00000000   0.428E+00       0.001       32.256   0.100E-07
     TRS4 it   4 1.00000000   0.219E+00       0.001       32.256   0.100E-07
     TRS4 it   5 1.00000000   0.714E-01       0.001       32.256   0.100E-07
     TRS4 it   6 1.00000000   0.951E-02       0.001       32.256   0.100E-07
     TRS4 it   7 1.00000000   0.222E-03       0.001       32.256   0.100E-07
     TRS4 it   8 1.00000000   0.168E-06       0.001       32.256   0.100E-07
     TRS4 it   9 1.00000000   0.119E-12       0.001       31.559   0.100E-07
     Final TRS4 iteration    9 1.00000000   0.119E-12
     Chemical potential (mu):       0.01238
 
 PAO| energy:  -7.8029858520374740      penalty:   1.4820039324200514E-005
 PAO|LS| adapt:  T T F
 PAO|LS| adapt: scan_steps:    0.0000000000000000       0.21262583715707159        0.0000000000000000     
 PAO|LS| adapt: energies:   -7.8028681183426380       -7.8029858520374740        0.0000000000000000     
 PAO| ======================= Iteration:        20 =============================

     Lanczos converged:  T threshold:   0.100E-02
     Est. extremal eigenvalues:    0.277E+01   0.178E+00
     Est. condition number :    0.155E+02
     NS sqrt iter    1 1.00000000   0.705E+00       0.002       41.784
     NS sqrt iter    2 1.00000000   0.329E+00       0.002       60.786
     NS sqrt iter    3 1.00000000   0.757E-01       0.002       64.258
     NS sqrt iter    4 1.00000000   0.192E-02       0.002       63.672
     NS sqrt iter    5 1.00000000   0.665E-07       0.002       43.651
     Final NS sqrt iter    5 1.00000000   0.854E-09

     Est. extremal eigenvalues     -0.93718     1.73076  converged:  T
     TRS4 it   1 1.00000000   0.887E+00       0.001       16.128   0.100E-07
     TRS4 it   2 1.00000000   0.627E+00       0.001       32.256   0.100E-07
     TRS4 it   3 1.00000000   0.428E+00       0.001       32.256   0.100E-07
     TRS4 it   4 1.00000000   0.219E+00       0.001       32.256   0.100E-07
     TRS4 it   5 1.00000000   0.713E-01       0.001       32.256   0.100E-07
     TRS4 it   6 1.00000000   0.950E-02       0.001       32.256   0.100E-07
     TRS4 it   7 1.00000000   0.223E-03       0.001       32.256   0.100E-07
     TRS4 it   8 1.00000000   0.171E-06       0.001       32.256   0.100E-07
     TRS4 it   9 1.00000000   0.123E-12       0.001       32.256   0.100E-07
     Final TRS4 iteration    9 1.00000000   0.123E-12
     Chemical potential (mu):       0.01210
 
 PAO| energy:  -7.8030300450963148      penalty:   1.4543340897138276E-005
 PAO|LS| adapt:  T T F
 PAO|LS| adapt: scan_steps:    0.0000000000000000       0.42525167431414318        0.0000000000000000     
 PAO|LS| adapt: energies:   -7.8028681183426380       -7.8030300450963148        0.0000000000000000     
 PAO| ======================= Iteration:        21 =============================

     Lanczos converged:  T threshold:   0.100E-02
     Est. extremal eigenvalues:    0.277E+01   0.178E+00
     Est. condition number :    0.155E+02
     NS sqrt iter    1 1.00000000   0.705E+00       0.002       41.753
     NS sqrt iter    2 1.00000000   0.329E+00       0.002       63.555
     NS sqrt iter    3 1.00000000   0.761E-01       0.002       63.935
     NS sqrt iter    4 1.00000000   0.195E-02       0.002       64.183
     NS sqrt iter    5 1.00000000   0.681E-07       0.002       47.010
     Final NS sqrt iter    5 1.00000000   0.574E-09

     Est. extremal eigenvalues     -0.93717     1.73104  converged:  T
     TRS4 it   1 1.00000000   0.887E+00       0.001       16.128   0.100E-07
     TRS4 it   2 1.00000000   0.627E+00       0.001       32.256   0.100E-07
     TRS4 it   3 1.00000000   0.427E+00       0.001       32.256   0.100E-07
     TRS4 it   4 1.00000000   0.218E+00       0.015        2.107   0.100E-07
     TRS4 it   5 1.00000000   0.710E-01       0.001       32.256   0.100E-07
     TRS4 it   6 1.00000000   0.948E-02       0.001       31.359   0.100E-07
     TRS4 it   7 1.00000000   0.224E-03       0.001       32.256   0.100E-07
     TRS4 it   8 1.00000000   0.176E-06       0.001       32.067   0.100E-07
     TRS4 it   9 1.00000000   0.133E-12       0.001       32.256   0.100E-07
     Final TRS4 iteration    9 1.00000000   0.133E-12
     Chemical potential (mu):       0.01152
 
 PAO| energy:  -7.8028954587478241      penalty:   1.4026612944968928E-005
 PAO|LS| Need extra step
 PAO|LS| adapt:  T T T
 PAO|LS| adapt: scan_steps:    0.0000000000000000       0.42525167431414318       0.85050334862828636     
 PAO|LS| adapt: energies:   -7.8028681183426380       -7.8030300450963148       -7.8028954587478241     
 PAO|LS| adapt: suggested step_size:   0.44485713693417639     
 PAO|LS| adapt: predicted energy  -7.8030303602163507     
 PAO| ======================= Iteration:        22 =============================

     Lanczos converged:  T threshold:   0.100E-02
     Est. extremal eigenvalues:    0.277E+01   0.178E+00
     Est. condition number :    0.155E+02
     NS sqrt iter    1 1.00000000   0.705E+00       0.002       39.784
     NS sqrt iter    2 1.00000000   0.329E+00       0.002       60.231
     NS sqrt iter    3 1.00000000   0.757E-01       0.002       62.492
     NS sqrt iter    4 1.00000000   0.193E-02       0.010       10.957
     NS sqrt iter    5 1.00000000   0.666E-07       0.002       42.518
     Final NS sqrt iter    5 1.00000000   0.855E-09

     Est. extremal eigenvalues     -0.93718     1.73077  converged:  T
     TRS4 it   1 1.00000000   0.887E+00       0.001       16.128   0.100E-07
     TRS4 it   2 1.00000000   0.627E+00       0.001       32.256   0.100E-07
     TRS4 it   3 1.00000000   0.428E+00       0.001       32.256   0.100E-07
     TRS4 it   4 1.00000000   0.219E+00       0.001       32.256   0.100E-07
     TRS4 it   5 1.00000000   0.713E-01       0.001       32.256   0.100E-07
     TRS4 it   6 1.00000000   0.950E-02       0.015        2.138   0.100E-07
     TRS4 it   7 1.00000000   0.223E-03       0.001       32.256   0.100E-07
     TRS4 it   8 1.00000000   0.171E-06       0.001       32.256   0.100E-07
     TRS4 it   9 1.00000000   0.124E-12       0.001       32.256   0.100E-07
     Final TRS4 iteration    9 1.00000000   0.124E-12
     Chemical potential (mu):       0.01207
 
 PAO| energy:  -7.8030303962421073      penalty:   1.4518446524419928E-005
 PAO|CG| trace_G_new    2.2101256353899553E-004
 PAO|CG| trace_G_prev    7.2526835952703298E-004
 PAO|CG| trace_G_mix    2.9515208716020130E-006
 PAO|CG| trace_D    9.8412993413120797E-004
 PAO|CG| trace_D_Gnew  -1.8299827962418975E-006
 PAO|CG| beta:   0.30066256138568764     
 PAO| norm of gradient:   1.4866491298857157E-002
 PAO| energy improvement:  -1.6227789946920979E-004
 PAO| step     22                   -7.803030396  0.929E-03  0.445E+00     0.160
 PAO|LS| adapt:  T F F
 PAO|LS| adapt: scan_steps:    0.0000000000000000        0.0000000000000000        0.0000000000000000     
 PAO|LS| adapt: energies:   -7.8030303962421073        0.0000000000000000        0.0000000000000000     
 PAO| ======================= Iteration:        23 =============================

     Lanczos converged:  T threshold:   0.100E-02
     Est. extremal eigenvalues:    0.277E+01   0.179E+00
     Est. condition number :    0.155E+02
     NS sqrt iter    1 1.00000000   0.705E+00       0.002       41.378
     NS sqrt iter    2 1.00000000   0.329E+00       0.002       63.192
     NS sqrt iter    3 1.00000000   0.758E-01       0.002       63.219
     NS sqrt iter    4 1.00000000   0.193E-02       0.002       61.296
     NS sqrt iter    5 1.00000000   0.666E-07       0.017        4.244
     Final NS sqrt iter    5 1.00000000   0.858E-09

     Est. extremal eigenvalues     -0.93718     1.73051  converged:  T
     TRS4 it   1 1.00000000   0.887E+00       0.001       16.128   0.100E-07
     TRS4 it   2 1.00000000   0.627E+00       0.001       32.256   0.100E-07
     TRS4 it   3 1.00000000   0.428E+00       0.001       32.256   0.100E-07
     TRS4 it   4 1.00000000   0.219E+00       0.001       32.256   0.100E-07
     TRS4 it   5 1.00000000   0.714E-01       0.008        3.975   0.100E-07
     TRS4 it   6 1.00000000   0.954E-02       0.001       32.204   0.100E-07
     TRS4 it   7 1.00000000   0.226E-03       0.001       32.256   0.100E-07
     TRS4 it   8 1.00000000   0.175E-06       0.001       30.045   0.100E-07
     TRS4 it   9 1.00000000   0.131E-12       0.001       32.256   0.100E-07
     Final TRS4 iteration    9 1.00000000   0.131E-12
     Chemical potential (mu):       0.01173
 
 PAO| energy:  -7.8030794998693889      penalty:   1.3836425278060752E-005
 PAO|LS| adapt:  T T F
 PAO|LS| adapt: scan_steps:    0.0000000000000000       0.44485713693417639        0.0000000000000000     
 PAO|LS| adapt: energies:   -7.8030303962421073       -7.8030794998693889        0.0000000000000000     
 PAO| ======================= Iteration:        24 =============================

     Lanczos converged:  T threshold:   0.100E-02
     Est. extremal eigenvalues:    0.277E+01   0.179E+00
     Est. condition number :    0.155E+02
     NS sqrt iter    1 1.00000000   0.705E+00       0.002       40.479
     NS sqrt iter    2 1.00000000   0.329E+00       0.002       63.707
     NS sqrt iter    3 1.00000000   0.758E-01       0.002       49.949
     NS sqrt iter    4 1.00000000   0.193E-02       0.002       63.682
     NS sqrt iter    5 1.00000000   0.666E-07       0.002       45.985
     Final NS sqrt iter    5 1.00000000   0.866E-09

     Est. extremal eigenvalues     -0.93718     1.73024  converged:  T
     TRS4 it   1 1.00000000   0.887E+00       0.001       16.128   0.100E-07
     TRS4 it   2 1.00000000   0.627E+00       0.001       32.256   0.100E-07
     TRS4 it   3 1.00000000   0.428E+00       0.001       32.256   0.100E-07
     TRS4 it   4 1.00000000   0.219E+00       0.001       32.256   0.100E-07
     TRS4 it   5 1.00000000   0.715E-01       0.001       24.667   0.100E-07
     TRS4 it   6 1.00000000   0.959E-02       0.001       28.021   0.100E-07
     TRS4 it   7 1.00000000   0.228E-03       0.001       32.256   0.100E-07
     TRS4 it   8 1.00000000   0.180E-06       0.001       32.256   0.100E-07
     TRS4 it   9 1.00000000   0.138E-12       0.001       32.256   0.100E-07
     Final TRS4 iteration    9 1.00000000   0.138E-12
     Chemical potential (mu):       0.01140
 
 PAO| energy:  -7.8030290609322073      penalty:   1.3182709898338502E-005
 PAO|LS| adapt:  T T T
 PAO|LS| adapt: scan_steps:    0.0000000000000000       0.44485713693417639       0.88971427386835278     
 PAO|LS| adapt: energies:   -7.8030303962421073       -7.8030794998693889       -7.8030290609322073     
 PAO|LS| adapt: suggested step_size:   0.44187337746288458     
 PAO|LS| adapt: predicted energy  -7.8030795021084476     
 PAO| ======================= Iteration:        25 =============================

     Lanczos converged:  T threshold:   0.100E-02
     Est. extremal eigenvalues:    0.277E+01   0.179E+00
     Est. condition number :    0.155E+02
     NS sqrt iter    1 1.00000000   0.705E+00       0.002       39.293
     NS sqrt iter    2 1.00000000   0.329E+00       0.002       61.794
     NS sqrt iter    3 1.00000000   0.758E-01       0.002       64.746
     NS sqrt iter    4 1.00000000   0.193E-02       0.002       53.959
     NS sqrt iter    5 1.00000000   0.666E-07       0.002       45.569
     Final NS sqrt iter    5 1.00000000   0.858E-09

     Est. extremal eigenvalues     -0.93718     1.73051  converged:  T
     TRS4 it   1 1.00000000   0.887E+00       0.001       16.128   0.100E-07
     TRS4 it   2 1.00000000   0.627E+00       0.001       31.419   0.100E-07
     TRS4 it   3 1.00000000   0.428E+00       0.001       32.256   0.100E-07
     TRS4 it   4 1.00000000   0.219E+00       0.001       32.256   0.100E-07
     TRS4 it   5 1.00000000   0.714E-01       0.001       25.350   0.100E-07
     TRS4 it   6 1.00000000   0.954E-02       0.001       32.256   0.100E-07
     TRS4 it   7 1.00000000   0.226E-03       0.001       28.145   0.100E-07
     TRS4 it   8 1.00000000   0.175E-06       0.001       32.256   0.100E-07
     TRS4 it   9 1.00000000   0.131E-12       0.001       23.812   0.100E-07
     Final TRS4 iteration    9 1.00000000   0.131E-12
     Chemical potential (mu):       0.01174
 
 PAO| energy:  -7.8030795010649801      penalty:   1.3840904777205165E-005
 PAO|CG| trace_G_new    7.8544031355122775E-005
 PAO|CG| trace_G_prev    2.2101256353899553E-004
 PAO|CG| trace_G_mix    6.8335119422585104E-007
 PAO|CG| trace_D    3.1107633215696450E-004
 PAO|CG| trace_D_Gnew  -3.4972155593671400E-007
 PAO|CG| beta:   0.35229074272585037     
 PAO| norm of gradient:   8.8625070581141302E-003
 PAO| energy improvement:  -4.9104822872791942E-005
 PAO| step     25                   -7.803079501  0.554E-03  0.442E+00     0.109
 PAO|LS| adapt:  T F F
 PAO|LS| adapt: scan_steps:    0.0000000000000000        0.0000000000000000        0.0000000000000000     
 PAO|LS| adapt: energies:   -7.8030795010649801        0.0000000000000000        0.0000000000000000     
 PAO| ======================= Iteration:        26 =============================

     Lanczos converged:  T threshold:   0.100E-02
     Est. extremal eigenvalues:    0.277E+01   0.179E+00
     Est. condition number :    0.155E+02
     NS sqrt iter    1 1.00000000   0.704E+00       0.002       40.556
     NS sqrt iter    2 1.00000000   0.329E+00       0.002       61.489
     NS sqrt iter    3 1.00000000   0.757E-01       0.002       63.404
     NS sqrt iter    4 1.00000000   0.192E-02       0.002       63.261
     NS sqrt iter    5 1.00000000   0.658E-07       0.002       45.533
     Final NS sqrt iter    5 1.00000000   0.848E-09

     Est. extremal eigenvalues     -0.93718     1.73001  converged:  T
     TRS4 it   1 1.00000000   0.887E+00       0.001       16.128   0.100E-07
     TRS4 it   2 1.00000000   0.627E+00       0.001       32.256   0.100E-07
     TRS4 it   3 1.00000000   0.427E+00       0.001       32.256   0.100E-07
     TRS4 it   4 1.00000000   0.219E+00       0.001       32.256   0.100E-07
     TRS4 it   5 1.00000000   0.713E-01       0.001       32.256   0.100E-07
     TRS4 it   6 1.00000000   0.952E-02       0.001       32.256   0.100E-07
     TRS4 it   7 1.00000000   0.224E-03       0.001       32.256   0.100E-07
     TRS4 it   8 1.00000000   0.173E-06       0.001       29.659   0.100E-07
     TRS4 it   9 1.00000000   0.127E-12       0.001       32.256   0.100E-07
     Final TRS4 iteration    9 1.00000000   0.127E-12
     Chemical potential (mu):       0.01184
 
 PAO| energy:  -7.8030832454505292      penalty:   1.3120298262815074E-005
 PAO|LS| adapt:  T T F
 PAO|LS| adapt: scan_steps:    0.0000000000000000       0.44187337746288458        0.0000000000000000     
 PAO|LS| adapt: energies:   -7.8030795010649801       -7.8030832454505292        0.0000000000000000     
 PAO| ======================= Iteration:        27 =============================

     Lanczos converged:  T threshold:   0.100E-02
     Est. extremal eigenvalues:    0.277E+01   0.179E+00
     Est. condition number :    0.155E+02
     NS sqrt iter    1 1.00000000   0.704E+00       0.002       36.230
     NS sqrt iter    2 1.00000000   0.329E+00       0.002       61.443
     NS sqrt iter    3 1.00000000   0.756E-01       0.002       62.105
     NS sqrt iter    4 1.00000000   0.191E-02       0.002       64.584
     NS sqrt iter    5 1.00000000   0.651E-07       0.002       46.061
     Final NS sqrt iter    5 1.00000000   0.855E-09

     Est. extremal eigenvalues     -0.93719     1.72951  converged:  T
     TRS4 it   1 1.00000000   0.887E+00       0.001       16.128   0.100E-07
     TRS4 it   2 1.00000000   0.627E+00       0.001       32.256   0.100E-07
     TRS4 it   3 1.00000000   0.427E+00       0.002       20.477   0.100E-07
     TRS4 it   4 1.00000000   0.218E+00       0.001       31.816   0.100E-07
     TRS4 it   5 1.00000000   0.712E-01       0.001       32.256   0.100E-07
     TRS4 it   6 1.00000000   0.950E-02       0.001       32.195   0.100E-07
     TRS4 it   7 1.00000000   0.223E-03       0.001       32.256   0.100E-07
     TRS4 it   8 1.00000000   0.171E-06       0.001       32.256   0.100E-07
     TRS4 it   9 1.00000000   0.124E-12       0.001       32.256   0.100E-07
     Final TRS4 iteration    9 1.00000000   0.124E-12
     Chemical potential (mu):       0.01194
 
 PAO| energy:  -7.8030248562497482      penalty:   1.2423159545403699E-005
 PAO|LS| adapt:  T T T
 PAO|LS| adapt: scan_steps:    0.0000000000000000       0.44187337746288458       0.88374675492576915     
 PAO|LS| adapt: energies:   -7.8030795010649801       -7.8030832454505292       -7.8030248562497482     
 PAO|LS| adapt: suggested step_size:   0.24756551199530522     
 PAO|LS| adapt: predicted energy  -7.8030892527808797     
 PAO| ======================= Iteration:        28 =============================

     Lanczos converged:  T threshold:   0.100E-02
     Est. extremal eigenvalues:    0.277E+01   0.179E+00
     Est. condition number :    0.155E+02
     NS sqrt iter    1 1.00000000   0.704E+00       0.002       31.931
     NS sqrt iter    2 1.00000000   0.329E+00       0.002       63.620
     NS sqrt iter    3 1.00000000   0.757E-01       0.002       54.094
     NS sqrt iter    4 1.00000000   0.192E-02       0.003       43.124
     NS sqrt iter    5 1.00000000   0.662E-07       0.002       46.240
     Final NS sqrt iter    5 1.00000000   0.850E-09

     Est. extremal eigenvalues     -0.93718     1.73023  converged:  T
     TRS4 it   1 1.00000000   0.887E+00       0.001       16.128   0.100E-07
     TRS4 it   2 1.00000000   0.627E+00       0.001       32.256   0.100E-07
     TRS4 it   3 1.00000000   0.428E+00       0.001       32.256   0.100E-07
     TRS4 it   4 1.00000000   0.219E+00       0.001       32.256   0.100E-07
     TRS4 it   5 1.00000000   0.713E-01       0.001       32.256   0.100E-07
     TRS4 it   6 1.00000000   0.953E-02       0.001       31.475   0.100E-07
     TRS4 it   7 1.00000000   0.225E-03       0.001       32.256   0.100E-07
     TRS4 it   8 1.00000000   0.174E-06       0.001       29.544   0.100E-07
     TRS4 it   9 1.00000000   0.129E-12       0.001       32.256   0.100E-07
     Final TRS4 iteration    9 1.00000000   0.129E-12
     Chemical potential (mu):       0.01179
 
 PAO| energy:  -7.8030892439481896      penalty:   1.3434265712939296E-005
 PAO|CG| trace_G_new    3.0817800833678119E-005
 PAO|CG| trace_G_prev    7.8544031355122775E-005
 PAO|CG| trace_G_mix    4.5456116668449898E-008
 PAO|CG| trace_D    1.1739773884302681E-004
 PAO|CG| trace_D_Gnew  -2.3986180814519116E-008
 PAO|CG| beta:   0.39178463577809014     
 PAO| norm of gradient:   5.5513782823437751E-003
 PAO| energy improvement:  -9.7428832095403095E-006
 PAO| step     28                   -7.803089244  0.347E-03  0.248E+00     0.086
 PAO|LS| adapt:  T F F
 PAO|LS| adapt: scan_steps:    0.0000000000000000        0.0000000000000000        0.0000000000000000     
 PAO|LS| adapt: energies:   -7.8030892439481896        0.0000000000000000        0.0000000000000000     
 PAO| ======================= Iteration:        29 =============================

     Lanczos converged:  T threshold:   0.100E-02
     Est. extremal eigenvalues:    0.277E+01   0.179E+00
     Est. condition number :    0.155E+02
     NS sqrt iter    1 1.00000000   0.704E+00       0.002       40.012
     NS sqrt iter    2 1.00000000   0.329E+00       0.002       59.991
     NS sqrt iter    3 1.00000000   0.756E-01       0.002       62.930
     NS sqrt iter    4 1.00000000   0.192E-02       0.002       63.819
     NS sqrt iter    5 1.00000000   0.659E-07       0.002       46.313
     Final NS sqrt iter    5 1.00000000   0.846E-09

     Est. extremal eigenvalues     -0.93719     1.73006  converged:  T
     TRS4 it   1 1.00000000   0.887E+00       0.001       16.128   0.100E-07
     TRS4 it   2 1.00000000   0.627E+00       0.002       18.103   0.100E-07
     TRS4 it   3 1.00000000   0.427E+00       0.001       32.256   0.100E-07
     TRS4 it   4 1.00000000   0.219E+00       0.001       32.256   0.100E-07
     TRS4 it   5 1.00000000   0.712E-01       0.001       31.561   0.100E-07
     TRS4 it   6 1.00000000   0.951E-02       0.001       32.256   0.100E-07
     TRS4 it   7 1.00000000   0.224E-03       0.001       32.256   0.100E-07
     TRS4 it   8 1.00000000   0.172E-06       0.001       32.256   0.100E-07
     TRS4 it   9 1.00000000   0.125E-12       0.002       18.713   0.100E-07
     Final TRS4 iteration    9 1.00000000   0.125E-12
     Chemical potential (mu):       0.01191
 
 PAO| energy:  -7.8030959652868788      penalty:   1.3009096119575332E-005
 PAO|LS| adapt:  T T F
 PAO|LS| adapt: scan_steps:    0.0000000000000000       0.24756551199530522        0.0000000000000000     
 PAO|LS| adapt: energies:   -7.8030892439481896       -7.8030959652868788        0.0000000000000000     
 PAO| ======================= Iteration:        30 =============================

     Lanczos converged:  T threshold:   0.100E-02
     Est. extremal eigenvalues:    0.277E+01   0.179E+00
     Est. condition number :    0.155E+02
     NS sqrt iter    1 1.00000000   0.704E+00       0.002       39.862
     NS sqrt iter    2 1.00000000   0.329E+00       0.002       60.592
     NS sqrt iter    3 1.00000000   0.756E-01       0.002       63.427
     NS sqrt iter    4 1.00000000   0.192E-02       0.002       64.121
     NS sqrt iter    5 1.00000000   0.656E-07       0.002       45.175
     Final NS sqrt iter    5 1.00000000   0.861E-09

     Est. extremal eigenvalues     -0.93719     1.72989  converged:  T
     TRS4 it   1 1.00000000   0.887E+00       0.001       16.128   0.100E-07
     TRS4 it   2 1.00000000   0.627E+00       0.001       32.256   0.100E-07
     TRS4 it   3 1.00000000   0.427E+00       0.001       32.256   0.100E-07
     TRS4 it   4 1.00000000   0.218E+00       0.001       24.814   0.100E-07
     TRS4 it   5 1.00000000   0.711E-01       0.001       32.256   0.100E-07
     TRS4 it   6 1.00000000   0.949E-02       0.001       32.256   0.100E-07
     TRS4 it   7 1.00000000   0.222E-03       0.001       32.256   0.100E-07
     TRS4 it   8 1.00000000   0.170E-06       0.001       32.256   0.100E-07
     TRS4 it   9 1.00000000   0.123E-12       0.001       32.256   0.100E-07
     Final TRS4 iteration    9 1.00000000   0.123E-12
     Chemical potential (mu):       0.01203
 
 PAO| energy:  -7.8031008674388032      penalty:   1.2591526161933171E-005
 PAO|LS| adapt:  T T F
 PAO|LS| adapt: scan_steps:    0.0000000000000000       0.49513102399061043        0.0000000000000000     
 PAO|LS| adapt: energies:   -7.8030892439481896       -7.8031008674388032        0.0000000000000000     
 PAO| ======================= Iteration:        31 =============================

     Lanczos converged:  T threshold:   0.100E-02
     Est. extremal eigenvalues:    0.276E+01   0.179E+00
     Est. condition number :    0.155E+02
     NS sqrt iter    1 1.00000000   0.704E+00       0.002       33.541
     NS sqrt iter    2 1.00000000   0.328E+00       0.002       63.385
     NS sqrt iter    3 1.00000000   0.754E-01       0.002       61.182
     NS sqrt iter    4 1.00000000   0.191E-02       0.002       60.419
     NS sqrt iter    5 1.00000000   0.650E-07       0.002       46.833
     Final NS sqrt iter    5 1.00000000   0.844E-09

     Est. extremal eigenvalues     -0.93719     1.72954  converged:  T
     TRS4 it   1 1.00000000   0.887E+00       0.001       16.128   0.100E-07
     TRS4 it   2 1.00000000   0.627E+00       0.001       32.256   0.100E-07
     TRS4 it   3 1.00000000   0.427E+00       0.001       32.256   0.100E-07
     TRS4 it   4 1.00000000   0.218E+00       0.001       32.256   0.100E-07
     TRS4 it   5 1.00000000   0.710E-01       0.001       32.256   0.100E-07
     TRS4 it   6 1.00000000   0.944E-02       0.001       32.256   0.100E-07
     TRS4 it   7 1.00000000   0.220E-03       0.001       32.256   0.100E-07
     TRS4 it   8 1.00000000   0.166E-06       0.001       32.256   0.100E-07
     TRS4 it   9 1.00000000   0.116E-12       0.001       32.238   0.100E-07
     Final TRS4 iteration    9 1.00000000   0.116E-12
     Chemical potential (mu):       0.01227
 
 PAO| energy:  -7.8031052073124538      penalty:   1.1779037423012279E-005
 PAO|LS| Need extra step
 PAO|LS| adapt:  T T F
 PAO|LS| adapt: scan_steps:    0.0000000000000000       0.99026204798122086        0.0000000000000000     
 PAO|LS| adapt: energies:   -7.8030892439481896       -7.8031052073124538        0.0000000000000000     
 PAO| ======================= Iteration:        32 =============================

     Lanczos converged:  T threshold:   0.100E-02
     Est. extremal eigenvalues:    0.276E+01   0.179E+00
     Est. condition number :    0.155E+02
     NS sqrt iter    1 1.00000000   0.703E+00       0.002       36.261
     NS sqrt iter    2 1.00000000   0.328E+00       0.002       63.788
     NS sqrt iter    3 1.00000000   0.752E-01       0.002       63.755
     NS sqrt iter    4 1.00000000   0.190E-02       0.002       63.071
     NS sqrt iter    5 1.00000000   0.639E-07       0.002       45.495
     Final NS sqrt iter    5 1.00000000   0.814E-09

     Est. extremal eigenvalues     -0.93720     1.72884  converged:  T
     TRS4 it   1 1.00000000   0.887E+00       0.001       16.128   0.100E-07
     TRS4 it   2 1.00000000   0.627E+00       0.001       32.256   0.100E-07
     TRS4 it   3 1.00000000   0.427E+00       0.001       32.256   0.100E-07
     TRS4 it   4 1.00000000   0.218E+00       0.001       32.256   0.100E-07
     TRS4 it   5 1.00000000   0.706E-01       0.001       32.256   0.100E-07
     TRS4 it   6 1.00000000   0.935E-02       0.001       32.256   0.100E-07
     TRS4 it   7 1.00000000   0.216E-03       0.001       32.256   0.100E-07
     TRS4 it   8 1.00000000   0.158E-06       0.001       32.256   0.100E-07
     TRS4 it   9 1.00000000   0.106E-12       0.001       30.339   0.100E-07
     Final TRS4 iteration    9 1.00000000   0.106E-12
     Chemical potential (mu):       0.01275
 
 PAO| energy:  -7.8030920394609504      penalty:   1.0243640095190841E-005
 PAO|LS| Need extra step
 PAO|LS| adapt:  T T T
 PAO|LS| adapt: scan_steps:    0.0000000000000000       0.99026204798122086        1.9805240959624417     
 PAO|LS| adapt: energies:   -7.8030892439481896       -7.8031052073124538       -7.8030920394609504     
 PAO|LS| adapt: suggested step_size:    1.0377762027933890     
 PAO|LS| adapt: predicted energy  -7.8031052408456043     
 PAO| ======================= Iteration:        33 =============================

     Lanczos converged:  T threshold:   0.100E-02
     Est. extremal eigenvalues:    0.276E+01   0.179E+00
     Est. condition number :    0.155E+02
     NS sqrt iter    1 1.00000000   0.704E+00       0.002       39.756
     NS sqrt iter    2 1.00000000   0.328E+00       0.002       59.192
     NS sqrt iter    3 1.00000000   0.754E-01       0.002       63.870
     NS sqrt iter    4 1.00000000   0.191E-02       0.002       64.480
     NS sqrt iter    5 1.00000000   0.649E-07       0.002       45.289
     Final NS sqrt iter    5 1.00000000   0.842E-09

     Est. extremal eigenvalues     -0.93719     1.72951  converged:  T
     TRS4 it   1 1.00000000   0.887E+00       0.001       16.128   0.100E-07
     TRS4 it   2 1.00000000   0.627E+00       0.001       32.256   0.100E-07
     TRS4 it   3 1.00000000   0.427E+00       0.001       32.256   0.100E-07
     TRS4 it   4 1.00000000   0.218E+00       0.001       32.256   0.100E-07
     TRS4 it   5 1.00000000   0.709E-01       0.001       23.414   0.100E-07
     TRS4 it   6 1.00000000   0.943E-02       0.001       32.220   0.100E-07
[...]
 PAO| ======================= Iteration:       413 =============================

     Lanczos converged:  T threshold:   0.100E-02
     Est. extremal eigenvalues:    0.249E+01   0.191E+00
     Est. condition number :    0.130E+02
     NS sqrt iter    1 1.00000000   0.631E+00       0.001       43.954
     NS sqrt iter    2 1.00000000   0.274E+00       0.002       66.464
     NS sqrt iter    3 1.00000000   0.483E-01       0.002       64.384
     NS sqrt iter    4 1.00000000   0.748E-03       0.002       68.094
     NS sqrt iter    5 1.00000000   0.550E-08       0.001       29.834
     Final NS sqrt iter    5 1.00000000   0.322E-09

     Est. extremal eigenvalues     -0.93688     1.62805  converged:  T
     TRS4 it   1 1.00000000   0.881E+00       0.001       16.128   0.100E-07
     TRS4 it   2 1.00000000   0.633E+00       0.001       32.256   0.100E-07
     TRS4 it   3 1.00000000   0.454E+00       0.001       32.256   0.100E-07
     TRS4 it   4 1.00000000   0.276E+00       0.001       32.256   0.100E-07
     TRS4 it   5 1.00000000   0.136E+00       0.001       32.256   0.100E-07
     TRS4 it   6 1.00000000   0.422E-01       0.001       32.256   0.100E-07
     TRS4 it   7 1.00000000   0.560E-02       0.001       32.256   0.100E-07
     TRS4 it   8 1.00000000   0.133E-03       0.001       32.256   0.100E-07
     TRS4 it   9 1.00000000   0.791E-07       0.001       32.256   0.100E-07
     Final TRS4 iteration    9 1.00000000   0.791E-07
     Chemical potential (mu):      -0.07428
 
 PAO| energy:  -7.8021479955335664      penalty:   2.4406647760964339E-008
 PAO|LS| Need extra step
 PAO|LS| adapt:  T T T
 PAO|LS| adapt: scan_steps:    0.0000000000000000       0.20000000000000001       0.40000000000000002     
 PAO|LS| adapt: energies:   -7.8021479910883542       -7.8021479963737175       -7.8021479955335664     
 PAO|LS| adapt: suggested step_size:   0.27256879941119805     
 PAO|LS| adapt: predicted energy  -7.8021479967769469     
 PAO| ======================= Iteration:       414 =============================

     Lanczos converged:  T threshold:   0.100E-02
     Est. extremal eigenvalues:    0.249E+01   0.191E+00
     Est. condition number :    0.130E+02
     NS sqrt iter    1 1.00000000   0.631E+00       0.001       43.604
     NS sqrt iter    2 1.00000000   0.274E+00       0.002       67.219
     NS sqrt iter    3 1.00000000   0.483E-01       0.002       68.715
     NS sqrt iter    4 1.00000000   0.748E-03       0.002       51.553
     NS sqrt iter    5 1.00000000   0.550E-08       0.001       28.436
     Final NS sqrt iter    5 1.00000000   0.322E-09

     Est. extremal eigenvalues     -0.93688     1.62805  converged:  T
     TRS4 it   1 1.00000000   0.881E+00       0.001       16.128   0.100E-07
     TRS4 it   2 1.00000000   0.633E+00       0.001       32.256   0.100E-07
     TRS4 it   3 1.00000000   0.454E+00       0.001       32.256   0.100E-07
     TRS4 it   4 1.00000000   0.276E+00       0.001       32.256   0.100E-07
     TRS4 it   5 1.00000000   0.136E+00       0.001       32.256   0.100E-07
     TRS4 it   6 1.00000000   0.422E-01       0.001       32.256   0.100E-07
     TRS4 it   7 1.00000000   0.560E-02       0.001       32.256   0.100E-07
     TRS4 it   8 1.00000000   0.133E-03       0.001       32.256   0.100E-07
     TRS4 it   9 1.00000000   0.791E-07       0.001       32.256   0.100E-07
     Final TRS4 iteration    9 1.00000000   0.791E-07
     Chemical potential (mu):      -0.07429
 
 PAO| energy:  -7.8021479967769549      penalty:   2.4660011161250612E-008
 PAO|CG| warming up with steepest descent
 PAO|CG| beta:    0.0000000000000000     
 PAO| norm of gradient:   1.4272085414641854E-004
 PAO| energy improvement:  -5.6886007016032636E-009
 PAO| step    414                   -7.802147997  0.892E-05  0.273E+00     0.102
 PAO| converged after          414  steps :-)
 PAO| Recalculating energy after mixing.

     Lanczos converged:  T threshold:   0.100E-02
     Est. extremal eigenvalues:    0.249E+01   0.191E+00
     Est. condition number :    0.130E+02
     NS sqrt iter    1 1.00000000   0.631E+00       0.001       43.924
     NS sqrt iter    2 1.00000000   0.274E+00       0.002       67.439
     NS sqrt iter    3 1.00000000   0.483E-01       0.002       65.984
     NS sqrt iter    4 1.00000000   0.748E-03       0.002       67.028
     NS sqrt iter    5 1.00000000   0.550E-08       0.001       29.793
     Final NS sqrt iter    5 1.00000000   0.322E-09

     Est. extremal eigenvalues     -0.93688     1.62804  converged:  T
     TRS4 it   1 1.00000000   0.881E+00       0.001       16.128   0.100E-07
     TRS4 it   2 1.00000000   0.633E+00       0.001       32.256   0.100E-07
     TRS4 it   3 1.00000000   0.454E+00       0.001       32.256   0.100E-07
     TRS4 it   4 1.00000000   0.276E+00       0.001       32.256   0.100E-07
     TRS4 it   5 1.00000000   0.136E+00       0.001       32.256   0.100E-07
     TRS4 it   6 1.00000000   0.422E-01       0.001       32.256   0.100E-07
     TRS4 it   7 1.00000000   0.560E-02       0.001       32.256   0.100E-07
     TRS4 it   8 1.00000000   0.133E-03       0.001       32.256   0.100E-07
     TRS4 it   9 1.00000000   0.791E-07       0.001       32.256   0.100E-07
     Final TRS4 iteration    9 1.00000000   0.791E-07
     Chemical potential (mu):      -0.07429
 
 PAO| energy:  -7.8021479953547921      penalty:   2.4932420283685237E-008
 PAO| Writing restart file.
     Est. extremal eigenvalues     -0.93688     1.62804  converged:  T
     TRS4 it   1 1.00000000   0.881E+00       0.001       16.128   0.100E-07
     TRS4 it   2 1.00000000   0.633E+00       0.001       32.256   0.100E-07
     TRS4 it   3 1.00000000   0.454E+00       0.001       32.256   0.100E-07
     TRS4 it   4 1.00000000   0.276E+00       0.001       32.256   0.100E-07
     TRS4 it   5 1.00000000   0.136E+00       0.001       32.256   0.100E-07
     TRS4 it   6 1.00000000   0.422E-01       0.001       32.256   0.100E-07
     TRS4 it   7 1.00000000   0.560E-02       0.001       32.256   0.100E-07
     TRS4 it   8 1.00000000   0.133E-03       0.001       32.256   0.100E-07
     TRS4 it   9 1.00000000   0.791E-07       0.001       32.256   0.100E-07
     Final TRS4 iteration    9 1.00000000   0.791E-07
     Chemical potential (mu):      -0.07429

 SCF     1       -34.450011107       -34.450011107    2.400812

*********************************************************
 Using MIXING_FRACTION=0.450 to mix KS matrix:  iscf=  2
 KS_nw=0.450*KS + 0.550*KS_old
*********************************************************
     Est. extremal eigenvalues     -0.93688     1.62805  converged:  T
     TRS4 it   1 1.00000000   0.881E+00       0.001       16.128   0.100E-07
     TRS4 it   2 1.00000000   0.633E+00       0.001       32.256   0.100E-07
     TRS4 it   3 1.00000000   0.454E+00       0.001       32.256   0.100E-07
     TRS4 it   4 1.00000000   0.276E+00       0.001       32.256   0.100E-07
     TRS4 it   5 1.00000000   0.136E+00       0.001       32.256   0.100E-07
     TRS4 it   6 1.00000000   0.422E-01       0.001       32.256   0.100E-07
     TRS4 it   7 1.00000000   0.561E-02       0.001       32.256   0.100E-07
     TRS4 it   8 1.00000000   0.133E-03       0.001       32.256   0.100E-07
     TRS4 it   9 1.00000000   0.791E-07       0.001       32.256   0.100E-07
     Final TRS4 iteration    9 1.00000000   0.791E-07
     Chemical potential (mu):      -0.07428

 SCF     2       -34.450011107        -0.000000000    2.406609

 PAO| Storing density matrix for ASPC guess in slot:           1

 ENERGY| Total FORCE_EVAL ( QS ) energy (a.u.):              -34.450011107082929


 -------------------------------------------------------------------------------
 -                                                                             -
 -                                DBCSR STATISTICS                             -
 -                                                                             -
 -------------------------------------------------------------------------------
 COUNTER                                    TOTAL       BLAS       SMM       ACC
 flops     5 x     5 x     4                20000     100.0%      0.0%      0.0%
 flops    13 x     5 x     4                20800     100.0%      0.0%      0.0%
 flops     5 x    13 x     4                20800     100.0%      0.0%      0.0%
 flops    13 x    13 x     4                40560     100.0%      0.0%      0.0%
 flops     4 x     4 x     5              3252480     100.0%      0.0%      0.0%
 flops     5 x     4 x     5              3977600     100.0%      0.0%      0.0%
 flops     4 x     4 x    13              4228224     100.0%      0.0%      0.0%
 flops    13 x     4 x     5              5170880     100.0%      0.0%      0.0%
 flops     5 x     4 x    13              5170880     100.0%      0.0%      0.0%
 flops     5 x     4 x     4              6551200     100.0%      0.0%      0.0%
 flops    13 x     4 x    13              6722144     100.0%      0.0%      0.0%
 flops    13 x     4 x     4              8793824     100.0%      0.0%      0.0%
 flops     4 x     4 x     4            416478848     100.0%      0.0%      0.0%
 flops inhomo. stacks                           0       0.0%      0.0%      0.0%
 flops total                       460.448240E+06     100.0%      0.0%      0.0%
 flops max/rank                    460.448240E+06     100.0%      0.0%      0.0%
 matmuls inhomo. stacks                         0       0.0%      0.0%      0.0%
 matmuls total                            3391275     100.0%      0.0%      0.0%
 number of processed stacks                 27075     100.0%      0.0%      0.0%
 average stack size                                   125.3       0.0       0.0
 marketing flops                   747.342528E+06
 -------------------------------------------------------------------------------
 # multiplications                          22532
 max memory usage/rank             329.916416E+06
 # max total images/rank                        1
 # max 3D layers                                1
 # MPI messages exchanged                       0
 MPI messages size (bytes):
  total size                         0.000000E+00
  min size                           0.000000E+00
  max size                           0.000000E+00
  average size                       0.000000E+00
 MPI breakdown and total messages size (bytes):
             size <=      128                   0                        0
       128 < size <=     8192                   0                        0
      8192 < size <=    32768                   0                        0
     32768 < size <=   131072                   0                        0
    131072 < size <=  4194304                   0                        0
   4194304 < size <= 16777216                   0                        0
  16777216 < size                               0                        0
 -------------------------------------------------------------------------------

 MEMORY| Estimated peak process memory [MiB]                                 315

 -------------------------------------------------------------------------------
 -                                                                             -
 -                           R E F E R E N C E S                               -
 -                                                                             -
 -------------------------------------------------------------------------------
 
 CP2K version 7.0 (Development Version), the CP2K developers group (2018).
 CP2K is freely available from https://www.cp2k.org/ .

 Schuett, O; VandeVondele, J. 
 Journal of Chemical Theory and Computation, 14, (2018). 
 Machine Learning Adaptive Basis Sets for Efficient Large Scale Density Functional Theory Simulation.
 https://dx.doi.org/10.1021/acs.jctc.8b00378


 Schuett, Ole; Messmer, Peter; Hutter, Juerg; VandeVondele, Joost. 
 Electronic Structure Calculations on Graphics Processing Units, John Wiley & Sons, Ltd, 173-190 (2016). 
 GPU-Accelerated Sparse Matrix-Matrix Multiplication for Linear Scaling Density Functional Theory.
 https://dx.doi.org/10.1002/9781118670712.ch8


 Borstnik, U; VandeVondele, J; Weber, V; Hutter, J. 
 PARALLEL COMPUTING, 40 (5-6), 47-58 (2014). 
 Sparse matrix multiplication: The distributed block-compressed sparse
 row library.
 https://dx.doi.org/10.1016/j.parco.2014.03.012


 Hutter, J; Iannuzzi, M; Schiffmann, F; VandeVondele, J. 
 WILEY INTERDISCIPLINARY REVIEWS-COMPUTATIONAL MOLECULAR SCIENCE, 4 (1), 15-25 (2014). 
 CP2K: atomistic simulations of condensed matter systems.
 https://dx.doi.org/10.1002/wcms.1159


 VandeVondele, J; Borstnik, U; Hutter, J. 
 JOURNAL OF CHEMICAL THEORY AND COMPUTATION, 8 (10), 3565-3573 (2012). 
 Linear Scaling Self-Consistent Field Calculations with Millions of Atoms
 in the Condensed Phase.
 https://dx.doi.org/10.1021/ct200897x


 VandeVondele, J; Hutter, J. 
 JOURNAL OF CHEMICAL PHYSICS, 127 (11), 114105 (2007). 
 Gaussian basis sets for accurate calculations on molecular systems in
 gas and condensed phases.
 https://dx.doi.org/10.1063/1.2770708


 Krack, M. 
 THEORETICAL CHEMISTRY ACCOUNTS, 114 (1-3), 145-152 (2005). 
 Pseudopotentials for H to Kr optimized for gradient-corrected
 exchange-correlation functionals.
 https://dx.doi.org/10.1007/s00214-005-0655-y


 VandeVondele, J; Krack, M; Mohamed, F; Parrinello, M; Chassaing, T;
 Hutter, J. COMPUTER PHYSICS COMMUNICATIONS, 167 (2), 103-128 (2005). 
 QUICKSTEP: Fast and accurate density functional calculations using a
 mixed Gaussian and plane waves approach.
 https://dx.doi.org/10.1016/j.cpc.2004.12.014


 Frigo, M; Johnson, SG. 
 PROCEEDINGS OF THE IEEE, 93 (2), 216-231 (2005). 
 The design and implementation of FFTW3.
 https://dx.doi.org/10.1109/JPROC.2004.840301


 Niklasson, AMN; Tymczak, CJ; Challacombe, M. 
 JOURNAL OF CHEMICAL PHYSICS, 118 (19), 8611-8620 (2003). 
 Trace resetting density matrix purification in O(N)
 self-consistent-field theory.
 https://dx.doi.org/10.1063/1.1559913


 Hartwigsen, C; Goedecker, S; Hutter, J. 
 PHYSICAL REVIEW B, 58 (7), 3641-3662 (1998). 
 Relativistic separable dual-space Gaussian pseudopotentials from H to Rn.
 https://dx.doi.org/10.1103/PhysRevB.58.3641


 Lippert, G; Hutter, J; Parrinello, M. 
 MOLECULAR PHYSICS, 92 (3), 477-487 (1997). 
 A hybrid Gaussian and plane wave density functional scheme.
 https://dx.doi.org/10.1080/002689797170220


 Perdew, JP; Burke, K; Ernzerhof, M. 
 PHYSICAL REVIEW LETTERS, 77 (18), 3865-3868 (1996). 
 Generalized gradient approximation made simple.
 https://dx.doi.org/10.1103/PhysRevLett.77.3865


 Goedecker, S; Teter, M; Hutter, J. 
 PHYSICAL REVIEW B, 54 (3), 1703-1710 (1996). 
 Separable dual-space Gaussian pseudopotentials.
 https://dx.doi.org/10.1103/PhysRevB.54.1703


 -------------------------------------------------------------------------------
 -                                                                             -
 -                                T I M I N G                                  -
 -                                                                             -
 -------------------------------------------------------------------------------
 SUBROUTINE                       CALLS  ASD         SELF TIME        TOTAL TIME
                                MAXIMUM       AVERAGE  MAXIMUM  AVERAGE  MAXIMUM
 CP2K                                 1  1.0    0.012    0.012   34.674   34.674
 qs_energies                          1  2.0    0.000    0.000   34.182   34.182
 ls_scf                               1  3.0    0.000    0.000   34.028   34.028
 ls_scf_main                          4  4.0    0.001    0.001   20.320   20.320
 ls_scf_dm_to_ks                      9  5.0    0.000    0.000   20.204   20.204
 qs_ks_update_qs_env                 10  6.0    0.000    0.000   16.058   16.058
 rebuild_ks_matrix                   10  7.0    0.000    0.000   16.057   16.057
 qs_ks_build_kohn_sham_matrix        10  8.0    0.001    0.001   16.057   16.057
 pao_update                           4  4.0    0.011    0.011   11.194   11.194
 pao_calc_energy                    417  5.0    0.004    0.004   10.067   10.067
 qs_vxc_create                       10  9.0    0.000    0.000    9.710    9.710
 xc_vxc_pw_create                    10 10.0    0.136    0.136    9.710    9.710
 dbcsr_multiply_generic           22532  8.4    0.519    0.519    8.654    8.654
 xc_rho_set_and_dset_create          10 11.0    0.037    0.037    6.942    6.942
 pw_transfer                        191 10.6    0.016    0.016    6.727    6.727
 fft_wrap_pw1pw2                    171 11.7    0.002    0.002    6.635    6.635
 qs_rho_update_rho                   10  6.0    0.000    0.000    6.580    6.580
 calculate_rho_elec                  10  7.0    5.133    5.133    6.580    6.580
 fft_wrap_pw1pw2_200                111 12.8    0.351    0.351    6.358    6.358
 sum_up_and_integrate                10  9.0    0.018    0.018    5.453    5.453
 integrate_v_rspace                  10 10.0    4.691    4.691    5.435    5.435
 pao_dm_trs4                        417  6.0    0.003    0.003    5.165    5.165
 density_matrix_trs4                426  7.0    0.184    0.184    4.979    4.979
 ls_scf_init_matrix_S               421  7.0    0.004    0.004    4.897    4.897
 pao_rebuild_S                      417  6.0    0.002    0.002    4.855    4.855
 xc_functional_eval                  10 12.0    0.000    0.000    4.818    4.818
 pbe_lda_eval                        10 13.0    4.818    4.818    4.818    4.818
 matrix_sqrt_Newton_Schulz          421  8.0    0.115    0.115    4.430    4.430
 multiply_cannon                  22532  9.4    1.350    1.350    4.087    4.087
 fft3d_s                            172 13.6    3.509    3.509    3.525    3.525
 make_m2s                         45064  9.4    0.199    0.199    2.722    2.722
 pao_guess_initial_P                  1  4.0    0.000    0.000    2.440    2.440
 pao_read_preopt_dm                   1  5.0    0.000    0.000    2.440    2.440
 make_images                      45064 10.4    0.648    0.648    2.398    2.398
 pw_gather_s                         81 13.1    1.623    1.623    1.623    1.623
 multiply_cannon_multrec          22532 10.4    1.476    1.476    1.608    1.608
 density_rs2pw                       10  8.0    0.001    0.001    1.433    1.433
 arnoldi_extremal                   847  8.5    0.005    0.005    1.218    1.218
 arnoldi_normal_ev                  847  9.5    0.013    0.013    1.213    1.213
 pw_scatter_s                        90 14.2    1.122    1.122    1.122    1.122
 pao_calc_AB                        550  5.8    0.001    0.001    1.107    1.107
 pao_calc_AB_direct                 550  6.8    0.030    0.030    1.106    1.106
 pao_calc_grad_lnv_wrt_AB           132  7.0    0.008    0.008    1.045    1.045
 build_subspace                     847 10.5    0.063    0.063    0.913    0.913
 dbcsr_finalize                   53373  9.6    0.128    0.128    0.832    0.832
 dbcsr_matrix_vector_mult         20319 11.5    0.122    0.122    0.820    0.820
 potential_pw2rs                     10 11.0    0.003    0.003    0.742    0.742
 dbcsr_create_new                172354 10.7    0.389    0.389    0.739    0.739
 -------------------------------------------------------------------------------

 The number of warnings for this run is : 0
 
 -------------------------------------------------------------------------------
  **** **** ******  **  PROGRAM ENDED AT                 2019-03-28 17:32:20.540
 ***** ** ***  *** **   PROGRAM RAN ON            oleschuett.zrh.corp.google.com
 **    ****   ******    PROGRAM RAN BY                                oleschuett
 ***** **    ** ** **   PROGRAM PROCESS ID                                 29194
  **** **  *******  **  PROGRAM STOPPED IN /usr/local/google/home/oleschuett/git
                                           /pao_ml_equivar/2H2O_rotations/phi_04
