 DBCSR| CPU Multiplication driver                                           XSMM (U)
 DBCSR| Multrec recursion limit                                              512 (U)
 DBCSR| Multiplication stack size                                           1000 (D)
 DBCSR| Maximum elements for images                                    UNLIMITED (U)
 DBCSR| Multiplicative factor virtual images                                   1 (U)
 DBCSR| Use multiplication densification                                       T (D)
 DBCSR| Multiplication size stacks                                             3 (U)
 DBCSR| Use memory pool for CPU allocation                                     F (U)
 DBCSR| Number of 3D layers                                               SINGLE (U)
 DBCSR| Use MPI memory allocation                                              F (U)
 DBCSR| Use RMA algorithm                                                      F (U)
 DBCSR| Use Communication thread                                               T (U)
 DBCSR| Communication thread load                                             87 (D)
 DBCSR| MPI: My process id                                                     0
 DBCSR| MPI: Number of processes                                              32
 DBCSR| OMP: Current number of threads                                         1
 DBCSR| OMP: Max number of threads                                             1
 DBCSR| Split modifier for TAS multiplication algorithm                  1.0E+00 (U)


  **** **** ******  **  PROGRAM STARTED AT               2024-09-23 17:39:14.282
 ***** ** ***  *** **   PROGRAM STARTED ON                                moritz
 **    ****   ******    PROGRAM STARTED BY                                   ole
 ***** **    ** ** **   PROGRAM PROCESS ID                                157427
  **** **  *******  **  PROGRAM STARTED IN /home/ole/git/pao_ml_equivar/64H2O_MD
                                           /Frame2800

 CP2K| version string:                 CP2K version 2024.3 (Development Version)
 CP2K| source code revision number:                                  git:3f890bb
 CP2K| cp2kflags: omp libint fftw3 libxc libgrpp pexsi elpa parallel scalapack c
 CP2K|            osma quip deepmd xsmm plumed2 spglib libdftd4 sirius libvori l
 CP2K|            libbqb libvdwxc hdf5
 CP2K| is freely available from                            https://www.cp2k.org/
 CP2K| Program compiled at                          Mo 23 Sep 2024 17:17:04 CEST
 CP2K| Program compiled on                                                moritz
 CP2K| Program compiled for                                                local
 CP2K| Data directory path                               /home/ole/git/cp2k/data
 CP2K| Input file name                                             64H2O_ref.inp

 GLOBAL| Force Environment number                                              1
 GLOBAL| Basis set file name                                        BASIS_MOLOPT
 GLOBAL| Potential file name                                      GTH_POTENTIALS
 GLOBAL| MM Potential file name                                     MM_POTENTIAL
 GLOBAL| Coordinate file name                                         coords.xyz
 GLOBAL| Method name                                                        CP2K
 GLOBAL| Project name                                                  64H2O_ref
 GLOBAL| Run type                                                         ENERGY
 GLOBAL| FFT library                                                       FFTW3
 GLOBAL| Diagonalization library                                            ELPA
 GLOBAL| DGEMM library                                                      BLAS
 GLOBAL| Minimum number of eigenvectors for ELPA usage                        16
 GLOBAL| Orthonormality check for eigenvectors                          DISABLED
 GLOBAL| Matrix multiplication library                                     COSMA
 GLOBAL| All-to-all communication in single precision                          F
 GLOBAL| FFTs using library dependent lengths                                  F
 GLOBAL| Grid backend                                                       AUTO
 GLOBAL| Global print level                                                  LOW
 GLOBAL| MPI I/O enabled                                                       T
 GLOBAL| Total number of message passing processes                            32
 GLOBAL| Number of threads for this process                                    1
 GLOBAL| This output is from process                                           0
 GLOBAL| Stack size for threads created by OpenMP (OMP_STACKSIZE)        default
 GLOBAL| CPU model name           AMD Ryzen Threadripper 3970X 32-Core Processor
 GLOBAL| CPUID                                                              1002

 MEMORY| system memory details [Kb]
 MEMORY|                        rank 0           min           max       average
 MEMORY| MemTotal            131752136     131752136     131752136     131752136
 MEMORY| MemFree             118359792     118359792     118359792     118359792
 MEMORY| Buffers                259924        259924        259924        259924
 MEMORY| Cached                7183384       7183384       7183384       7183384
 MEMORY| Slab                   707752        707752        707752        707752
 MEMORY| SReclaimable           273104        273104        273104        273104
 MEMORY| MemLikelyFree       126076204     126076204     126076204     126076204


 GENERATE|  Preliminary Number of Bonds generated:                             0
 GENERATE|  Achieved consistency in connectivity generation.

 *******************************************************************************
 *******************************************************************************
 **                                                                           **
 **     #####                         ##              ##                      **
 **    ##   ##            ##          ##              ##                      **
 **   ##     ##                       ##            ######                    **
 **   ##     ##  ##   ##  ##   #####  ##  ##   ####   ##    #####    #####    **
 **   ##     ##  ##   ##  ##  ##      ## ##   ##      ##   ##   ##  ##   ##   **
 **   ##  ## ##  ##   ##  ##  ##      ####     ###    ##   ######   ######    **
 **    ##  ###   ##   ##  ##  ##      ## ##      ##   ##   ##       ##        **
 **     #######   #####   ##   #####  ##  ##  ####    ##    #####   ##        **
 **           ##                                                    ##        **
 **                                                                           **
 **                                                ... make the atoms dance   **
 **                                                                           **
 **            Copyright (C) by CP2K developers group (2000-2024)             **
 **                      J. Chem. Phys. 152, 194103 (2020)                    **
 **                                                                           **
 *******************************************************************************


 TOTAL NUMBERS AND MAXIMUM NUMBERS

  Total number of            - Atomic kinds:                                   2
                             - Atoms:                                        192
                             - Shell sets:                                   192
                             - Shells:                                       704
                             - Primitive Cartesian functions:               1344
                             - Cartesian basis functions:                   1536
                             - Spherical basis functions:                   1472

  Maximum angular momentum of- Orbital basis functions:                        2
                             - Local part of the GTH pseudopotential:          2
                             - Non-local part of the GTH pseudopotential:      0

 ------------------------------ Linear scaling SCF -----------------------------
 eps_scf:                                                              0.100E-07
 eps_filter:                                                           0.100E-11
 mixing_fraction:                                                      0.450E+00
 max_scf:                                                                     25
 fixed chemical potential (mu)                                                 F
 has unit metric:                                                              F
 Computing inv(S):                                                             T
 Computing sqrt(S):                                                            T
 Computing S preconditioner                                                    F
 S sqrt method:                                                     NEWTONSCHULZ
 S sqrt order:                                                                 3
 Extrapolation order:                                                          1
 S preconditioner type                                                      NONE
 Polarized Atomic Orbitals (PAO)                                               F
 Purification method                                   Trace resetting 4th order
 Cluster type                                                             ATOMIC
 Computing Chebyshev                                                       FALSE
 Using PAO                                                                     F
 -------------------------------------------------------------------------------


     Lanczos converged:  F threshold:   0.100E-02
     Est. extremal eigenvalues:    0.892E+01   0.587E-02
     Est. condition number :    0.152E+04

 Order=           3
     NS sqrt iter    1 1.00000000   0.231E+01       0.065     6176.440
     NS sqrt iter    2 1.00000000   0.120E+01       0.099     8040.712
     NS sqrt iter    3 1.00000000   0.591E+00       0.099     8016.436
     NS sqrt iter    4 1.00000000   0.340E+00       0.099     8044.770
     NS sqrt iter    5 1.00000000   0.229E+00       0.099     8022.736
     NS sqrt iter    6 1.00000000   0.109E+00       0.099     8081.669
     NS sqrt iter    7 1.00000000   0.144E-01       0.098     8099.459
     NS sqrt iter    8 1.00000000   0.800E-04       0.099     8091.018
     NS sqrt iter    9 1.00000000   0.552E-10       0.071     6049.145
     Symmetrizing Results
     Final NS sqrt iter    9 1.00000000   0.646E-11



 Guess for atomic kind: O

 Electronic structure
    Total number of core electrons                                          2.00
    Total number of valence electrons                                       6.00
    Total number of electrons                                               8.00
    Multiplicity                                                   not specified
    S   [  2.00] 2.00
    P      4.00


 *******************************************************************************
                  Iteration          Convergence                     Energy [au]
 *******************************************************************************
                          1        0.708315                     -15.576645311500
                          2        0.608879                     -15.587933561584
                          3        0.102828E-01                 -15.656849565404
                          4        0.113889E-02                 -15.656866888140
                          5        0.434197E-03                 -15.656867072159
                          6        0.263771E-03                 -15.656867091904
                          7        0.478536E-06                 -15.656867103452

 Energy components [Hartree]           Total Energy ::          -15.656867103452
                                        Band Energy ::           -3.000198112285
                                     Kinetic Energy ::           11.759971203220
                                   Potential Energy ::          -27.416838306672
                                      Virial (-V/T) ::            2.331369510426
                                        Core Energy ::          -26.140716385623
                                          XC Energy ::           -3.154051012914
                                     Coulomb Energy ::           13.637900295084
                       Total Pseudopotential Energy ::          -37.935781716540
                       Local Pseudopotential Energy ::          -39.218907440693
                    Nonlocal Pseudopotential Energy ::            1.283125724153
                                        Confinement ::            0.350941276976

 Orbital energies  State     L     Occupation   Energy[a.u.]          Energy[eV]

                       1     0          2.000      -0.864471          -23.523463

                       1     1          4.000      -0.317814           -8.648154


 Total Electron Density at R=0:                                         0.000068

 Guess for atomic kind: H

 Electronic structure
    Total number of core electrons                                          0.00
    Total number of valence electrons                                       1.00
    Total number of electrons                                               1.00
    Multiplicity                                                   not specified
    S      1.00


 *******************************************************************************
                  Iteration          Convergence                     Energy [au]
 *******************************************************************************
                          1        0.437545E-02                  -0.424159432110
                          2        0.531356E-03                  -0.424178438213
                          3        0.259176E-06                  -0.424178722480

 Energy components [Hartree]           Total Energy ::           -0.424178722480
                                        Band Energy ::           -0.199015229016
                                     Kinetic Energy ::            0.464007633961
                                   Potential Energy ::           -0.888186356441
                                      Virial (-V/T) ::            1.914163240935
                                        Core Energy ::           -0.479160803564
                                          XC Energy ::           -0.244352904054
                                     Coulomb Energy ::            0.299334985138
                       Total Pseudopotential Energy ::           -0.962295316385
                       Local Pseudopotential Energy ::           -0.962295316385
                    Nonlocal Pseudopotential Energy ::            0.000000000000
                                        Confinement ::            0.191268788606

 Orbital energies  State     L     Occupation   Energy[a.u.]          Energy[eV]

                       1     0          1.000      -0.199015           -5.415480


 Total Electron Density at R=0:                                         0.242907
 Re-scaling the density matrix to get the right number of electrons
                  # Electrons              Trace(P)               Scaling factor
                          512               512.001                        1.000
 Energy with the initial guess:     -1095.969080809

     Est. extremal eigenvalues     -0.95389     5.26239  converged:  T
     TRS4 it   1 1.00000000   0.566E+02       0.018     5473.698   0.100E-11
     TRS4 it   2 1.00000000   0.541E+02       0.018     5546.240   0.100E-11
     TRS4 it   3 1.00000000   0.339E+02       0.036     5612.078   0.100E-11
     TRS4 it   4 1.00000000   0.178E+02       0.036     5647.914   0.100E-11
     TRS4 it   5 1.00000000   0.108E+02       0.036     5597.942   0.100E-11
     TRS4 it   6 1.00000000   0.493E+01       0.036     5640.924   0.100E-11
     TRS4 it   7 1.00000000   0.148E+01       0.036     5645.940   0.100E-11
     TRS4 it   8 1.00000000   0.226E+00       0.036     5574.862   0.100E-11
     TRS4 it   9 1.00000000   0.100E-01       0.036     5606.675   0.100E-11
     TRS4 it  10 1.00000000   0.305E-04       0.036     5560.623   0.100E-11
     TRS4 it  11 1.00000000   0.106E-09       0.036     5611.646   0.100E-11
     Final TRS4 iteration   11 1.00000000   0.106E-09
     Chemical potential (mu):      -0.10562

 SCF     1     -1097.947668956     -1097.947668956    2.034672

*********************************************************
 Using MIXING_FRACTION=0.450 to mix KS matrix:  iscf=  2
 KS_nw=0.450*KS + 0.550*KS_old
*********************************************************
     Est. extremal eigenvalues     -0.83929     5.35477  converged:  T
     TRS4 it   1 1.00000000   0.558E+02       0.019     5422.096   0.100E-11
     TRS4 it   2 1.00000000   0.543E+02       0.018     5464.893   0.100E-11
     TRS4 it   3 1.00000000   0.352E+02       0.036     5506.545   0.100E-11
     TRS4 it   4 1.00000000   0.185E+02       0.036     5629.326   0.100E-11
     TRS4 it   5 1.00000000   0.119E+02       0.036     5613.501   0.100E-11
     TRS4 it   6 1.00000000   0.624E+01       0.036     5633.540   0.100E-11
     TRS4 it   7 1.00000000   0.250E+01       0.036     5623.042   0.100E-11
     TRS4 it   8 1.00000000   0.690E+00       0.036     5648.857   0.100E-11
     TRS4 it   9 1.00000000   0.103E+00       0.036     5563.387   0.100E-11
     TRS4 it  10 1.00000000   0.542E-02       0.036     5530.575   0.100E-11
     TRS4 it  11 1.00000000   0.966E-05       0.036     5591.838   0.100E-11
     TRS4 it  12 1.00000000   0.279E-10       0.035     5652.785   0.100E-11
     Final TRS4 iteration   12 1.00000000   0.279E-10
     Chemical potential (mu):      -0.01670

 SCF     2     -1102.958045724        -5.010376768    2.082233

*********************************************************
 Using MIXING_FRACTION=0.450 to mix KS matrix:  iscf=  3
 KS_nw=0.450*KS + 0.550*KS_old
*********************************************************
     Est. extremal eigenvalues     -0.84781     5.34716  converged:  F
     TRS4 it   1 1.00000000   0.559E+02       0.019     5301.875   0.100E-11
     TRS4 it   2 1.00000000   0.542E+02       0.019     5404.115   0.100E-11
     TRS4 it   3 1.00000000   0.350E+02       0.037     5495.935   0.100E-11
     TRS4 it   4 1.00000000   0.184E+02       0.036     5618.160   0.100E-11
     TRS4 it   5 1.00000000   0.118E+02       0.036     5560.962   0.100E-11
     TRS4 it   6 1.00000000   0.603E+01       0.036     5584.652   0.100E-11
     TRS4 it   7 1.00000000   0.233E+01       0.036     5535.951   0.100E-11
     TRS4 it   8 1.00000000   0.603E+00       0.035     5655.317   0.100E-11
     TRS4 it   9 1.00000000   0.790E-01       0.037     5489.761   0.100E-11
     TRS4 it  10 1.00000000   0.296E-02       0.035     5660.402   0.100E-11
     TRS4 it  11 1.00000000   0.249E-05       0.036     5576.401   0.100E-11
     TRS4 it  12 1.00000000   0.191E-11       0.036     5601.483   0.100E-11
     Final TRS4 iteration   12 1.00000000   0.191E-11
     Chemical potential (mu):      -0.02558

 SCF     3     -1103.112777206        -0.154731482    2.095564

*********************************************************
 Using MIXING_FRACTION=0.450 to mix KS matrix:  iscf=  4
 KS_nw=0.450*KS + 0.550*KS_old
*********************************************************
     Est. extremal eigenvalues     -0.84391     5.35297  converged:  T
     TRS4 it   1 1.00000000   0.559E+02       0.019     5384.799   0.100E-11
     TRS4 it   2 1.00000000   0.542E+02       0.019     5337.540   0.100E-11
     TRS4 it   3 1.00000000   0.351E+02       0.036     5589.612   0.100E-11
     TRS4 it   4 1.00000000   0.184E+02       0.036     5572.122   0.100E-11
     TRS4 it   5 1.00000000   0.119E+02       0.036     5564.131   0.100E-11
     TRS4 it   6 1.00000000   0.612E+01       0.035     5674.129   0.100E-11
     TRS4 it   7 1.00000000   0.240E+01       0.036     5567.591   0.100E-11
     TRS4 it   8 1.00000000   0.641E+00       0.036     5643.119   0.100E-11
     TRS4 it   9 1.00000000   0.900E-01       0.036     5580.025   0.100E-11
     TRS4 it  10 1.00000000   0.399E-02       0.036     5629.497   0.100E-11
     TRS4 it  11 1.00000000   0.539E-05       0.036     5553.649   0.100E-11
     TRS4 it  12 1.00000000   0.919E-11       0.036     5574.760   0.100E-11
     Final TRS4 iteration   12 1.00000000   0.919E-11
     Chemical potential (mu):      -0.01934

 SCF     4     -1103.120635524        -0.007858317    2.095127

*********************************************************
 Using MIXING_FRACTION=0.450 to mix KS matrix:  iscf=  5
 KS_nw=0.450*KS + 0.550*KS_old
*********************************************************
     Est. extremal eigenvalues     -0.84239     5.35377  converged:  T
     TRS4 it   1 1.00000000   0.559E+02       0.019     5291.937   0.100E-11
     TRS4 it   2 1.00000000   0.542E+02       0.019     5338.471   0.100E-11
     TRS4 it   3 1.00000000   0.351E+02       0.036     5526.794   0.100E-11
     TRS4 it   4 1.00000000   0.184E+02       0.036     5643.688   0.100E-11
     TRS4 it   5 1.00000000   0.118E+02       0.036     5648.422   0.100E-11
     TRS4 it   6 1.00000000   0.611E+01       0.036     5544.909   0.100E-11
     TRS4 it   7 1.00000000   0.239E+01       0.036     5527.497   0.100E-11
     TRS4 it   8 1.00000000   0.640E+00       0.036     5624.428   0.100E-11
     TRS4 it   9 1.00000000   0.896E-01       0.036     5646.265   0.100E-11
     TRS4 it  10 1.00000000   0.395E-02       0.036     5574.878   0.100E-11
     TRS4 it  11 1.00000000   0.527E-05       0.035     5654.527   0.100E-11
     TRS4 it  12 1.00000000   0.894E-11       0.035     5669.554   0.100E-11
     Final TRS4 iteration   12 1.00000000   0.894E-11
     Chemical potential (mu):      -0.01857

 SCF     5     -1103.121291712        -0.000656189    2.093446

*********************************************************
 Using MIXING_FRACTION=0.450 to mix KS matrix:  iscf=  6
 KS_nw=0.450*KS + 0.550*KS_old
*********************************************************
     Est. extremal eigenvalues     -0.84181     5.35460  converged:  T
     TRS4 it   1 1.00000000   0.559E+02       0.018     5482.792   0.100E-11
     TRS4 it   2 1.00000000   0.542E+02       0.019     5419.995   0.100E-11
     TRS4 it   3 1.00000000   0.351E+02       0.036     5524.388   0.100E-11
     TRS4 it   4 1.00000000   0.184E+02       0.036     5629.590   0.100E-11
     TRS4 it   5 1.00000000   0.119E+02       0.036     5631.350   0.100E-11
     TRS4 it   6 1.00000000   0.612E+01       0.036     5579.580   0.100E-11
     TRS4 it   7 1.00000000   0.240E+01       0.035     5660.354   0.100E-11
     TRS4 it   8 1.00000000   0.644E+00       0.035     5693.687   0.100E-11
     TRS4 it   9 1.00000000   0.911E-01       0.036     5579.589   0.100E-11
     TRS4 it  10 1.00000000   0.410E-02       0.036     5622.845   0.100E-11
     TRS4 it  11 1.00000000   0.584E-05       0.036     5530.799   0.100E-11
     TRS4 it  12 1.00000000   0.111E-10       0.036     5611.700   0.100E-11
     Final TRS4 iteration   12 1.00000000   0.111E-10
     Chemical potential (mu):      -0.01759

 SCF     6     -1103.121392664        -0.000100951    2.094065

*********************************************************
 Using MIXING_FRACTION=0.450 to mix KS matrix:  iscf=  7
 KS_nw=0.450*KS + 0.550*KS_old
*********************************************************
     Est. extremal eigenvalues     -0.84131     5.35493  converged:  F
     TRS4 it   1 1.00000000   0.559E+02       0.019     5389.786   0.100E-11
     TRS4 it   2 1.00000000   0.542E+02       0.018     5434.577   0.100E-11
     TRS4 it   3 1.00000000   0.351E+02       0.036     5532.402   0.100E-11
     TRS4 it   4 1.00000000   0.184E+02       0.035     5777.975   0.100E-11
     TRS4 it   5 1.00000000   0.119E+02       0.036     5520.617   0.100E-11
     TRS4 it   6 1.00000000   0.612E+01       0.036     5639.713   0.100E-11
     TRS4 it   7 1.00000000   0.240E+01       0.036     5612.956   0.100E-11
     TRS4 it   8 1.00000000   0.645E+00       0.036     5622.393   0.100E-11
     TRS4 it   9 1.00000000   0.913E-01       0.036     5625.899   0.100E-11
     TRS4 it  10 1.00000000   0.412E-02       0.036     5589.340   0.100E-11
     TRS4 it  11 1.00000000   0.593E-05       0.036     5607.562   0.100E-11
     TRS4 it  12 1.00000000   0.115E-10       0.036     5627.424   0.100E-11
     Final TRS4 iteration   12 1.00000000   0.115E-10
     Chemical potential (mu):      -0.01724

 SCF     7     -1103.121414016        -0.000021352    2.092012

*********************************************************
 Using MIXING_FRACTION=0.450 to mix KS matrix:  iscf=  8
 KS_nw=0.450*KS + 0.550*KS_old
*********************************************************
     Est. extremal eigenvalues     -0.84113     5.35511  converged:  F
     TRS4 it   1 1.00000000   0.559E+02       0.019     5334.956   0.100E-11
     TRS4 it   2 1.00000000   0.542E+02       0.019     5359.918   0.100E-11
     TRS4 it   3 1.00000000   0.351E+02       0.036     5631.711   0.100E-11
     TRS4 it   4 1.00000000   0.184E+02       0.036     5631.701   0.100E-11
     TRS4 it   5 1.00000000   0.119E+02       0.036     5639.348   0.100E-11
     TRS4 it   6 1.00000000   0.612E+01       0.036     5598.988   0.100E-11
     TRS4 it   7 1.00000000   0.240E+01       0.036     5605.840   0.100E-11
     TRS4 it   8 1.00000000   0.646E+00       0.036     5550.424   0.100E-11
     TRS4 it   9 1.00000000   0.916E-01       0.036     5569.639   0.100E-11
     TRS4 it  10 1.00000000   0.415E-02       0.036     5593.162   0.100E-11
     TRS4 it  11 1.00000000   0.604E-05       0.036     5606.729   0.100E-11
     TRS4 it  12 1.00000000   0.120E-10       0.036     5617.919   0.100E-11
     Final TRS4 iteration   12 1.00000000   0.120E-10
     Chemical potential (mu):      -0.01701

 SCF     8     -1103.121419116        -0.000005100    2.094201


 SCF run converged in     8 steps.

 Writing restart DM 64H2O_ref_LS_DM_SPIN_1_RESTART.dm with checksum:       0.61151820E+04

 ENERGY| Total FORCE_EVAL ( QS ) energy [a.u.]:            -1103.121419115519302

 -------------------------------------------------------------------------------
 -                                                                             -
 -                                DBCSR STATISTICS                             -
 -                                                                             -
 -------------------------------------------------------------------------------
 COUNTER                                    TOTAL       BLAS       SMM       ACC
 flops     5 x     5 x     5          79534751750       0.0%    100.0%      0.0%     
 flops    13 x     5 x     5         102955334300       0.0%    100.0%      0.0%     
 flops     5 x    13 x     5         103005740500       0.0%    100.0%      0.0%     
 flops     5 x     5 x    13         103495185300       0.0%    100.0%      0.0%     
 flops    13 x     5 x    13         133950596520       0.0%    100.0%      0.0%     
 flops     5 x    13 x    13         134060701710       0.0%    100.0%      0.0%     
 flops    13 x    13 x     5         135188590810       0.0%    100.0%      0.0%     
 flops    13 x    13 x    13         175916118820       0.0%    100.0%      0.0%     
 flops inhomo. stacks                           0       0.0%      0.0%      0.0%
 flops total                       968.107020E+09       0.0%    100.0%      0.0%
 flops max/rank                     31.072689E+09       0.0%    100.0%      0.0%
 matmuls inhomo. stacks                         0       0.0%      0.0%      0.0%
 matmuls total                         1072840907       0.0%    100.0%      0.0%
 number of processed stacks               1517991       0.0%    100.0%      0.0%
 average stack size                                     0.0     706.8       0.0
 marketing flops                     1.569237E+12
 -------------------------------------------------------------------------------
 # multiplications                            246
 max memory usage/rank             618.827776E+06
 # max total images/rank                        2
 # max 3D layers                                1
 # MPI messages exchanged                  102336
 MPI messages size (bytes):
  total size                        42.406769E+09
  min size                           0.000000E+00
  max size                         541.696000E+03
  average size                     414.387594E+03
 MPI breakdown and total messages size (bytes):
             size <=      128                 312                        0
       128 < size <=     8192                  42                   279312
      8192 < size <=    32768                  62                   841968
     32768 < size <=   131072                   0                        0
    131072 < size <=  4194304              101920              42405649280
   4194304 < size <= 16777216                   0                        0
  16777216 < size                               0                        0
 -------------------------------------------------------------------------------

 *** WARNING in dbcsr_mm.F:301 :: Using a non-square number of MPI ranks ***
 *** might lead to poor performance. Used ranks: 32 Suggested: 36 64     ***

 -------------------------------------------------------------------------------
 -                                                                             -
 -                      DBCSR MESSAGE PASSING PERFORMANCE                      -
 -                                                                             -
 -------------------------------------------------------------------------------
 ROUTINE             CALLS      AVE VOLUME [Bytes]
 MP_Bcast                9                     12.
 MP_Allreduce         1762                     34.
 MP_Alltoall           546                  34827.
 MP_ISend             8604                 170998.
 MP_IRecv             8238                 179204.
 -------------------------------------------------------------------------------

 -------------------------------------------------------------------------------
 -                                                                             -
 -                                DBM STATISTICS                               -
 -                                                                             -
 -------------------------------------------------------------------------------
    M  x    N  x    K                                          COUNT     PERCENT
 -------------------------------------------------------------------------------

 -------------------------------------------------------------------------------
 -                                                                             -
 -                                GRID STATISTICS                              -
 -                                                                             -
 -------------------------------------------------------------------------------
 LP    KERNEL             BACKEND                              COUNT     PERCENT
 2     collocate ortho    CPU                                7375293      28.82%
 2     integrate ortho    CPU                                7375293      28.82%
 3     collocate ortho    CPU                                4742406      18.53%
 3     integrate ortho    CPU                                4742406      18.53%
 4     collocate ortho    CPU                                 674145       2.63%
 4     integrate ortho    CPU                                 674145       2.63%
 0     collocate general  CPU                                   6144       0.02%
 -------------------------------------------------------------------------------

 MEMORY| Estimated peak process memory [MiB]                                 591

 -------------------------------------------------------------------------------
 -                                                                             -
 -                         MESSAGE PASSING PERFORMANCE                         -
 -                                                                             -
 -------------------------------------------------------------------------------

 ROUTINE             CALLS      AVE VOLUME [Bytes]
 MP_Group                5
 MP_Bcast             2662                 146625.
 MP_Allreduce         7086                    940.
 MP_Sync                 5
 MP_Alltoall           244                9160506.
 MP_SendRecv           837                  18832.
 MP_ISendRecv          837                  18832.
 MP_Wait              2391
 MP_ISend             1406                 108579.
 MP_IRecv             1406                 108603.
 -------------------------------------------------------------------------------


 -------------------------------------------------------------------------------
 -                                                                             -
 -                           R E F E R E N C E S                               -
 -                                                                             -
 -------------------------------------------------------------------------------
 
 CP2K version 2024.3 (Development Version), the CP2K developers group (2024).
 CP2K is freely available from https://www.cp2k.org/ .
 
 T. D. Kuehne, M. Iannuzzi, M. Del Ben, V. V. Rybkin, P. Seewald, F. Stein, T. 
 Laino, R. Z. Khaliullin, O. Schuett, F. Schiffmann, D. Golze, J. Wilhelm, S. 
 Chulkov, M. H. Bani-Hashemian, V. Weber, U. Borstnik, M. Taillefumier, A. S. 
 Jakobovits, A. Lazzaro, H. Pabst, T. Mueller, R. Schade, M. Guidon, S. 
 Andermatt, N. Holmberg, G. K. Schenter, A. Hehn, A. Bussy, F. Belleflamme, G. 
 Tabacchi, A. Gloess, M. Lass, I. Bethune, C. J. Mundy, C. Plessl, M. Watkins, 
 J. VandeVondele, M. Krack, J. Hutter.
 J. Chem. Phys. 152, 194103 (2020).
 CP2K: An electronic structure and molecular dynamics software package - 
 Quickstep: Efficient and accurate electronic structure calculations.
 https://doi.org/10.1063/5.0007045

 O. Schuett, P. Messmer, J. Hutter, J. VandeVondele.
 Electronic Structure Calculations on Graphics Processing Units, 173-190 (2016).
 GPU-Accelerated Sparse Matrix-Matrix Multiplication for Linear Scaling Density 
 Functional Theory.
 https://doi.org/10.1002/9781118670712.ch8

 A. Heinecke, G. Henry, M. Hutchinson, H. Pabst.
 Proceedings of Intl. Supercomputing Conference, 981-991 (2016).
 LIBXSMM: Accelerating Small Matrix Multiplications by Runtime Code Generation.
 https://doi.org/10.1109/SC.2016.83

 J. Hutter, M. Iannuzzi, F. Schiffmann, J. VandeVondele.
 WIREs Comput Mol Sci. 4, 15-25 (2014).
 CP2K: atomistic simulations of condensed matter systems.
 https://doi.org/10.1002/wcms.1159

 U. Borstnik, J. VandeVondele, V. Weber, J. Hutter.
 Parallel Comput. 40, 47-58 (2014).
 Sparse matrix multiplication: The distributed block-compressed sparse row 
 library.
 https://doi.org/10.1016/j.parco.2014.03.012

 A. Marek, V. Blum, R. Johanni, V. Havu, B. Lang, T. Auckenthaler, A. Heinecke, 
 H. Bungartz, H. Lederer.
 J. Phys. Condens. Matter 26, 213201 (2014).
 The ELPA library: scalable parallel eigenvalue solutions for electronic 
 structure theory and computational science.
 https://doi.org/10.1088/0953-8984/26/21/213201

 J. VandeVondele, U. Borstnik, J. Hutter.
 J. Chem. Theory Comput. 8, 3565-3573 (2012).
 Linear Scaling Self-Consistent Field Calculations with Millions of Atoms in the 
 Condensed Phase.
 https://doi.org/10.1021/ct200897x

 J. VandeVondele, J. Hutter.
 J. Chem. Phys. 127, 114105 (2007).
 Gaussian basis sets for accurate calculations on molecular systems in gas and 
 condensed phases.
 https://doi.org/10.1063/1.2770708

 J. VandeVondele, M. Krack, F. Mohamed, M. Parrinello, T. Chassaing, J. Hutter.
 Comput. Phys. Commun. 167, 103-128 (2005).
 QUICKSTEP: Fast and accurate density functional calculations using a mixed 
 Gaussian and plane waves approach.
 https://doi.org/10.1016/j.cpc.2004.12.014

 M. Krack.
 Theor. Chem. Acc. 114, 145-152 (2005).
 Pseudopotentials for H to Kr optimized for gradient-corrected 
 exchange-correlation functionals.
 https://doi.org/10.1007/s00214-005-0655-y

 M. Frigo, S. G. Johnson.
 Proc. IEEE 93, 216-231 (2005).
 The design and implementation of FFTW3.
 https://doi.org/10.1109/JPROC.2004.840301

 A. M. N. Niklasson, C. J. Tymczak, M. Challacombe.
 J. Chem. Phys. 118, 8611-8620 (2003).
 Trace resetting density matrix purification in O(N) self-consistent-field 
 theory.
 https://doi.org/10.1063/1.1559913

 C. Hartwigsen, S. Goedecker, J. Hutter.
 Phys. Rev. B 58, 3641-3662 (1998).
 Relativistic separable dual-space Gaussian pseudopotentials from H to Rn.
 https://doi.org/10.1103/PhysRevB.58.3641

 G. Lippert, J. Hutter, M. Parrinello.
 Mol. Phys. 92, 477-487 (1997).
 A hybrid Gaussian and plane wave density functional scheme.
 https://doi.org/10.1080/002689797170220

 S. Goedecker, M. Teter, J. Hutter.
 Phys. Rev. B 54, 1703-1710 (1996).
 Separable dual-space Gaussian pseudopotentials.
 https://doi.org/10.1103/PhysRevB.54.1703

 J. P. Perdew, K. Burke, M. Ernzerhof.
 Phys. Rev. Lett. 77, 3865-3868 (1996).
 Generalized gradient approximation made simple.
 https://doi.org/10.1103/PhysRevLett.77.3865


 -------------------------------------------------------------------------------
 -                                                                             -
 -                                T I M I N G                                  -
 -                                                                             -
 -------------------------------------------------------------------------------
 SUBROUTINE                       CALLS  ASD         SELF TIME        TOTAL TIME
                                MAXIMUM       AVERAGE  MAXIMUM  AVERAGE  MAXIMUM
 CP2K                                 1  1.0    0.013    0.017   20.534   20.534
 qs_energies                          1  2.0    0.000    0.000   20.359   20.359
 ls_scf                               1  3.0    0.000    0.000   19.235   19.236
 ls_scf_main                          1  4.0    0.000    0.000   16.682   16.682
 ls_scf_dm_to_ks                      8  5.0    0.000    0.000   12.399   12.401
 qs_ks_update_qs_env                  9  6.1    0.000    0.000    7.820    7.821
 rebuild_ks_matrix                    9  7.1    0.000    0.000    7.813    7.815
 qs_ks_build_kohn_sham_matrix         9  8.1    0.002    0.002    7.813    7.815
 qs_rho_update_rho_low                9  6.1    0.000    0.000    6.133    6.136
 calculate_rho_elec                   9  7.1    0.003    0.003    6.133    6.135
 sum_up_and_integrate                 9  9.1    0.000    0.000    5.912    5.913
 integrate_v_rspace                   9 10.1    0.000    0.000    5.904    5.906
 grid_collocate_task_list             9  8.1    5.444    5.567    5.444    5.567
 grid_integrate_task_list             9 11.1    5.196    5.298    5.196    5.298
 dbcsr_multiply_generic             246  6.2    0.012    0.013    4.623    4.630
 density_matrix_trs4                  8  5.0    0.004    0.006    4.277    4.280
 multiply_cannon                    246  7.2    0.018    0.022    3.767    3.828
 multiply_cannon_loop               246  8.2    0.019    0.020    3.692    3.739
 ls_scf_init_scf                      1  4.0    0.000    0.000    2.491    2.492
 multiply_cannon_multrec           1968  9.2    2.103    2.154    2.110    2.160
 mp_waitall_1                     16729 10.5    1.714    1.808    1.714    1.808
 fft_wrap_pw1pw2                    172 11.3    0.003    0.003    1.763    1.783
 fft_wrap_pw1pw2_200                100 12.8    0.103    0.111    1.690    1.723
 qs_vxc_create                        9  9.1    0.000    0.000    1.554    1.582
 xc_vxc_pw_create                     9 10.1    0.013    0.019    1.554    1.582
 ls_scf_initial_guess                 1  5.0    0.000    0.000    1.558    1.559
 ls_scf_qs_atomic_guess               1  6.0    0.000    0.000    1.558    1.559
 multiply_cannon_metrocomm3        1968  9.2    0.005    0.006    1.343    1.411
 fft3d_ps                           172 13.3    0.713    0.791    1.325    1.369
 xc_pw_derive                        54 12.1    0.001    0.001    1.103    1.180
 qs_energies_init_hamiltonians        1  3.0    0.000    0.000    1.123    1.123
 build_core_hamiltonian_matrix        1  4.0    0.000    0.000    0.739    0.935
 ls_scf_init_matrix_S                 1  5.0    0.000    0.000    0.933    0.934
 matrix_sqrt_Newton_Schulz            1  6.0    0.001    0.001    0.909    0.910
 xc_rho_set_and_dset_create           9 11.1    0.019    0.026    0.781    0.798
 xc_pw_divergence                     9 11.1    0.000    0.000    0.740    0.782
 density_rs2pw                        9  8.1    0.000    0.000    0.655    0.757
 build_core_ppl                       1  5.0    0.510    0.690    0.510    0.690
 mp_waitany                        1406 12.5    0.557    0.690    0.557    0.690
 make_m2s                           492  7.2    0.005    0.007    0.673    0.685
 make_images                        492  8.2    0.039    0.040    0.662    0.675
 mp_alltoall_z22v                   172 15.3    0.439    0.628    0.439    0.628
 transfer_rs2pw                      46  9.0    0.001    0.001    0.486    0.621
 potential_pw2rs                      9 11.1    0.000    0.001    0.596    0.597
 transfer_rs2pw_200                  10  9.8    0.026    0.032    0.383    0.522
 arnoldi_extremal                     9  6.1    0.000    0.000    0.476    0.477
 arnoldi_normal_ev                    9  7.1    0.000    0.001    0.475    0.476
 qs_env_update_s_mstruct              1  4.0    0.000    0.000    0.364    0.465
 build_subspace                      42  8.1    0.003    0.004    0.421    0.421
 yz_to_x                             64 14.2    0.059    0.082    0.285    0.416
 -------------------------------------------------------------------------------

 The number of warnings for this run is : 1
 
 -------------------------------------------------------------------------------
  **** **** ******  **  PROGRAM ENDED AT                 2024-09-23 17:39:35.449
 ***** ** ***  *** **   PROGRAM RAN ON                                    moritz
 **    ****   ******    PROGRAM RAN BY                                       ole
 ***** **    ** ** **   PROGRAM PROCESS ID                                157427
  **** **  *******  **  PROGRAM STOPPED IN /home/ole/git/pao_ml_equivar/64H2O_MD
                                           /Frame2800
