 DBCSR| CPU Multiplication driver                                           XSMM (U)
 DBCSR| Multrec recursion limit                                              512 (U)
 DBCSR| Multiplication stack size                                           1000 (D)
 DBCSR| Maximum elements for images                                    UNLIMITED (U)
 DBCSR| Multiplicative factor virtual images                                   1 (U)
 DBCSR| Use multiplication densification                                       T (D)
 DBCSR| Multiplication size stacks                                             3 (U)
 DBCSR| Use memory pool for CPU allocation                                     F (U)
 DBCSR| Number of 3D layers                                               SINGLE (U)
 DBCSR| Use MPI memory allocation                                              F (U)
 DBCSR| Use RMA algorithm                                                      F (U)
 DBCSR| Use Communication thread                                               T (U)
 DBCSR| Communication thread load                                             87 (D)
 DBCSR| MPI: My process id                                                     0
 DBCSR| MPI: Number of processes                                              32
 DBCSR| OMP: Current number of threads                                         1
 DBCSR| OMP: Max number of threads                                             1
 DBCSR| Split modifier for TAS multiplication algorithm                  1.0E+00 (U)


  **** **** ******  **  PROGRAM STARTED AT               2024-09-24 01:45:15.197
 ***** ** ***  *** **   PROGRAM STARTED ON                                moritz
 **    ****   ******    PROGRAM STARTED BY                                   ole
 ***** **    ** ** **   PROGRAM PROCESS ID                                166335
  **** **  *******  **  PROGRAM STARTED IN /home/ole/git/pao_ml_equivar/64H2O_MD
                                           /Frame2800

 CP2K| version string:                 CP2K version 2024.3 (Development Version)
 CP2K| source code revision number:                                  git:3f890bb
 CP2K| cp2kflags: omp libint fftw3 libxc libgrpp pexsi elpa parallel scalapack c
 CP2K|            osma quip deepmd xsmm plumed2 spglib libdftd4 sirius libvori l
 CP2K|            libbqb libvdwxc hdf5
 CP2K| is freely available from                            https://www.cp2k.org/
 CP2K| Program compiled at                          Mo 23 Sep 2024 17:17:04 CEST
 CP2K| Program compiled on                                                moritz
 CP2K| Program compiled for                                                local
 CP2K| Data directory path                               /home/ole/git/cp2k/data
 CP2K| Input file name                                           64H2O_pao44.inp

 GLOBAL| Force Environment number                                              1
 GLOBAL| Basis set file name                                        BASIS_MOLOPT
 GLOBAL| Potential file name                                      GTH_POTENTIALS
 GLOBAL| MM Potential file name                                     MM_POTENTIAL
 GLOBAL| Coordinate file name                                         coords.xyz
 GLOBAL| Method name                                                        CP2K
 GLOBAL| Project name                                                64H2O_pao44
 GLOBAL| Run type                                                         ENERGY
 GLOBAL| FFT library                                                       FFTW3
 GLOBAL| Diagonalization library                                            ELPA
 GLOBAL| DGEMM library                                                      BLAS
 GLOBAL| Minimum number of eigenvectors for ELPA usage                        16
 GLOBAL| Orthonormality check for eigenvectors                          DISABLED
 GLOBAL| Matrix multiplication library                                     COSMA
 GLOBAL| All-to-all communication in single precision                          F
 GLOBAL| FFTs using library dependent lengths                                  F
 GLOBAL| Grid backend                                                       AUTO
 GLOBAL| Global print level                                                  LOW
 GLOBAL| MPI I/O enabled                                                       T
 GLOBAL| Total number of message passing processes                            32
 GLOBAL| Number of threads for this process                                    1
 GLOBAL| This output is from process                                           0
 GLOBAL| Stack size for threads created by OpenMP (OMP_STACKSIZE)        default
 GLOBAL| CPU model name           AMD Ryzen Threadripper 3970X 32-Core Processor
 GLOBAL| CPUID                                                              1002

 MEMORY| system memory details [Kb]
 MEMORY|                        rank 0           min           max       average
 MEMORY| MemTotal            131752136     131752136     131752136     131752136
 MEMORY| MemFree             114305400     114305400     114305400     114305400
 MEMORY| Buffers               2002072       2002072       2002072       2002072
 MEMORY| Cached                8649072       8649072       8649072       8649072
 MEMORY| Slab                  1643828       1643828       1643828       1643828
 MEMORY| SReclaimable          1144124       1144124       1144124       1144124
 MEMORY| MemLikelyFree       126100668     126100668     126100668     126100668


 GENERATE|  Preliminary Number of Bonds generated:                             0
 GENERATE|  Achieved consistency in connectivity generation.

 *******************************************************************************
 *******************************************************************************
 **                                                                           **
 **     #####                         ##              ##                      **
 **    ##   ##            ##          ##              ##                      **
 **   ##     ##                       ##            ######                    **
 **   ##     ##  ##   ##  ##   #####  ##  ##   ####   ##    #####    #####    **
 **   ##     ##  ##   ##  ##  ##      ## ##   ##      ##   ##   ##  ##   ##   **
 **   ##  ## ##  ##   ##  ##  ##      ####     ###    ##   ######   ######    **
 **    ##  ###   ##   ##  ##  ##      ## ##      ##   ##   ##       ##        **
 **     #######   #####   ##   #####  ##  ##  ####    ##    #####   ##        **
 **           ##                                                    ##        **
 **                                                                           **
 **                                                ... make the atoms dance   **
 **                                                                           **
 **            Copyright (C) by CP2K developers group (2000-2024)             **
 **                      J. Chem. Phys. 152, 194103 (2020)                    **
 **                                                                           **
 *******************************************************************************


 TOTAL NUMBERS AND MAXIMUM NUMBERS

  Total number of            - Atomic kinds:                                   2
                             - Atoms:                                        192
                             - Shell sets:                                   192
                             - Shells:                                       704
                             - Primitive Cartesian functions:               1344
                             - Cartesian basis functions:                   1536
                             - Spherical basis functions:                   1472

  Maximum angular momentum of- Orbital basis functions:                        2
                             - Local part of the GTH pseudopotential:          2
                             - Non-local part of the GTH pseudopotential:      0

 ------------------------------ Linear scaling SCF -----------------------------
 eps_scf:                                                              0.100E-07
 eps_filter:                                                           0.100E-11
 mixing_fraction:                                                      0.450E+00
 max_scf:                                                                     25
 fixed chemical potential (mu)                                                 F
 has unit metric:                                                              F
 Computing inv(S):                                                             T
 Computing sqrt(S):                                                            T
 Computing S preconditioner                                                    F
 S sqrt method:                                                     NEWTONSCHULZ
 S sqrt order:                                                                 3
 Extrapolation order:                                                          1
 S preconditioner type                                                      NONE
 Polarized Atomic Orbitals (PAO)                                               T
 Purification method                                   Trace resetting 4th order
 Cluster type                                                             ATOMIC
 Computing Chebyshev                                                       FALSE
 Using PAO                                                                     T
 -------------------------------------------------------------------------------

 
 PAO|                                  EPS_PAO                           0.5E-06
 PAO|                                  MIXING                            0.5E+00
 PAO|                                  MAX_PAO                              1500
 PAO|                                  MAX_CYCLES                           1000
 PAO|                                  PARAMETERIZATION              EQUIVARIANT
 PAO|                                  PRECONDITION                            F
 PAO|                                  REGULARIZATION                    0.0E+00
 PAO|                                  EPS_PGF                           0.1E-09
 PAO|                                  PENALTY_DISTANCE                  0.1E+00
 PAO|                                  PENALTY_STRENGTH                  0.5E-02
 PAO|                                  LINPOT_PRECONDITION_DELTA         0.0E+00
 PAO|                                  LINPOT_INITGUESS_DELT             0.0E+00
 PAO|                                  LINPOT_REGULARIZATION_DELTA       0.0E+00
 PAO|                                  LINPOT_REGULARIZATION_STRENGTH    0.0E+00
 PAO|                                  OPTIMIZER                              CG
 PAO|                                  CG_INIT_STEPS                           2
 PAO|                                  CG_RESET_LIMIT                    0.1E+00
 PAO|                                  CHECK_UNITARY_TOL                -0.1E+01
 PAO|                                  CHECK_GRADIENT_TOL               -0.1E+01
 PAO|                                  NUM_GRADIENT_ORDER                      2
 PAO|                                  NUM_GRADIENT_EPS                  0.1E-07
 PAO|                                  PRINT%RESTART%WRITE_CYCLES            100
 PAO|                                  RESTART_FILE 
 PAO|                                  PREOPT_DM_FILE 64H2O_ref_LS_DM_SPIN_1_RESTART.dm
 PAO|                                  MACHINE_LEARNING%METHOD       GAUSSIAN_PR
 PAO|                                  MACHINE_LEARNING%PRIOR               ZERO
 PAO|                                  MACHINE_LEARNING%DESCRIPTOR     POTENTIAL
 PAO|                                  MACHINE_LEARNING%TOLERANCE        0.1E-01
 PAO|                                  MACHINE_LEARNING%GP_NOISE_VAR     0.1E+00
 PAO|                                  MACHINE_LEARNING%GP_SCALE         0.5E-01
 

 Calculating atomic Fock matrix for atomic kind: O

 Electronic structure
    Total number of core electrons                                          2.00
    Total number of valence electrons                                       6.00
    Total number of electrons                                               8.00
    Multiplicity                                                   not specified
    S   [  2.00] 2.00
    P      4.00


 *******************************************************************************
                  Iteration          Convergence                     Energy [au]
 *******************************************************************************
                          1        0.708315                     -15.576645311500
                          2        0.608879                     -15.587933561584
                          3        0.102828E-01                 -15.656849565404
                          4        0.113889E-02                 -15.656866888140
                          5        0.434197E-03                 -15.656867072159
                          6        0.263771E-03                 -15.656867091904
                          7        0.478536E-06                 -15.656867103452

 Energy components [Hartree]           Total Energy ::          -15.656867103452
                                        Band Energy ::           -3.000198112285
                                     Kinetic Energy ::           11.759971203220
                                   Potential Energy ::          -27.416838306672
                                      Virial (-V/T) ::            2.331369510426
                                        Core Energy ::          -26.140716385623
                                          XC Energy ::           -3.154051012914
                                     Coulomb Energy ::           13.637900295084
                       Total Pseudopotential Energy ::          -37.935781716540
                       Local Pseudopotential Energy ::          -39.218907440693
                    Nonlocal Pseudopotential Energy ::            1.283125724153
                                        Confinement ::            0.350941276976

 Orbital energies  State     L     Occupation   Energy[a.u.]          Energy[eV]

                       1     0          2.000      -0.864471          -23.523463

                       1     1          4.000      -0.317814           -8.648154


 Total Electron Density at R=0:                                         0.000068

 Calculating atomic Fock matrix for atomic kind: H

 Electronic structure
    Total number of core electrons                                          0.00
    Total number of valence electrons                                       1.00
    Total number of electrons                                               1.00
    Multiplicity                                                   not specified
    S      1.00


 *******************************************************************************
                  Iteration          Convergence                     Energy [au]
 *******************************************************************************
                          1        0.437545E-02                  -0.424159432110
                          2        0.531356E-03                  -0.424178438213
                          3        0.259176E-06                  -0.424178722480

 Energy components [Hartree]           Total Energy ::           -0.424178722480
                                        Band Energy ::           -0.199015229016
                                     Kinetic Energy ::            0.464007633961
                                   Potential Energy ::           -0.888186356441
                                      Virial (-V/T) ::            1.914163240935
                                        Core Energy ::           -0.479160803564
                                          XC Energy ::           -0.244352904054
                                     Coulomb Energy ::            0.299334985138
                       Total Pseudopotential Energy ::           -0.962295316385
                       Local Pseudopotential Energy ::           -0.962295316385
                    Nonlocal Pseudopotential Energy ::            0.000000000000
                                        Confinement ::            0.191268788606

 Orbital energies  State     L     Occupation   Energy[a.u.]          Energy[eV]

                       1     0          1.000      -0.199015           -5.415480


 Total Electron Density at R=0:                                         0.242907
 PAO| Made initial guess for matrix_X with norm:   27.712812921102035     

     Lanczos converged:  F threshold:   0.100E-02
     Est. extremal eigenvalues:    0.638E+01   0.916E-01
     Est. condition number :    0.697E+02

 Order=           3
     NS sqrt iter    1 1.00000000   0.156E+01       0.021     2680.548
     NS sqrt iter    2 1.00000000   0.844E+00       0.033     3393.958
     NS sqrt iter    3 1.00000000   0.339E+00       0.034     3378.645
     NS sqrt iter    4 1.00000000   0.961E-01       0.034     3376.701
     NS sqrt iter    5 1.00000000   0.380E-02       0.034     3365.450
     NS sqrt iter    6 1.00000000   0.462E-06       0.029     2936.050
     Symmetrizing Results
     Final NS sqrt iter    6 1.00000000   0.352E-12

 PAO| Read restart DM 64H2O_ref_LS_DM_SPIN_1_RESTART.dm with checksum:    6115.1820005660957     
 PAO| Quickstep energy from restart density:  -1103.1214191155193     
 PAO| ======================= Iteration:         1 =============================

     Lanczos converged:  F threshold:   0.100E-02
     Est. extremal eigenvalues:    0.638E+01   0.916E-01
     Est. condition number :    0.697E+02

 Order=           3
     NS sqrt iter    1 1.00000000   0.156E+01       0.021     2718.174
     NS sqrt iter    2 1.00000000   0.844E+00       0.033     3396.532
     NS sqrt iter    3 1.00000000   0.339E+00       0.033     3414.943
     NS sqrt iter    4 1.00000000   0.961E-01       0.034     3370.614
     NS sqrt iter    5 1.00000000   0.380E-02       0.033     3384.683
     NS sqrt iter    6 1.00000000   0.462E-06       0.029     2954.350
     Symmetrizing Results
     Final NS sqrt iter    6 1.00000000   0.352E-12

     Est. extremal eigenvalues     -0.82354     2.63715  converged:  T
     TRS4 it   1 1.00000000   0.274E+02       0.007     2121.522   0.100E-11
     TRS4 it   2 1.00000000   0.237E+02       0.013     2213.041   0.100E-11
     TRS4 it   3 1.00000000   0.161E+02       0.013     2206.842   0.100E-11
     TRS4 it   4 1.00000000   0.101E+02       0.013     2204.063   0.100E-11
     TRS4 it   5 1.00000000   0.486E+01       0.013     2215.563   0.100E-11
     TRS4 it   6 1.00000000   0.163E+01       0.013     2206.764   0.100E-11
     TRS4 it   7 1.00000000   0.325E+00       0.013     2214.994   0.100E-11
     TRS4 it   8 1.00000000   0.235E-01       0.013     2227.973   0.100E-11
     TRS4 it   9 1.00000000   0.203E-03       0.013     2199.242   0.100E-11
     TRS4 it  10 1.00000000   0.130E-07       0.013     2219.141   0.100E-11
     TRS4 it  11 1.00000000   0.195E-13       0.013     2218.412   0.100E-11
     Final TRS4 iteration   11 1.00000000   0.195E-13
     Chemical potential (mu):       0.00945
 
 PAO| energy:  -185.98713057423589      penalty:   1.4791141972893971E-031
 PAO|CG| warming up with steepest descent
 PAO|CG| beta:    0.0000000000000000     
 PAO| norm of gradient:   3.9591231211530342     
 PAO|LS| adapt:  T F F
 PAO|LS| adapt: scan_steps:    0.0000000000000000        0.0000000000000000        0.0000000000000000     
 PAO|LS| adapt: energies:   -185.98713057423589        0.0000000000000000        0.0000000000000000     
 PAO| ======================= Iteration:         2 =============================

     Lanczos converged:  F threshold:   0.100E-02
     Est. extremal eigenvalues:    0.617E+01   0.981E-01
     Est. condition number :    0.628E+02

 Order=           3
     NS sqrt iter    1 1.00000000   0.152E+01       0.021     2699.879
     NS sqrt iter    2 1.00000000   0.815E+00       0.033     3383.917
     NS sqrt iter    3 1.00000000   0.318E+00       0.034     3337.178
     NS sqrt iter    4 1.00000000   0.813E-01       0.034     3372.579
     NS sqrt iter    5 1.00000000   0.241E-02       0.033     3408.164
     NS sqrt iter    6 1.00000000   0.138E-06       0.029     2966.253
     Symmetrizing Results
     Final NS sqrt iter    6 1.00000000   0.497E-13

     Est. extremal eigenvalues     -0.82687     2.62656  converged:  T
     TRS4 it   1 1.00000000   0.276E+02       0.007     2170.277   0.100E-11
     TRS4 it   2 1.00000000   0.236E+02       0.013     2216.963   0.100E-11
     TRS4 it   3 1.00000000   0.160E+02       0.013     2219.390   0.100E-11
     TRS4 it   4 1.00000000   0.986E+01       0.013     2219.913   0.100E-11
     TRS4 it   5 1.00000000   0.465E+01       0.013     2219.227   0.100E-11
     TRS4 it   6 1.00000000   0.150E+01       0.013     2215.810   0.100E-11
     TRS4 it   7 1.00000000   0.278E+00       0.013     2224.320   0.100E-11
     TRS4 it   8 1.00000000   0.169E-01       0.013     2205.279   0.100E-11
     TRS4 it   9 1.00000000   0.960E-04       0.013     2217.396   0.100E-11
     TRS4 it  10 1.00000000   0.323E-08       0.013     2211.364   0.100E-11
     TRS4 it  11 1.00000000   0.178E-14       0.013     2216.797   0.100E-11
     Final TRS4 iteration   11 1.00000000   0.178E-14
     Chemical potential (mu):       0.01499
 
 PAO| energy:  -187.42700895541367      penalty:   4.6341101821822383E-007
 PAO|LS| adapt:  T T F
 PAO|LS| adapt: scan_steps:    0.0000000000000000       0.10000000000000001        0.0000000000000000     
 PAO|LS| adapt: energies:   -185.98713057423589       -187.42700895541367        0.0000000000000000     
 PAO| ======================= Iteration:         3 =============================

     Lanczos converged:  F threshold:   0.100E-02
     Est. extremal eigenvalues:    0.595E+01   0.104E+00
     Est. condition number :    0.575E+02

 Order=           3
     NS sqrt iter    1 1.00000000   0.148E+01       0.021     2702.716
     NS sqrt iter    2 1.00000000   0.786E+00       0.034     3379.964
     NS sqrt iter    3 1.00000000   0.298E+00       0.033     3394.556
     NS sqrt iter    4 1.00000000   0.685E-01       0.034     3365.508
     NS sqrt iter    5 1.00000000   0.155E-02       0.034     3371.416
     NS sqrt iter    6 1.00000000   0.431E-07       0.029     2951.254
     Symmetrizing Results
     Final NS sqrt iter    6 1.00000000   0.547E-14

     Est. extremal eigenvalues     -0.83004     2.62595  converged:  T
     TRS4 it   1 1.00000000   0.278E+02       0.007     2117.302   0.100E-11
     TRS4 it   2 1.00000000   0.236E+02       0.013     2229.083   0.100E-11
     TRS4 it   3 1.00000000   0.159E+02       0.013     2157.701   0.100E-11
     TRS4 it   4 1.00000000   0.967E+01       0.013     2239.916   0.100E-11
     TRS4 it   5 1.00000000   0.445E+01       0.013     2219.383   0.100E-11
     TRS4 it   6 1.00000000   0.137E+01       0.013     2209.045   0.100E-11
     TRS4 it   7 1.00000000   0.236E+00       0.013     2236.454   0.100E-11
     TRS4 it   8 1.00000000   0.119E-01       0.013     2225.109   0.100E-11
     TRS4 it   9 1.00000000   0.426E-04       0.013     2242.145   0.100E-11
     TRS4 it  10 1.00000000   0.708E-09       0.013     2216.144   0.100E-11
     TRS4 it  11 1.00000000   0.355E-14       0.013     2219.740   0.100E-11
     Final TRS4 iteration   11 1.00000000   0.355E-14
     Chemical potential (mu):       0.02124
 
 PAO| energy:  -188.59574592910616      penalty:   7.4145762915329775E-006
 PAO|LS| adapt:  T T F
 PAO|LS| adapt: scan_steps:    0.0000000000000000       0.20000000000000001        0.0000000000000000     
 PAO|LS| adapt: energies:   -185.98713057423589       -188.59574592910616        0.0000000000000000     
 PAO| ======================= Iteration:         4 =============================

     Lanczos converged:  F threshold:   0.100E-02
     Est. extremal eigenvalues:    0.553E+01   0.113E+00
     Est. condition number :    0.490E+02

 Order=           3
     NS sqrt iter    1 1.00000000   0.139E+01       0.021     2700.698
     NS sqrt iter    2 1.00000000   0.729E+00       0.034     3374.102
     NS sqrt iter    3 1.00000000   0.261E+00       0.034     3360.010
     NS sqrt iter    4 1.00000000   0.487E-01       0.033     3400.756
     NS sqrt iter    5 1.00000000   0.655E-03       0.033     3390.198
     NS sqrt iter    6 1.00000000   0.435E-08       0.029     2897.442
     Symmetrizing Results
     Final NS sqrt iter    6 1.00000000   0.107E-13

     Est. extremal eigenvalues     -0.83530     2.63156  converged:  T
     TRS4 it   1 1.00000000   0.282E+02       0.007     2159.576   0.100E-11
     TRS4 it   2 1.00000000   0.237E+02       0.013     2222.102   0.100E-11
     TRS4 it   3 1.00000000   0.157E+02       0.013     2253.637   0.100E-11
     TRS4 it   4 1.00000000   0.935E+01       0.013     2209.982   0.100E-11
     TRS4 it   5 1.00000000   0.410E+01       0.013     2212.342   0.100E-11
     TRS4 it   6 1.00000000   0.116E+01       0.013     2232.316   0.100E-11
     TRS4 it   7 1.00000000   0.169E+00       0.013     2207.996   0.100E-11
     TRS4 it   8 1.00000000   0.566E-02       0.013     2216.065   0.100E-11
     TRS4 it   9 1.00000000   0.800E-05       0.013     2238.934   0.100E-11
     TRS4 it  10 1.00000000   0.273E-10       0.013     2226.787   0.100E-11
     Final TRS4 iteration   10 1.00000000   0.273E-10
     Chemical potential (mu):       0.04036
 
 PAO| energy:  -190.07891373755157      penalty:   1.1863322066485893E-004
 PAO|LS| Need extra step
 PAO|LS| adapt:  T T F
 PAO|LS| adapt: scan_steps:    0.0000000000000000       0.40000000000000002        0.0000000000000000     
 PAO|LS| adapt: energies:   -185.98713057423589       -190.07891373755157        0.0000000000000000     
 PAO| ======================= Iteration:         5 =============================

     Lanczos converged:  T threshold:   0.100E-02
     Est. extremal eigenvalues:    0.485E+01   0.128E+00
     Est. condition number :    0.379E+02

 Order=           3
     NS sqrt iter    1 1.00000000   0.126E+01       0.021     2661.463
     NS sqrt iter    2 1.00000000   0.637E+00       0.033     3406.145
     NS sqrt iter    3 1.00000000   0.202E+00       0.033     3381.080
     NS sqrt iter    4 1.00000000   0.259E-01       0.033     3383.403
     NS sqrt iter    5 1.00000000   0.131E-03       0.034     3372.086
     NS sqrt iter    6 1.00000000   0.507E-10       0.022     2356.536
     Symmetrizing Results
     Final NS sqrt iter    6 1.00000000   0.212E-11

     Est. extremal eigenvalues     -0.83884     2.63264  converged:  T
     TRS4 it   1 1.00000000   0.288E+02       0.007     2138.021   0.100E-11
     TRS4 it   2 1.00000000   0.237E+02       0.013     2234.040   0.100E-11
     TRS4 it   3 1.00000000   0.155E+02       0.013     2212.798   0.100E-11
     TRS4 it   4 1.00000000   0.887E+01       0.013     2222.346   0.100E-11
     TRS4 it   5 1.00000000   0.358E+01       0.013     2215.635   0.100E-11
     TRS4 it   6 1.00000000   0.864E+00       0.013     2224.801   0.100E-11
     TRS4 it   7 1.00000000   0.935E-01       0.013     2234.410   0.100E-11
     TRS4 it   8 1.00000000   0.160E-02       0.013     2231.374   0.100E-11
     TRS4 it   9 1.00000000   0.605E-06       0.013     2230.283   0.100E-11
     TRS4 it  10 1.00000000   0.197E-12       0.013     2229.828   0.100E-11
     Final TRS4 iteration   10 1.00000000   0.197E-12
     Chemical potential (mu):       0.06206
 
 PAO| energy:  -189.75478471593323      penalty:   1.8981315306403979E-003
 PAO|LS| Need extra step
 PAO|LS| adapt:  T T T
 PAO|LS| adapt: scan_steps:    0.0000000000000000       0.40000000000000002       0.80000000000000004     
 PAO|LS| adapt: energies:   -185.98713057423589       -190.07891373755157       -189.75478471593323     
 PAO|LS| adapt: suggested step_size:   0.57063990332740833     
 PAO|LS| adapt: predicted energy  -190.48073382412053     
 PAO| ======================= Iteration:         6 =============================

     Lanczos converged:  F threshold:   0.100E-02
     Est. extremal eigenvalues:    0.521E+01   0.120E+00
     Est. condition number :    0.435E+02

 Order=           3
     NS sqrt iter    1 1.00000000   0.133E+01       0.021     2692.305
     NS sqrt iter    2 1.00000000   0.686E+00       0.033     3383.201
     NS sqrt iter    3 1.00000000   0.233E+00       0.033     3389.651
     NS sqrt iter    4 1.00000000   0.367E-01       0.034     3369.394
     NS sqrt iter    5 1.00000000   0.322E-03       0.033     3383.575
     NS sqrt iter    6 1.00000000   0.623E-09       0.028     2784.148
     Symmetrizing Results
     Final NS sqrt iter    6 1.00000000   0.121E-12

     Est. extremal eigenvalues     -0.83809     2.63363  converged:  T
     TRS4 it   1 1.00000000   0.285E+02       0.007     2140.185   0.100E-11
     TRS4 it   2 1.00000000   0.237E+02       0.013     2231.752   0.100E-11
     TRS4 it   3 1.00000000   0.156E+02       0.013     2201.922   0.100E-11
     TRS4 it   4 1.00000000   0.912E+01       0.013     2222.098   0.100E-11
     TRS4 it   5 1.00000000   0.385E+01       0.013     2209.260   0.100E-11
     TRS4 it   6 1.00000000   0.101E+01       0.013     2220.860   0.100E-11
     TRS4 it   7 1.00000000   0.128E+00       0.013     2222.010   0.100E-11
     TRS4 it   8 1.00000000   0.312E-02       0.013     2217.697   0.100E-11
     TRS4 it   9 1.00000000   0.228E-05       0.013     2231.143   0.100E-11
     TRS4 it  10 1.00000000   0.233E-11       0.013     2232.014   0.100E-11
     Final TRS4 iteration   10 1.00000000   0.233E-11
     Chemical potential (mu):       0.05066
 
 PAO| energy:  -190.45395661913244      penalty:   4.9137709138983242E-004
 PAO|CG| warming up with steepest descent
 PAO|CG| beta:    0.0000000000000000     
 PAO| norm of gradient:   2.0774685843781073     
 PAO| energy improvement:  -4.4668260448965498     
 PAO| step      6                 -190.453956619  0.406E-02  0.571E+00     2.527
 PAO|LS| adapt:  T F F
 PAO|LS| adapt: scan_steps:    0.0000000000000000        0.0000000000000000        0.0000000000000000     
 PAO|LS| adapt: energies:   -190.45395661913244        0.0000000000000000        0.0000000000000000     
 PAO| ======================= Iteration:         7 =============================

     Lanczos converged:  F threshold:   0.100E-02
     Est. extremal eigenvalues:    0.505E+01   0.128E+00
     Est. condition number :    0.394E+02

 Order=           3
     NS sqrt iter    1 1.00000000   0.130E+01       0.021     2714.622
     NS sqrt iter    2 1.00000000   0.660E+00       0.034     3370.780
     NS sqrt iter    3 1.00000000   0.215E+00       0.034     3374.218
     NS sqrt iter    4 1.00000000   0.299E-01       0.033     3395.288
     NS sqrt iter    5 1.00000000   0.183E-03       0.034     3376.802
     NS sqrt iter    6 1.00000000   0.119E-09       0.026     2511.201
     Symmetrizing Results
     Final NS sqrt iter    6 1.00000000   0.150E-11

     Est. extremal eigenvalues     -0.83857     2.62268  converged:  T
     TRS4 it   1 1.00000000   0.286E+02       0.007     2168.131   0.100E-11
     TRS4 it   2 1.00000000   0.237E+02       0.013     2202.445   0.100E-11
     TRS4 it   3 1.00000000   0.157E+02       0.013     2214.778   0.100E-11
     TRS4 it   4 1.00000000   0.924E+01       0.013     2225.969   0.100E-11
     TRS4 it   5 1.00000000   0.394E+01       0.013     2221.155   0.100E-11
     TRS4 it   6 1.00000000   0.104E+01       0.013     2232.281   0.100E-11
     TRS4 it   7 1.00000000   0.131E+00       0.013     2225.568   0.100E-11
     TRS4 it   8 1.00000000   0.320E-02       0.013     2217.844   0.100E-11
     TRS4 it   9 1.00000000   0.256E-05       0.013     2212.459   0.100E-11
     TRS4 it  10 1.00000000   0.330E-11       0.013     2167.267   0.100E-11
     Final TRS4 iteration   10 1.00000000   0.330E-11
     Chemical potential (mu):       0.05260
 
 PAO| energy:  -189.52266370852229      penalty:   6.8385140586498579E-004
 PAO|LS| adapt:  T F T
 PAO|LS| adapt: scan_steps:    0.0000000000000000        0.0000000000000000       0.57063990332740833     
 PAO|LS| adapt: energies:   -190.45395661913244        0.0000000000000000       -189.52266370852229     
 PAO| ======================= Iteration:         8 =============================

     Lanczos converged:  F threshold:   0.100E-02
     Est. extremal eigenvalues:    0.513E+01   0.124E+00
     Est. condition number :    0.414E+02

 Order=           3
     NS sqrt iter    1 1.00000000   0.131E+01       0.021     2685.232
     NS sqrt iter    2 1.00000000   0.673E+00       0.033     3393.865
     NS sqrt iter    3 1.00000000   0.224E+00       0.033     3392.780
     NS sqrt iter    4 1.00000000   0.332E-01       0.034     3348.509
     NS sqrt iter    5 1.00000000   0.244E-03       0.034     3364.231
     NS sqrt iter    6 1.00000000   0.276E-09       0.028     2642.085
     Symmetrizing Results
     Final NS sqrt iter    6 1.00000000   0.656E-12

     Est. extremal eigenvalues     -0.83951     2.62869  converged:  T
     TRS4 it   1 1.00000000   0.286E+02       0.007     2134.170   0.100E-11
     TRS4 it   2 1.00000000   0.237E+02       0.013     2237.201   0.100E-11
     TRS4 it   3 1.00000000   0.156E+02       0.013     2225.212   0.100E-11
     TRS4 it   4 1.00000000   0.915E+01       0.013     2232.258   0.100E-11
     TRS4 it   5 1.00000000   0.387E+01       0.013     2223.425   0.100E-11
     TRS4 it   6 1.00000000   0.101E+01       0.013     2195.120   0.100E-11
     TRS4 it   7 1.00000000   0.128E+00       0.013     2192.750   0.100E-11
     TRS4 it   8 1.00000000   0.313E-02       0.013     2223.743   0.100E-11
     TRS4 it   9 1.00000000   0.239E-05       0.013     2251.678   0.100E-11
     TRS4 it  10 1.00000000   0.265E-11       0.013     2235.465   0.100E-11
     Final TRS4 iteration   10 1.00000000   0.265E-11
     Chemical potential (mu):       0.05043
 
 PAO| energy:  -190.82282829584221      penalty:   5.1973256213021311E-004
 PAO|LS| adapt:  T T T
 PAO|LS| adapt: scan_steps:    0.0000000000000000       0.28531995166370416       0.57063990332740833     
 PAO|LS| adapt: energies:   -190.45395661913244       -190.82282829584221       -189.52266370852229     
 PAO|LS| adapt: suggested step_size:   0.20571819166404517     
 PAO|LS| adapt: predicted energy  -190.88778393102257     
 PAO| ======================= Iteration:         9 =============================

     Lanczos converged:  F threshold:   0.100E-02
     Est. extremal eigenvalues:    0.515E+01   0.123E+00
     Est. condition number :    0.420E+02

 Order=           3
     NS sqrt iter    1 1.00000000   0.132E+01       0.021     2712.107
     NS sqrt iter    2 1.00000000   0.676E+00       0.033     3383.330
     NS sqrt iter    3 1.00000000   0.226E+00       0.034     3378.249
     NS sqrt iter    4 1.00000000   0.341E-01       0.033     3403.202
     NS sqrt iter    5 1.00000000   0.264E-03       0.034     3377.276
     NS sqrt iter    6 1.00000000   0.348E-09       0.028     2708.846
     Symmetrizing Results
     Final NS sqrt iter    6 1.00000000   0.391E-12

     Est. extremal eigenvalues     -0.83936     2.63018  converged:  T
     TRS4 it   1 1.00000000   0.285E+02       0.007     2161.459   0.100E-11
     TRS4 it   2 1.00000000   0.237E+02       0.013     2203.823   0.100E-11
     TRS4 it   3 1.00000000   0.156E+02       0.013     2227.300   0.100E-11
     TRS4 it   4 1.00000000   0.914E+01       0.013     2231.159   0.100E-11
     TRS4 it   5 1.00000000   0.386E+01       0.013     2221.122   0.100E-11
     TRS4 it   6 1.00000000   0.101E+01       0.013     2211.400   0.100E-11
     TRS4 it   7 1.00000000   0.128E+00       0.013     2219.122   0.100E-11
     TRS4 it   8 1.00000000   0.312E-02       0.013     2218.585   0.100E-11
     TRS4 it   9 1.00000000   0.236E-05       0.013     2201.681   0.100E-11
     TRS4 it  10 1.00000000   0.253E-11       0.013     2228.152   0.100E-11
     Final TRS4 iteration   10 1.00000000   0.253E-11
     Chemical potential (mu):       0.05026
 
 PAO| energy:  -190.89228828285670      penalty:   5.0266853620934272E-004
 PAO|CG| trace_G_new   0.72858661146649117     
 PAO|CG| trace_G_prev    4.3158757190779777     
 PAO|CG| trace_G_mix   -4.2827161932713645E-002
 PAO|CG| trace_D    4.3158757190779777     
 PAO|CG| trace_D_Gnew   4.2827161932713645E-002
 PAO|CG| beta:   0.17873864393018385     
 PAO| norm of gradient:  0.85357285070841560     
 PAO| energy improvement: -0.43833166372425580     
 PAO| step      9                 -190.892288283  0.167E-02  0.206E+00     1.535
 PAO|LS| adapt:  T F F
 PAO|LS| adapt: scan_steps:    0.0000000000000000        0.0000000000000000        0.0000000000000000     
 PAO|LS| adapt: energies:   -190.89228828285670        0.0000000000000000        0.0000000000000000     
 PAO| ======================= Iteration:        10 =============================

     Lanczos converged:  F threshold:   0.100E-02
     Est. extremal eigenvalues:    0.509E+01   0.126E+00
     Est. condition number :    0.403E+02

 Order=           3
     NS sqrt iter    1 1.00000000   0.131E+01       0.021     2700.455
     NS sqrt iter    2 1.00000000   0.667E+00       0.034     3373.939
     NS sqrt iter    3 1.00000000   0.221E+00       0.034     3380.418
     NS sqrt iter    4 1.00000000   0.318E-01       0.034     3378.502
     NS sqrt iter    5 1.00000000   0.213E-03       0.033     3388.976
     NS sqrt iter    6 1.00000000   0.182E-09       0.027     2625.418
     Symmetrizing Results
     Final NS sqrt iter    6 1.00000000   0.107E-11

     Est. extremal eigenvalues     -0.83989     2.61624  converged:  T
     TRS4 it   1 1.00000000   0.285E+02       0.007     2167.068   0.100E-11
     TRS4 it   2 1.00000000   0.236E+02       0.013     2218.917   0.100E-11
     TRS4 it   3 1.00000000   0.156E+02       0.013     2220.789   0.100E-11
     TRS4 it   4 1.00000000   0.912E+01       0.013     2221.701   0.100E-11
     TRS4 it   5 1.00000000   0.383E+01       0.013     2227.563   0.100E-11
     TRS4 it   6 1.00000000   0.999E+00       0.013     2223.974   0.100E-11
     TRS4 it   7 1.00000000   0.125E+00       0.013     2204.017   0.100E-11
     TRS4 it   8 1.00000000   0.296E-02       0.013     2236.503   0.100E-11
     TRS4 it   9 1.00000000   0.213E-05       0.013     2222.678   0.100E-11
     TRS4 it  10 1.00000000   0.210E-11       0.013     2216.693   0.100E-11
     Final TRS4 iteration   10 1.00000000   0.210E-11
     Chemical potential (mu):       0.05103
 
 PAO| energy:  -190.99218614263876      penalty:   5.0481189732999999E-004
 PAO|LS| adapt:  T T F
 PAO|LS| adapt: scan_steps:    0.0000000000000000       0.20571819166404517        0.0000000000000000     
 PAO|LS| adapt: energies:   -190.89228828285670       -190.99218614263876        0.0000000000000000     
 PAO| ======================= Iteration:        11 =============================

     Lanczos converged:  F threshold:   0.100E-02
     Est. extremal eigenvalues:    0.504E+01   0.130E+00
     Est. condition number :    0.388E+02

 Order=           3
     NS sqrt iter    1 1.00000000   0.130E+01       0.021     2689.237
     NS sqrt iter    2 1.00000000   0.659E+00       0.034     3378.865
     NS sqrt iter    3 1.00000000   0.215E+00       0.034     3377.950
     NS sqrt iter    4 1.00000000   0.295E-01       0.034     3362.997
     NS sqrt iter    5 1.00000000   0.171E-03       0.033     3391.138
     NS sqrt iter    6 1.00000000   0.946E-10       0.025     2469.213
     Symmetrizing Results
     Final NS sqrt iter    6 1.00000000   0.170E-11

     Est. extremal eigenvalues     -0.84015     2.60253  converged:  T
     TRS4 it   1 1.00000000   0.285E+02       0.007     2155.425   0.100E-11
     TRS4 it   2 1.00000000   0.236E+02       0.013     2240.995   0.100E-11
     TRS4 it   3 1.00000000   0.156E+02       0.013     2218.001   0.100E-11
     TRS4 it   4 1.00000000   0.909E+01       0.013     2225.488   0.100E-11
     TRS4 it   5 1.00000000   0.381E+01       0.013     2226.847   0.100E-11
     TRS4 it   6 1.00000000   0.984E+00       0.013     2225.245   0.100E-11
     TRS4 it   7 1.00000000   0.121E+00       0.013     2238.035   0.100E-11
     TRS4 it   8 1.00000000   0.278E-02       0.013     2207.864   0.100E-11
     TRS4 it   9 1.00000000   0.190E-05       0.013     2218.687   0.100E-11
     TRS4 it  10 1.00000000   0.170E-11       0.013     2239.669   0.100E-11
     Final TRS4 iteration   10 1.00000000   0.170E-11
     Chemical potential (mu):       0.05188
 
 PAO| energy:  -190.99791531647782      penalty:   5.1688099812086975E-004
 PAO|LS| adapt:  T T F
 PAO|LS| adapt: scan_steps:    0.0000000000000000       0.41143638332809035        0.0000000000000000     
 PAO|LS| adapt: energies:   -190.89228828285670       -190.99791531647782        0.0000000000000000     
 PAO| ======================= Iteration:        12 =============================

     Lanczos converged:  F threshold:   0.100E-02
     Est. extremal eigenvalues:    0.493E+01   0.137E+00
     Est. condition number :    0.361E+02

 Order=           3
     NS sqrt iter    1 1.00000000   0.128E+01       0.021     2701.337
     NS sqrt iter    2 1.00000000   0.642E+00       0.033     3405.287
     NS sqrt iter    3 1.00000000   0.204E+00       0.033     3386.701
     NS sqrt iter    4 1.00000000   0.255E-01       0.034     3364.896
     NS sqrt iter    5 1.00000000   0.110E-03       0.034     3370.354
     NS sqrt iter    6 1.00000000   0.251E-10       0.018     2211.558
     Symmetrizing Results
     Final NS sqrt iter    6 1.00000000   0.215E-11

     Est. extremal eigenvalues     -0.83990     2.57849  converged:  T
     TRS4 it   1 1.00000000   0.285E+02       0.007     2181.931   0.100E-11
     TRS4 it   2 1.00000000   0.234E+02       0.013     2221.039   0.100E-11
     TRS4 it   3 1.00000000   0.155E+02       0.013     2237.822   0.100E-11
     TRS4 it   4 1.00000000   0.904E+01       0.013     2223.340   0.100E-11
     TRS4 it   5 1.00000000   0.375E+01       0.013     2229.001   0.100E-11
     TRS4 it   6 1.00000000   0.953E+00       0.013     2204.487   0.100E-11
     TRS4 it   7 1.00000000   0.113E+00       0.013     2199.243   0.100E-11
     TRS4 it   8 1.00000000   0.243E-02       0.013     2209.841   0.100E-11
     TRS4 it   9 1.00000000   0.147E-05       0.013     2220.347   0.100E-11
     TRS4 it  10 1.00000000   0.106E-11       0.013     2241.130   0.100E-11
     Final TRS4 iteration   10 1.00000000   0.106E-11
     Chemical potential (mu):       0.05379
 
 PAO| energy:  -190.74362302731768      penalty:   5.7785886293588496E-004
 PAO|LS| Need extra step
 PAO|LS| adapt:  T T T
 PAO|LS| adapt: scan_steps:    0.0000000000000000       0.41143638332809035       0.82287276665618070     
 PAO|LS| adapt: energies:   -190.89228828285670       -190.99791531647782       -190.74362302731768     
 PAO|LS| adapt: suggested step_size:   0.32646415317264837     
 PAO|LS| adapt: predicted energy  -191.00559111936113     
 PAO| ======================= Iteration:        13 =============================

     Lanczos converged:  F threshold:   0.100E-02
     Est. extremal eigenvalues:    0.506E+01   0.128E+00
     Est. condition number :    0.394E+02

 Order=           3
     NS sqrt iter    1 1.00000000   0.130E+01       0.021     2692.434
     NS sqrt iter    2 1.00000000   0.662E+00       0.033     3382.200
     NS sqrt iter    3 1.00000000   0.217E+00       0.033     3399.112
     NS sqrt iter    4 1.00000000   0.304E-01       0.033     3398.187
     NS sqrt iter    5 1.00000000   0.187E-03       0.033     3403.519
     NS sqrt iter    6 1.00000000   0.124E-09       0.025     2547.614
     Symmetrizing Results
     Final NS sqrt iter    6 1.00000000   0.148E-11

     Est. extremal eigenvalues     -0.84007     2.60813  converged:  T
     TRS4 it   1 1.00000000   0.285E+02       0.007     2137.228   0.100E-11
     TRS4 it   2 1.00000000   0.236E+02       0.013     2220.022   0.100E-11
     TRS4 it   3 1.00000000   0.156E+02       0.013     2191.676   0.100E-11
     TRS4 it   4 1.00000000   0.911E+01       0.013     2214.225   0.100E-11
     TRS4 it   5 1.00000000   0.382E+01       0.013     2228.926   0.100E-11
     TRS4 it   6 1.00000000   0.990E+00       0.013     2211.374   0.100E-11
     TRS4 it   7 1.00000000   0.123E+00       0.013     2218.784   0.100E-11
     TRS4 it   8 1.00000000   0.286E-02       0.013     2241.693   0.100E-11
     TRS4 it   9 1.00000000   0.199E-05       0.013     2208.270   0.100E-11
     TRS4 it  10 1.00000000   0.184E-11       0.013     2192.931   0.100E-11
     Final TRS4 iteration   10 1.00000000   0.184E-11
     Chemical potential (mu):       0.05152
 
 PAO| energy:  -191.00670230312494      penalty:   5.1061129486361270E-004
 PAO|CG| trace_G_new   0.28353969352493308     
 PAO|CG| trace_G_prev   0.72858661146649117     
 PAO|CG| trace_G_mix   -1.1801098622593081E-002
 PAO|CG| trace_D   0.85115832553846782     
 PAO|CG| trace_D_Gnew   1.1858081890923534E-002
 PAO|CG| beta:   0.40536126728031341     
 PAO| norm of gradient:  0.53248445378708764     
 PAO| energy improvement: -0.11441402026824221     
 PAO| step     13                 -191.006702303  0.104E-02  0.326E+00     1.976
 PAO|LS| adapt:  T F F
 PAO|LS| adapt: scan_steps:    0.0000000000000000        0.0000000000000000        0.0000000000000000     
 PAO|LS| adapt: energies:   -191.00670230312494        0.0000000000000000        0.0000000000000000     
 PAO| ======================= Iteration:        14 =============================

     Lanczos converged:  F threshold:   0.100E-02
     Est. extremal eigenvalues:    0.498E+01   0.131E+00
     Est. condition number :    0.380E+02

 Order=           3
     NS sqrt iter    1 1.00000000   0.128E+01       0.021     2690.621
     NS sqrt iter    2 1.00000000   0.651E+00       0.033     3388.489
     NS sqrt iter    3 1.00000000   0.211E+00       0.034     3363.013
     NS sqrt iter    4 1.00000000   0.281E-01       0.033     3392.638
     NS sqrt iter    5 1.00000000   0.149E-03       0.033     3400.420
     NS sqrt iter    6 1.00000000   0.638E-10       0.023     2398.911
     Symmetrizing Results
     Final NS sqrt iter    6 1.00000000   0.208E-11

     Est. extremal eigenvalues     -0.84052     2.60204  converged:  T
     TRS4 it   1 1.00000000   0.286E+02       0.007     2147.685   0.100E-11
     TRS4 it   2 1.00000000   0.236E+02       0.013     2231.042   0.100E-11
     TRS4 it   3 1.00000000   0.156E+02       0.013     2245.866   0.100E-11
     TRS4 it   4 1.00000000   0.905E+01       0.013     2220.172   0.100E-11
     TRS4 it   5 1.00000000   0.376E+01       0.013     2230.975   0.100E-11
     TRS4 it   6 1.00000000   0.961E+00       0.013     2198.333   0.100E-11
     TRS4 it   7 1.00000000   0.116E+00       0.013     2214.246   0.100E-11
     TRS4 it   8 1.00000000   0.254E-02       0.013     2222.447   0.100E-11
     TRS4 it   9 1.00000000   0.159E-05       0.013     2208.582   0.100E-11
     TRS4 it  10 1.00000000   0.119E-11       0.013     2235.635   0.100E-11
     Final TRS4 iteration   10 1.00000000   0.119E-11
     Chemical potential (mu):       0.05324
 
 PAO| energy:  -191.06006529488312      penalty:   5.1254570146221838E-004
 PAO|LS| adapt:  T T F
 PAO|LS| adapt: scan_steps:    0.0000000000000000       0.32646415317264837        0.0000000000000000     
 PAO|LS| adapt: energies:   -191.00670230312494       -191.06006529488312        0.0000000000000000     
 PAO| ======================= Iteration:        15 =============================

     Lanczos converged:  F threshold:   0.100E-02
     Est. extremal eigenvalues:    0.491E+01   0.134E+00
     Est. condition number :    0.367E+02

 Order=           3
     NS sqrt iter    1 1.00000000   0.127E+01       0.021     2664.202
     NS sqrt iter    2 1.00000000   0.639E+00       0.034     3338.254
     NS sqrt iter    3 1.00000000   0.204E+00       0.033     3401.314
     NS sqrt iter    4 1.00000000   0.259E-01       0.034     3380.315
     NS sqrt iter    5 1.00000000   0.119E-03       0.033     3392.712
     NS sqrt iter    6 1.00000000   0.331E-10       0.019     2260.212
     Symmetrizing Results
     Final NS sqrt iter    6 1.00000000   0.230E-11

     Est. extremal eigenvalues     -0.84065     2.59563  converged:  T
     TRS4 it   1 1.00000000   0.286E+02       0.007     2146.467   0.100E-11
     TRS4 it   2 1.00000000   0.235E+02       0.013     2218.777   0.100E-11
     TRS4 it   3 1.00000000   0.155E+02       0.013     2204.478   0.100E-11
     TRS4 it   4 1.00000000   0.899E+01       0.013     2225.248   0.100E-11
     TRS4 it   5 1.00000000   0.371E+01       0.013     2215.965   0.100E-11
     TRS4 it   6 1.00000000   0.932E+00       0.013     2212.791   0.100E-11
     TRS4 it   7 1.00000000   0.109E+00       0.013     2213.927   0.100E-11
     TRS4 it   8 1.00000000   0.226E-02       0.013     2225.826   0.100E-11
     TRS4 it   9 1.00000000   0.127E-05       0.013     2220.701   0.100E-11
     TRS4 it  10 1.00000000   0.757E-12       0.013     2219.968   0.100E-11
     Final TRS4 iteration   10 1.00000000   0.757E-12
     Chemical potential (mu):       0.05487
 
 PAO| energy:  -191.03927314004375      penalty:   5.2976356805890042E-004
 PAO|LS| adapt:  T T T
 PAO|LS| adapt: scan_steps:    0.0000000000000000       0.32646415317264837       0.65292830634529675     
 PAO|LS| adapt: energies:   -191.00670230312494       -191.06006529488312       -191.03927314004375     
 PAO|LS| adapt: suggested step_size:   0.39815985590337871     
 PAO|LS| adapt: predicted energy  -191.06185353795570     
 PAO| ======================= Iteration:        16 =============================

     Lanczos converged:  F threshold:   0.100E-02
     Est. extremal eigenvalues:    0.497E+01   0.132E+00
     Est. condition number :    0.377E+02

 Order=           3
     NS sqrt iter    1 1.00000000   0.128E+01       0.021     2677.857
     NS sqrt iter    2 1.00000000   0.648E+00       0.034     3379.400
     NS sqrt iter    3 1.00000000   0.209E+00       0.033     3386.326
     NS sqrt iter    4 1.00000000   0.276E-01       0.034     3361.492
     NS sqrt iter    5 1.00000000   0.142E-03       0.034     3374.822
     NS sqrt iter    6 1.00000000   0.552E-10       0.022     2350.433
     Symmetrizing Results
     Final NS sqrt iter    6 1.00000000   0.217E-11

     Est. extremal eigenvalues     -0.84058     2.60065  converged:  T
     TRS4 it   1 1.00000000   0.286E+02       0.007     2156.849   0.100E-11
     TRS4 it   2 1.00000000   0.235E+02       0.013     2210.378   0.100E-11
     TRS4 it   3 1.00000000   0.155E+02       0.013     2223.746   0.100E-11
     TRS4 it   4 1.00000000   0.904E+01       0.013     2204.977   0.100E-11
     TRS4 it   5 1.00000000   0.375E+01       0.013     2226.631   0.100E-11
     TRS4 it   6 1.00000000   0.954E+00       0.013     2209.043   0.100E-11
     TRS4 it   7 1.00000000   0.114E+00       0.013     2217.220   0.100E-11
     TRS4 it   8 1.00000000   0.247E-02       0.013     2216.296   0.100E-11
     TRS4 it   9 1.00000000   0.151E-05       0.013     2239.847   0.100E-11
     TRS4 it  10 1.00000000   0.111E-11       0.013     2214.939   0.100E-11
     Final TRS4 iteration   10 1.00000000   0.111E-11
     Chemical potential (mu):       0.05359
 
 PAO| energy:  -191.06179458026577      penalty:   5.1496549302804063E-004
 PAO|CG| trace_G_new   0.10955775068932572     
 PAO|CG| trace_G_prev   0.28353969352493308     
 PAO|CG| trace_G_mix    4.4420041220589587E-003
 PAO|CG| trace_D   0.41378650623310220     
 PAO|CG| trace_D_Gnew   7.4116760052316867E-004
 PAO|CG| beta:   0.37072674115034759     
 PAO| norm of gradient:  0.33099509163932583     
 PAO| energy improvement:  -5.5092277140829538E-002
 PAO| step     16                 -191.061794580  0.646E-03  0.398E+00     1.517
 PAO|LS| adapt:  T F F
 PAO|LS| adapt: scan_steps:    0.0000000000000000        0.0000000000000000        0.0000000000000000     
 PAO|LS| adapt: energies:   -191.06179458026577        0.0000000000000000        0.0000000000000000     
 PAO| ======================= Iteration:        17 =============================

     Lanczos converged:  F threshold:   0.100E-02
     Est. extremal eigenvalues:    0.492E+01   0.133E+00
     Est. condition number :    0.371E+02

 Order=           3
     NS sqrt iter    1 1.00000000   0.127E+01       0.021     2696.610
     NS sqrt iter    2 1.00000000   0.642E+00       0.033     3393.650
     NS sqrt iter    3 1.00000000   0.206E+00       0.033     3398.180
     NS sqrt iter    4 1.00000000   0.266E-01       0.033     3394.665
     NS sqrt iter    5 1.00000000   0.128E-03       0.033     3401.931
     NS sqrt iter    6 1.00000000   0.411E-10       0.020     2309.085
     Symmetrizing Results
     Final NS sqrt iter    6 1.00000000   0.229E-11

     Est. extremal eigenvalues     -0.84065     2.59802  converged:  T
     TRS4 it   1 1.00000000   0.286E+02       0.007     2144.090   0.100E-11
     TRS4 it   2 1.00000000   0.235E+02       0.013     2223.091   0.100E-11
     TRS4 it   3 1.00000000   0.155E+02       0.013     2221.630   0.100E-11
     TRS4 it   4 1.00000000   0.899E+01       0.013     2235.517   0.100E-11
     TRS4 it   5 1.00000000   0.371E+01       0.013     2210.538   0.100E-11
     TRS4 it   6 1.00000000   0.933E+00       0.013     2234.205   0.100E-11
     TRS4 it   7 1.00000000   0.110E+00       0.013     2225.133   0.100E-11
     TRS4 it   8 1.00000000   0.228E-02       0.013     2213.368   0.100E-11
     TRS4 it   9 1.00000000   0.130E-05       0.013     2216.852   0.100E-11
     TRS4 it  10 1.00000000   0.817E-12       0.013     2238.757   0.100E-11
     Final TRS4 iteration   10 1.00000000   0.817E-12
     Chemical potential (mu):       0.05469
 
 PAO| energy:  -191.06675281199000      penalty:   5.0799862752967250E-004
 PAO|LS| adapt:  T T F
 PAO|LS| adapt: scan_steps:    0.0000000000000000       0.39815985590337871        0.0000000000000000     
 PAO|LS| adapt: energies:   -191.06179458026577       -191.06675281199000        0.0000000000000000     
 PAO| ======================= Iteration:        18 =============================

     Lanczos converged:  F threshold:   0.100E-02
     Est. extremal eigenvalues:    0.487E+01   0.134E+00
     Est. condition number :    0.365E+02

 Order=           3
     NS sqrt iter    1 1.00000000   0.126E+01       0.021     2699.763
     NS sqrt iter    2 1.00000000   0.637E+00       0.033     3390.380
     NS sqrt iter    3 1.00000000   0.203E+00       0.034     3376.369
     NS sqrt iter    4 1.00000000   0.257E-01       0.034     3376.381
     NS sqrt iter    5 1.00000000   0.116E-03       0.033     3382.550
     NS sqrt iter    6 1.00000000   0.310E-10       0.019     2255.571
     Symmetrizing Results
     Final NS sqrt iter    6 1.00000000   0.226E-11

     Est. extremal eigenvalues     -0.84055     2.59525  converged:  T
     TRS4 it   1 1.00000000   0.286E+02       0.007     2137.751   0.100E-11
     TRS4 it   2 1.00000000   0.235E+02       0.013     2223.557   0.100E-11
     TRS4 it   3 1.00000000   0.155E+02       0.013     2215.368   0.100E-11
     TRS4 it   4 1.00000000   0.894E+01       0.013     2228.763   0.100E-11
     TRS4 it   5 1.00000000   0.366E+01       0.013     2196.278   0.100E-11
     TRS4 it   6 1.00000000   0.913E+00       0.013     2219.379   0.100E-11
     TRS4 it   7 1.00000000   0.105E+00       0.013     2225.314   0.100E-11
     TRS4 it   8 1.00000000   0.211E-02       0.013     2224.113   0.100E-11
     TRS4 it   9 1.00000000   0.111E-05       0.013     2225.476   0.100E-11
     TRS4 it  10 1.00000000   0.632E-12       0.013     2211.698   0.100E-11
     Final TRS4 iteration   10 1.00000000   0.632E-12
     Chemical potential (mu):       0.05583
 
 PAO| energy:  -190.99442921521174      penalty:   5.0929193439516155E-004
 PAO|LS| adapt:  T T T
 PAO|LS| adapt: scan_steps:    0.0000000000000000       0.39815985590337871       0.79631971180675742     
 PAO|LS| adapt: energies:   -191.06179458026577       -191.06675281199000       -190.99442921521174     
 PAO|LS| adapt: suggested step_size:   0.22462498643580334     
 PAO|LS| adapt: predicted energy  -191.07409297929840     
 PAO| ======================= Iteration:        19 =============================

     Lanczos converged:  F threshold:   0.100E-02
     Est. extremal eigenvalues:    0.494E+01   0.132E+00
     Est. condition number :    0.373E+02

 Order=           3
     NS sqrt iter    1 1.00000000   0.127E+01       0.026     2150.963
     NS sqrt iter    2 1.00000000   0.645E+00       0.043     2621.901
     NS sqrt iter    3 1.00000000   0.207E+00       0.043     2631.038
     NS sqrt iter    4 1.00000000   0.270E-01       0.043     2620.119
     NS sqrt iter    5 1.00000000   0.134E-03       0.043     2663.358
     NS sqrt iter    6 1.00000000   0.467E-10       0.021     2333.555
     Symmetrizing Results
     Final NS sqrt iter    6 1.00000000   0.227E-11

     Est. extremal eigenvalues     -0.84064     2.59919  converged:  T
     TRS4 it   1 1.00000000   0.286E+02       0.007     2127.298   0.100E-11
     TRS4 it   2 1.00000000   0.235E+02       0.013     2237.660   0.100E-11
     TRS4 it   3 1.00000000   0.155E+02       0.013     2196.628   0.100E-11
     TRS4 it   4 1.00000000   0.901E+01       0.013     2225.360   0.100E-11
     TRS4 it   5 1.00000000   0.373E+01       0.013     2217.403   0.100E-11
     TRS4 it   6 1.00000000   0.942E+00       0.013     2218.433   0.100E-11
     TRS4 it   7 1.00000000   0.112E+00       0.013     2212.999   0.100E-11
     TRS4 it   8 1.00000000   0.236E-02       0.013     2202.445   0.100E-11
     TRS4 it   9 1.00000000   0.139E-05       0.013     2201.288   0.100E-11
     TRS4 it  10 1.00000000   0.931E-12       0.013     2215.035   0.100E-11
     Final TRS4 iteration   10 1.00000000   0.931E-12
     Chemical potential (mu):       0.05421
 
 PAO| energy:  -191.07407916136250      penalty:   5.1003711946031910E-004
 PAO|CG| trace_G_new    2.2827353623617791E-002
 PAO|CG| trace_G_prev   0.10955775068932572     
 PAO|CG| trace_G_mix   -4.0805634554091246E-004
 PAO|CG| trace_D   0.16587833024105963     
 PAO|CG| trace_D_Gnew  -4.9194146768147972E-005
 PAO|CG| beta:   0.21208367115027441     
 PAO| norm of gradient:  0.15108723845387403     
 PAO| energy improvement:  -1.2284581096736247E-002
 PAO| step     19                 -191.074079161  0.295E-03  0.225E+00     1.555
 PAO|LS| adapt:  T F F
 PAO|LS| adapt: scan_steps:    0.0000000000000000        0.0000000000000000        0.0000000000000000     
 PAO|LS| adapt: energies:   -191.07407916136250        0.0000000000000000        0.0000000000000000     
 PAO| ======================= Iteration:        20 =============================

     Lanczos converged:  F threshold:   0.100E-02
     Est. extremal eigenvalues:    0.493E+01   0.132E+00
     Est. condition number :    0.373E+02

 Order=           3
     NS sqrt iter    1 1.00000000   0.127E+01       0.021     2700.302
     NS sqrt iter    2 1.00000000   0.644E+00       0.033     3385.271
     NS sqrt iter    3 1.00000000   0.207E+00       0.034     3373.601
     NS sqrt iter    4 1.00000000   0.270E-01       0.034     3363.083
     NS sqrt iter    5 1.00000000   0.133E-03       0.033     3383.906
     NS sqrt iter    6 1.00000000   0.458E-10       0.022     2240.244
     Symmetrizing Results
     Final NS sqrt iter    6 1.00000000   0.228E-11

     Est. extremal eigenvalues     -0.84065     2.59778  converged:  T
     TRS4 it   1 1.00000000   0.286E+02       0.007     2139.973   0.100E-11
     TRS4 it   2 1.00000000   0.235E+02       0.013     2213.578   0.100E-11
     TRS4 it   3 1.00000000   0.155E+02       0.013     2216.873   0.100E-11
     TRS4 it   4 1.00000000   0.900E+01       0.013     2213.974   0.100E-11
     TRS4 it   5 1.00000000   0.371E+01       0.013     2220.850   0.100E-11
     TRS4 it   6 1.00000000   0.938E+00       0.013     2245.130   0.100E-11
     TRS4 it   7 1.00000000   0.111E+00       0.013     2238.811   0.100E-11
     TRS4 it   8 1.00000000   0.233E-02       0.013     2210.799   0.100E-11
     TRS4 it   9 1.00000000   0.134E-05       0.013     2218.938   0.100E-11
     TRS4 it  10 1.00000000   0.879E-12       0.013     2238.526   0.100E-11
     Final TRS4 iteration   10 1.00000000   0.879E-12
     Chemical potential (mu):       0.05439
 
 PAO| energy:  -191.07820305451176      penalty:   5.0014720611413536E-004
 PAO|LS| adapt:  T T F
 PAO|LS| adapt: scan_steps:    0.0000000000000000       0.22462498643580334        0.0000000000000000     
 PAO|LS| adapt: energies:   -191.07407916136250       -191.07820305451176        0.0000000000000000     
 PAO| ======================= Iteration:        21 =============================

     Lanczos converged:  F threshold:   0.100E-02
     Est. extremal eigenvalues:    0.492E+01   0.132E+00
     Est. condition number :    0.372E+02

 Order=           3
     NS sqrt iter    1 1.00000000   0.127E+01       0.021     2695.328
     NS sqrt iter    2 1.00000000   0.643E+00       0.033     3408.136
     NS sqrt iter    3 1.00000000   0.207E+00       0.033     3406.489
     NS sqrt iter    4 1.00000000   0.269E-01       0.033     3408.796
     NS sqrt iter    5 1.00000000   0.133E-03       0.033     3391.662
     NS sqrt iter    6 1.00000000   0.450E-10       0.021     2336.063
     Symmetrizing Results
     Final NS sqrt iter    6 1.00000000   0.229E-11

     Est. extremal eigenvalues     -0.84065     2.59635  converged:  T
     TRS4 it   1 1.00000000   0.286E+02       0.007     2158.249   0.100E-11
     TRS4 it   2 1.00000000   0.235E+02       0.013     2223.621   0.100E-11
     TRS4 it   3 1.00000000   0.155E+02       0.013     2229.804   0.100E-11
     TRS4 it   4 1.00000000   0.898E+01       0.013     2202.798   0.100E-11
     TRS4 it   5 1.00000000   0.370E+01       0.013     2210.954   0.100E-11
     TRS4 it   6 1.00000000   0.933E+00       0.013     2229.786   0.100E-11
     TRS4 it   7 1.00000000   0.110E+00       0.013     2210.924   0.100E-11
     TRS4 it   8 1.00000000   0.229E-02       0.013     2249.245   0.100E-11
     TRS4 it   9 1.00000000   0.130E-05       0.013     2255.095   0.100E-11
     TRS4 it  10 1.00000000   0.815E-12       0.013     2261.098   0.100E-11
     Final TRS4 iteration   10 1.00000000   0.815E-12
     Chemical potential (mu):       0.05458
 
 PAO| energy:  -191.08030036468148      penalty:   4.9074114423984332E-004
 PAO|LS| adapt:  T T F
 PAO|LS| adapt: scan_steps:    0.0000000000000000       0.44924997287160667        0.0000000000000000     
 PAO|LS| adapt: energies:   -191.07407916136250       -191.08030036468148        0.0000000000000000     
 PAO| ======================= Iteration:        22 =============================

     Lanczos converged:  F threshold:   0.100E-02
     Est. extremal eigenvalues:    0.491E+01   0.132E+00
     Est. condition number :    0.372E+02

 Order=           3
     NS sqrt iter    1 1.00000000   0.127E+01       0.021     2690.476
     NS sqrt iter    2 1.00000000   0.642E+00       0.034     3379.621
     NS sqrt iter    3 1.00000000   0.207E+00       0.034     3378.007
     NS sqrt iter    4 1.00000000   0.269E-01       0.033     3386.827
     NS sqrt iter    5 1.00000000   0.131E-03       0.033     3401.247
     NS sqrt iter    6 1.00000000   0.436E-10       0.020     2332.821
     Symmetrizing Results
     Final NS sqrt iter    6 1.00000000   0.230E-11

     Est. extremal eigenvalues     -0.84066     2.59346  converged:  T
     TRS4 it   1 1.00000000   0.286E+02       0.007     2159.710   0.100E-11
     TRS4 it   2 1.00000000   0.235E+02       0.013     2217.197   0.100E-11
     TRS4 it   3 1.00000000   0.155E+02       0.013     2237.452   0.100E-11
     TRS4 it   4 1.00000000   0.896E+01       0.013     2215.273   0.100E-11
     TRS4 it   5 1.00000000   0.368E+01       0.013     2216.937   0.100E-11
     TRS4 it   6 1.00000000   0.924E+00       0.013     2231.421   0.100E-11
     TRS4 it   7 1.00000000   0.108E+00       0.013     2235.180   0.100E-11
     TRS4 it   8 1.00000000   0.222E-02       0.013     2231.659   0.100E-11
     TRS4 it   9 1.00000000   0.123E-05       0.013     2225.803   0.100E-11
     TRS4 it  10 1.00000000   0.734E-12       0.013     2228.013   0.100E-11
     Final TRS4 iteration   10 1.00000000   0.734E-12
     Chemical potential (mu):       0.05497
 
 PAO| energy:  -191.07832736822070      penalty:   4.7335005950498431E-004
 PAO|LS| Need extra step
 PAO|LS| adapt:  T T T
 PAO|LS| adapt: scan_steps:    0.0000000000000000       0.44924997287160667       0.89849994574321335     
 PAO|LS| adapt: energies:   -191.07407916136250       -191.08030036468148       -191.07832736822070     
 PAO|LS| adapt: suggested step_size:   0.56570471324249572     
 PAO|LS| adapt: predicted energy  -191.08057567011082     
 PAO| ======================= Iteration:        23 =============================

     Lanczos converged:  F threshold:   0.100E-02
     Est. extremal eigenvalues:    0.492E+01   0.132E+00
     Est. condition number :    0.372E+02

 Order=           3
     NS sqrt iter    1 1.00000000   0.127E+01       0.021     2697.488
     NS sqrt iter    2 1.00000000   0.643E+00       0.033     3384.248
     NS sqrt iter    3 1.00000000   0.207E+00       0.033     3380.882
     NS sqrt iter    4 1.00000000   0.269E-01       0.033     3415.108
     NS sqrt iter    5 1.00000000   0.132E-03       0.033     3403.370
     NS sqrt iter    6 1.00000000   0.446E-10       0.021     2328.651
     Symmetrizing Results
     Final NS sqrt iter    6 1.00000000   0.228E-11

     Est. extremal eigenvalues     -0.84066     2.59561  converged:  T
     TRS4 it   1 1.00000000   0.286E+02       0.007     2140.968   0.100E-11
     TRS4 it   2 1.00000000   0.235E+02       0.013     2238.762   0.100E-11
     TRS4 it   3 1.00000000   0.155E+02       0.013     2226.807   0.100E-11
     TRS4 it   4 1.00000000   0.898E+01       0.013     2224.106   0.100E-11
     TRS4 it   5 1.00000000   0.370E+01       0.013     2198.384   0.100E-11
     TRS4 it   6 1.00000000   0.931E+00       0.013     2202.528   0.100E-11
     TRS4 it   7 1.00000000   0.109E+00       0.013     2224.744   0.100E-11
     TRS4 it   8 1.00000000   0.227E-02       0.013     2209.572   0.100E-11
     TRS4 it   9 1.00000000   0.128E-05       0.013     2232.508   0.100E-11
     TRS4 it  10 1.00000000   0.805E-12       0.013     2203.801   0.100E-11
     Final TRS4 iteration   10 1.00000000   0.805E-12
     Chemical potential (mu):       0.05468
 
 PAO| energy:  -191.08058277914532      penalty:   4.8605235471173958E-004
 PAO|CG| trace_G_new    1.8760967492971254E-002
 PAO|CG| trace_G_prev    2.2827353623617791E-002
 PAO|CG| trace_G_mix    1.1905890153603820E-004
 PAO|CG| trace_D    3.0309341803570023E-002
 PAO|CG| trace_D_Gnew  -5.2327791070114039E-005
 PAO|CG| beta:   0.81664782080336273     
 PAO| norm of gradient:  0.13697068114370772     
 PAO| energy improvement:  -6.5036177828119435E-003
 PAO| step     23                 -191.080582779  0.268E-03  0.566E+00     1.964
 PAO|LS| adapt:  T F F
 PAO|LS| adapt: scan_steps:    0.0000000000000000        0.0000000000000000        0.0000000000000000     
 PAO|LS| adapt: energies:   -191.08058277914532        0.0000000000000000        0.0000000000000000     
 PAO| ======================= Iteration:        24 =============================

     Lanczos converged:  F threshold:   0.100E-02
     Est. extremal eigenvalues:    0.490E+01   0.132E+00
     Est. condition number :    0.372E+02

 Order=           3
     NS sqrt iter    1 1.00000000   0.126E+01       0.021     2706.140
     NS sqrt iter    2 1.00000000   0.641E+00       0.033     3390.474
     NS sqrt iter    3 1.00000000   0.206E+00       0.034     3376.584
     NS sqrt iter    4 1.00000000   0.268E-01       0.034     3366.903
     NS sqrt iter    5 1.00000000   0.131E-03       0.034     3345.747
     NS sqrt iter    6 1.00000000   0.437E-10       0.021     2320.104
     Symmetrizing Results
     Final NS sqrt iter    6 1.00000000   0.228E-11

     Est. extremal eigenvalues     -0.84067     2.59181  converged:  T
     TRS4 it   1 1.00000000   0.286E+02       0.007     2151.153   0.100E-11
     TRS4 it   2 1.00000000   0.235E+02       0.013     2216.522   0.100E-11
     TRS4 it   3 1.00000000   0.155E+02       0.013     2238.204   0.100E-11
     TRS4 it   4 1.00000000   0.895E+01       0.013     2244.397   0.100E-11
     TRS4 it   5 1.00000000   0.367E+01       0.013     2197.493   0.100E-11
     TRS4 it   6 1.00000000   0.921E+00       0.013     2229.869   0.100E-11
     TRS4 it   7 1.00000000   0.107E+00       0.013     2219.653   0.100E-11
     TRS4 it   8 1.00000000   0.219E-02       0.013     2206.023   0.100E-11
     TRS4 it   9 1.00000000   0.120E-05       0.013     2211.326   0.100E-11
     TRS4 it  10 1.00000000   0.686E-12       0.013     2200.178   0.100E-11
     Final TRS4 iteration   10 1.00000000   0.686E-12
     Chemical potential (mu):       0.05509
 
 PAO| energy:  -191.08395512998271      penalty:   4.4765128842374238E-004
 PAO|LS| adapt:  T T F
 PAO|LS| adapt: scan_steps:    0.0000000000000000       0.56570471324249572        0.0000000000000000     
 PAO|LS| adapt: energies:   -191.08058277914532       -191.08395512998271        0.0000000000000000     
 PAO| ======================= Iteration:        25 =============================

     Lanczos converged:  T threshold:   0.100E-02
     Est. extremal eigenvalues:    0.488E+01   0.131E+00
     Est. condition number :    0.372E+02

 Order=           3
     NS sqrt iter    1 1.00000000   0.126E+01       0.021     2695.782
     NS sqrt iter    2 1.00000000   0.638E+00       0.033     3385.002
     NS sqrt iter    3 1.00000000   0.206E+00       0.034     3376.941
     NS sqrt iter    4 1.00000000   0.267E-01       0.033     3382.962
     NS sqrt iter    5 1.00000000   0.130E-03       0.034     3379.512
     NS sqrt iter    6 1.00000000   0.432E-10       0.021     2317.560
     Symmetrizing Results
     Final NS sqrt iter    6 1.00000000   0.229E-11

     Est. extremal eigenvalues     -0.84067     2.58779  converged:  T
     TRS4 it   1 1.00000000   0.286E+02       0.007     2141.374   0.100E-11
     TRS4 it   2 1.00000000   0.234E+02       0.013     2234.805   0.100E-11
     TRS4 it   3 1.00000000   0.155E+02       0.013     2228.379   0.100E-11
     TRS4 it   4 1.00000000   0.892E+01       0.013     2210.296   0.100E-11
     TRS4 it   5 1.00000000   0.365E+01       0.013     2235.895   0.100E-11
     TRS4 it   6 1.00000000   0.911E+00       0.013     2211.235   0.100E-11
     TRS4 it   7 1.00000000   0.105E+00       0.013     2227.235   0.100E-11
     TRS4 it   8 1.00000000   0.211E-02       0.013     2217.752   0.100E-11
     TRS4 it   9 1.00000000   0.112E-05       0.013     2245.981   0.100E-11
     TRS4 it  10 1.00000000   0.627E-12       0.013     2241.560   0.100E-11
     Final TRS4 iteration   10 1.00000000   0.627E-12
     Chemical potential (mu):       0.05550
 
 PAO| energy:  -191.07255548444107      penalty:   4.1390607204712051E-004
 PAO|LS| adapt:  T T T
 PAO|LS| adapt: scan_steps:    0.0000000000000000       0.56570471324249572        1.1314094264849914     
 PAO|LS| adapt: energies:   -191.08058277914532       -191.08395512998271       -191.07255548444107     
 PAO|LS| adapt: suggested step_size:   0.41199906871554459     
 PAO|LS| adapt: predicted energy  -191.08450039700872     
 PAO| ======================= Iteration:        26 =============================

     Lanczos converged:  F threshold:   0.100E-02
     Est. extremal eigenvalues:    0.490E+01   0.132E+00
     Est. condition number :    0.372E+02

 Order=           3
     NS sqrt iter    1 1.00000000   0.126E+01       0.021     2707.049
     NS sqrt iter    2 1.00000000   0.641E+00       0.034     3379.237
     NS sqrt iter    3 1.00000000   0.206E+00       0.034     3359.986
     NS sqrt iter    4 1.00000000   0.268E-01       0.033     3386.203
     NS sqrt iter    5 1.00000000   0.131E-03       0.034     3369.420
     NS sqrt iter    6 1.00000000   0.439E-10       0.020     2346.622
     Symmetrizing Results
     Final NS sqrt iter    6 1.00000000   0.227E-11

     Est. extremal eigenvalues     -0.84067     2.59287  converged:  T
     TRS4 it   1 1.00000000   0.286E+02       0.007     2113.861   0.100E-11
     TRS4 it   2 1.00000000   0.235E+02       0.013     2229.746   0.100E-11
     TRS4 it   3 1.00000000   0.155E+02       0.013     2230.526   0.100E-11
     TRS4 it   4 1.00000000   0.895E+01       0.013     2227.120   0.100E-11
     TRS4 it   5 1.00000000   0.368E+01       0.013     2214.784   0.100E-11
     TRS4 it   6 1.00000000   0.923E+00       0.013     2226.300   0.100E-11
     TRS4 it   7 1.00000000   0.108E+00       0.013     2210.751   0.100E-11
     TRS4 it   8 1.00000000   0.221E-02       0.013     2212.955   0.100E-11
     TRS4 it   9 1.00000000   0.122E-05       0.013     2227.260   0.100E-11
     TRS4 it  10 1.00000000   0.751E-12       0.013     2197.111   0.100E-11
     Final TRS4 iteration   10 1.00000000   0.751E-12
     Chemical potential (mu):       0.05498
 
 PAO| energy:  -191.08448502759867      penalty:   4.5761569660350944E-004
 PAO|CG| trace_G_new    1.4784057004170455E-002
 PAO|CG| trace_G_prev    1.8760967492971254E-002
 PAO|CG| trace_G_mix    2.6088727419421124E-004
 PAO|CG| trace_D    3.9060148418154278E-002
 PAO|CG| trace_D_Gnew  -8.3709715417289152E-005
 PAO|CG| beta:   0.77411624615933639     
 PAO| norm of gradient:  0.12158970764078042     
 PAO| energy improvement:  -3.9022484533575152E-003
 PAO| step     26                 -191.084485028  0.237E-03  0.412E+00     1.514
 PAO|LS| adapt:  T F F
 PAO|LS| adapt: scan_steps:    0.0000000000000000        0.0000000000000000        0.0000000000000000     
 PAO|LS| adapt: energies:   -191.08448502759867        0.0000000000000000        0.0000000000000000     
 PAO| ======================= Iteration:        27 =============================

     Lanczos converged:  F threshold:   0.100E-02
     Est. extremal eigenvalues:    0.489E+01   0.131E+00
     Est. condition number :    0.372E+02

 Order=           3
     NS sqrt iter    1 1.00000000   0.126E+01       0.021     2675.016
     NS sqrt iter    2 1.00000000   0.639E+00       0.033     3399.324
     NS sqrt iter    3 1.00000000   0.206E+00       0.033     3393.162
     NS sqrt iter    4 1.00000000   0.267E-01       0.033     3384.098
     NS sqrt iter    5 1.00000000   0.131E-03       0.033     3381.126
     NS sqrt iter    6 1.00000000   0.436E-10       0.020     2340.771
     Symmetrizing Results
     Final NS sqrt iter    6 1.00000000   0.230E-11

     Est. extremal eigenvalues     -0.84068     2.59039  converged:  T
     TRS4 it   1 1.00000000   0.286E+02       0.007     2163.427   0.100E-11
     TRS4 it   2 1.00000000   0.235E+02       0.013     2213.664   0.100E-11
     TRS4 it   3 1.00000000   0.155E+02       0.013     2232.816   0.100E-11
     TRS4 it   4 1.00000000   0.893E+01       0.013     2206.584   0.100E-11
     TRS4 it   5 1.00000000   0.366E+01       0.013     2218.182   0.100E-11
     TRS4 it   6 1.00000000   0.915E+00       0.013     2218.916   0.100E-11
     TRS4 it   7 1.00000000   0.106E+00       0.013     2210.371   0.100E-11
     TRS4 it   8 1.00000000   0.214E-02       0.013     2238.848   0.100E-11
     TRS4 it   9 1.00000000   0.115E-05       0.013     2201.676   0.100E-11
     TRS4 it  10 1.00000000   0.647E-12       0.013     2229.137   0.100E-11
     Final TRS4 iteration   10 1.00000000   0.647E-12
     Chemical potential (mu):       0.05535
 
 PAO| energy:  -191.08759847847227      penalty:   4.2281546570214487E-004
 PAO|LS| adapt:  T T F
 PAO|LS| adapt: scan_steps:    0.0000000000000000       0.41199906871554459        0.0000000000000000     
 PAO|LS| adapt: energies:   -191.08448502759867       -191.08759847847227        0.0000000000000000     
 PAO| ======================= Iteration:        28 =============================

     Lanczos converged:  F threshold:   0.100E-02
     Est. extremal eigenvalues:    0.487E+01   0.131E+00
     Est. condition number :    0.372E+02

 Order=           3
     NS sqrt iter    1 1.00000000   0.125E+01       0.021     2696.901
     NS sqrt iter    2 1.00000000   0.637E+00       0.033     3381.361
     NS sqrt iter    3 1.00000000   0.205E+00       0.034     3354.879
     NS sqrt iter    4 1.00000000   0.265E-01       0.033     3385.674
     NS sqrt iter    5 1.00000000   0.130E-03       0.034     3372.877
     NS sqrt iter    6 1.00000000   0.435E-10       0.021     2337.899
     Symmetrizing Results
     Final NS sqrt iter    6 1.00000000   0.228E-11

     Est. extremal eigenvalues     -0.84069     2.58776  converged:  T
     TRS4 it   1 1.00000000   0.286E+02       0.007     2172.726   0.100E-11
     TRS4 it   2 1.00000000   0.234E+02       0.013     2220.372   0.100E-11
     TRS4 it   3 1.00000000   0.155E+02       0.013     2230.709   0.100E-11
     TRS4 it   4 1.00000000   0.891E+01       0.013     2208.164   0.100E-11
     TRS4 it   5 1.00000000   0.364E+01       0.013     2216.372   0.100E-11
     TRS4 it   6 1.00000000   0.907E+00       0.013     2213.135   0.100E-11
     TRS4 it   7 1.00000000   0.104E+00       0.013     2210.809   0.100E-11
     TRS4 it   8 1.00000000   0.208E-02       0.013     2236.050   0.100E-11
     TRS4 it   9 1.00000000   0.109E-05       0.013     2203.367   0.100E-11
     TRS4 it  10 1.00000000   0.572E-12       0.013     2209.414   0.100E-11
     Final TRS4 iteration   10 1.00000000   0.572E-12
     Chemical potential (mu):       0.05573
 
 PAO| energy:  -191.08464806694050      penalty:   3.9115040342176566E-004
 PAO|LS| adapt:  T T T
 PAO|LS| adapt: scan_steps:    0.0000000000000000       0.41199906871554459       0.82399813743108918     
 PAO|LS| adapt: energies:   -191.08448502759867       -191.08759847847227       -191.08464806694050     
 PAO|LS| adapt: suggested step_size:   0.41753778748146797     
 PAO|LS| adapt: predicted energy  -191.08759902642805     
 PAO| ======================= Iteration:        29 =============================

     Lanczos converged:  F threshold:   0.100E-02
     Est. extremal eigenvalues:    0.488E+01   0.131E+00
     Est. condition number :    0.372E+02

 Order=           3
     NS sqrt iter    1 1.00000000   0.126E+01       0.021     2721.259
     NS sqrt iter    2 1.00000000   0.639E+00       0.033     3395.179
     NS sqrt iter    3 1.00000000   0.206E+00       0.033     3410.632
     NS sqrt iter    4 1.00000000   0.267E-01       0.034     3358.162
     NS sqrt iter    5 1.00000000   0.131E-03       0.033     3392.709
     NS sqrt iter    6 1.00000000   0.436E-10       0.021     2326.432
     Symmetrizing Results
     Final NS sqrt iter    6 1.00000000   0.230E-11

     Est. extremal eigenvalues     -0.84068     2.59035  converged:  T
     TRS4 it   1 1.00000000   0.286E+02       0.007     2130.470   0.100E-11
     TRS4 it   2 1.00000000   0.235E+02       0.013     2246.192   0.100E-11
     TRS4 it   3 1.00000000   0.155E+02       0.013     2224.760   0.100E-11
     TRS4 it   4 1.00000000   0.893E+01       0.013     2231.810   0.100E-11
     TRS4 it   5 1.00000000   0.366E+01       0.013     2221.448   0.100E-11
     TRS4 it   6 1.00000000   0.915E+00       0.013     2221.373   0.100E-11
     TRS4 it   7 1.00000000   0.106E+00       0.013     2224.081   0.100E-11
     TRS4 it   8 1.00000000   0.214E-02       0.013     2231.757   0.100E-11
     TRS4 it   9 1.00000000   0.115E-05       0.013     2217.524   0.100E-11
[...]
     TRS4 it   3 1.00000000   0.156E+02       0.013     2224.695   0.100E-11
     TRS4 it   4 1.00000000   0.928E+01       0.013     2217.564   0.100E-11
     TRS4 it   5 1.00000000   0.417E+01       0.013     2209.229   0.100E-11
     TRS4 it   6 1.00000000   0.130E+01       0.013     2213.199   0.100E-11
     TRS4 it   7 1.00000000   0.233E+00       0.013     2199.055   0.100E-11
     TRS4 it   8 1.00000000   0.110E-01       0.013     2230.021   0.100E-11
     TRS4 it   9 1.00000000   0.284E-04       0.013     2218.732   0.100E-11
     TRS4 it  10 1.00000000   0.332E-09       0.013     2201.899   0.100E-11
     TRS4 it  11 1.00000000   0.000E+00       0.013     2229.530   0.100E-11
     Final TRS4 iteration   11 1.00000000   0.000E+00
     Chemical potential (mu):       0.02527
 
 PAO| energy:  -190.67851325825995      penalty:   1.4744102465284078E-008
 PAO| Writing restart file.
     Est. extremal eigenvalues     -0.84054     2.58567  converged:  T
     TRS4 it   1 1.00000000   0.288E+02       0.007     2176.604   0.100E-11
     TRS4 it   2 1.00000000   0.237E+02       0.013     2210.009   0.100E-11
     TRS4 it   3 1.00000000   0.156E+02       0.013     2214.894   0.100E-11
     TRS4 it   4 1.00000000   0.928E+01       0.013     2216.698   0.100E-11
     TRS4 it   5 1.00000000   0.417E+01       0.013     2209.841   0.100E-11
     TRS4 it   6 1.00000000   0.130E+01       0.013     2201.131   0.100E-11
     TRS4 it   7 1.00000000   0.233E+00       0.013     2203.760   0.100E-11
     TRS4 it   8 1.00000000   0.110E-01       0.013     2226.834   0.100E-11
     TRS4 it   9 1.00000000   0.284E-04       0.013     2204.676   0.100E-11
     TRS4 it  10 1.00000000   0.332E-09       0.013     2224.280   0.100E-11
     TRS4 it  11 1.00000000   0.000E+00       0.013     2215.954   0.100E-11
     Final TRS4 iteration   11 1.00000000   0.000E+00
     Chemical potential (mu):       0.02527

 SCF     1     -1103.025131473     -1103.025131473    1.765803

*********************************************************
 Using MIXING_FRACTION=0.450 to mix KS matrix:  iscf=  2
 KS_nw=0.450*KS + 0.550*KS_old
*********************************************************
     Est. extremal eigenvalues     -0.84054     2.58567  converged:  T
     TRS4 it   1 1.00000000   0.288E+02       0.007     2151.849   0.100E-11
     TRS4 it   2 1.00000000   0.237E+02       0.013     2218.572   0.100E-11
     TRS4 it   3 1.00000000   0.156E+02       0.013     2215.863   0.100E-11
     TRS4 it   4 1.00000000   0.928E+01       0.013     2196.116   0.100E-11
     TRS4 it   5 1.00000000   0.417E+01       0.013     2207.359   0.100E-11
     TRS4 it   6 1.00000000   0.130E+01       0.013     2219.542   0.100E-11
     TRS4 it   7 1.00000000   0.233E+00       0.013     2225.328   0.100E-11
     TRS4 it   8 1.00000000   0.110E-01       0.013     2210.212   0.100E-11
     TRS4 it   9 1.00000000   0.284E-04       0.013     2218.710   0.100E-11
     TRS4 it  10 1.00000000   0.332E-09       0.013     2188.365   0.100E-11
     TRS4 it  11 1.00000000   0.160E-13       0.013     2218.784   0.100E-11
     Final TRS4 iteration   11 1.00000000   0.160E-13
     Chemical potential (mu):       0.02526

 SCF     2     -1103.025131474        -0.000000000    1.765045


 SCF run converged in     2 steps.

 PAO| Storing density matrix for ASPC guess in slot:           1

 ENERGY| Total FORCE_EVAL ( QS ) energy [a.u.]:            -1103.025131473583315

 -------------------------------------------------------------------------------
 -                                                                             -
 -                                DBCSR STATISTICS                             -
 -                                                                             -
 -------------------------------------------------------------------------------
 COUNTER                                    TOTAL       BLAS       SMM       ACC
 flops     5 x     5 x     4             23116800       0.0%    100.0%      0.0%     
 flops    13 x     5 x     4             29818880       0.0%    100.0%      0.0%     
 flops     5 x    13 x     4             29818880       0.0%    100.0%      0.0%     
 flops    13 x    13 x     4             39370240       0.0%    100.0%      0.0%     
 flops     4 x     4 x     5           6499860480       0.0%    100.0%      0.0%     
 flops     5 x     4 x     5           8041267200       0.0%    100.0%      0.0%     
 flops     4 x     4 x    13           8449818624       0.0%    100.0%      0.0%     
 flops    13 x     4 x     5          10453647360       0.0%    100.0%      0.0%     
 flops     5 x     4 x    13          10453647360       0.0%    100.0%      0.0%     
 flops    13 x     4 x    13          13589741568       0.0%    100.0%      0.0%     
 flops     5 x     4 x     4         408790622560       0.0%    100.0%      0.0%     
 flops    13 x     4 x     4         541960192384       0.0%    100.0%      0.0%     
 flops     4 x     4 x     4       29997523375616       0.0%    100.0%      0.0%     
 flops inhomo. stacks                           0       0.0%      0.0%      0.0%
 flops total                        31.005884E+12       0.0%    100.0%      0.0%
 flops max/rank                    978.894137E+09       0.0%    100.0%      0.0%
 matmuls inhomo. stacks                         0       0.0%      0.0%      0.0%
 matmuls total                       238365041527       0.0%    100.0%      0.0%
 number of processed stacks             243476318       0.0%    100.0%      0.0%
 average stack size                                     0.0     979.0       0.0
 marketing flops                    53.292516E+12
 -------------------------------------------------------------------------------
 # multiplications                          49961
 max memory usage/rank             616.984576E+06
 # max total images/rank                        2
 # max 3D layers                                1
 # MPI messages exchanged                20783776
 MPI messages size (bytes):
  total size                         2.477276E+12
  min size                           0.000000E+00
  max size                         541.696000E+03
  average size                     119.192766E+03
 MPI breakdown and total messages size (bytes):
             size <=      128              892617                     9600
       128 < size <=     8192              331263               1173792896
      8192 < size <=    32768               11055                216483840
     32768 < size <=   131072             8741965             645941886336
    131072 < size <=  4194304            10806876            1830334224896
   4194304 < size <= 16777216                   0                        0
  16777216 < size                               0                        0
 -------------------------------------------------------------------------------

 *** WARNING in dbcsr_mm.F:301 :: Using a non-square number of MPI ranks ***
 *** might lead to poor performance. Used ranks: 32 Suggested: 36 64     ***

 -------------------------------------------------------------------------------
 -                                                                             -
 -                      DBCSR MESSAGE PASSING PERFORMANCE                      -
 -                                                                             -
 -------------------------------------------------------------------------------
 ROUTINE             CALLS      AVE VOLUME [Bytes]
 MP_Bcast               14                     12.
 MP_Allreduce       300320                     37.
 MP_Alltoall        129139                  14623.
 MP_ISend          1671434                  55498.
 MP_IRecv          1635092                  56803.
 -------------------------------------------------------------------------------

 -------------------------------------------------------------------------------
 -                                                                             -
 -                                DBM STATISTICS                               -
 -                                                                             -
 -------------------------------------------------------------------------------
    M  x    N  x    K                                          COUNT     PERCENT
 -------------------------------------------------------------------------------

 -------------------------------------------------------------------------------
 -                                                                             -
 -                                GRID STATISTICS                              -
 -                                                                             -
 -------------------------------------------------------------------------------
 LP    KERNEL             BACKEND                              COUNT     PERCENT
 2     collocate ortho    CPU                               11472678      28.82%
 2     integrate ortho    CPU                               11472678      28.82%
 3     collocate ortho    CPU                                7377076      18.53%
 3     integrate ortho    CPU                                7377076      18.53%
 4     collocate ortho    CPU                                1048670       2.63%
 4     integrate ortho    CPU                                1048670       2.63%
 0     collocate general  CPU                                   6144       0.02%
 -------------------------------------------------------------------------------

 MEMORY| Estimated peak process memory [MiB]                                 589

 -------------------------------------------------------------------------------
 -                                                                             -
 -                         MESSAGE PASSING PERFORMANCE                         -
 -                                                                             -
 -------------------------------------------------------------------------------

 ROUTINE             CALLS      AVE VOLUME [Bytes]
 MP_Group                5
 MP_Bcast           363791                   1957.
 MP_Allreduce       904104                    514.
 MP_Sync                 5
 MP_Alltoall           369                 308208.
 MP_SendRecv          1302                  18832.
 MP_ISendRecv         1302                  18832.
 MP_Wait              3696
 MP_ISend             2166                 108220.
 MP_IRecv             2166                 108236.
 -------------------------------------------------------------------------------


 -------------------------------------------------------------------------------
 -                                                                             -
 -                           R E F E R E N C E S                               -
 -                                                                             -
 -------------------------------------------------------------------------------
 
 CP2K version 2024.3 (Development Version), the CP2K developers group (2024).
 CP2K is freely available from https://www.cp2k.org/ .
 
 T. D. Kuehne, M. Iannuzzi, M. Del Ben, V. V. Rybkin, P. Seewald, F. Stein, T. 
 Laino, R. Z. Khaliullin, O. Schuett, F. Schiffmann, D. Golze, J. Wilhelm, S. 
 Chulkov, M. H. Bani-Hashemian, V. Weber, U. Borstnik, M. Taillefumier, A. S. 
 Jakobovits, A. Lazzaro, H. Pabst, T. Mueller, R. Schade, M. Guidon, S. 
 Andermatt, N. Holmberg, G. K. Schenter, A. Hehn, A. Bussy, F. Belleflamme, G. 
 Tabacchi, A. Gloess, M. Lass, I. Bethune, C. J. Mundy, C. Plessl, M. Watkins, 
 J. VandeVondele, M. Krack, J. Hutter.
 J. Chem. Phys. 152, 194103 (2020).
 CP2K: An electronic structure and molecular dynamics software package - 
 Quickstep: Efficient and accurate electronic structure calculations.
 https://doi.org/10.1063/5.0007045

 O. Schuett, J. VandeVondele.
 J. Chem. Theory Comput. 14, 4168-4175 (2018).
 Machine Learning Adaptive Basis Sets for Efficient Large Scale Density 
 Functional Theory Simulation.
 https://doi.org/10.1021/acs.jctc.8b00378

 O. Schuett, P. Messmer, J. Hutter, J. VandeVondele.
 Electronic Structure Calculations on Graphics Processing Units, 173-190 (2016).
 GPU-Accelerated Sparse Matrix-Matrix Multiplication for Linear Scaling Density 
 Functional Theory.
 https://doi.org/10.1002/9781118670712.ch8

 A. Heinecke, G. Henry, M. Hutchinson, H. Pabst.
 Proceedings of Intl. Supercomputing Conference, 981-991 (2016).
 LIBXSMM: Accelerating Small Matrix Multiplications by Runtime Code Generation.
 https://doi.org/10.1109/SC.2016.83

 J. Hutter, M. Iannuzzi, F. Schiffmann, J. VandeVondele.
 WIREs Comput Mol Sci. 4, 15-25 (2014).
 CP2K: atomistic simulations of condensed matter systems.
 https://doi.org/10.1002/wcms.1159

 U. Borstnik, J. VandeVondele, V. Weber, J. Hutter.
 Parallel Comput. 40, 47-58 (2014).
 Sparse matrix multiplication: The distributed block-compressed sparse row 
 library.
 https://doi.org/10.1016/j.parco.2014.03.012

 A. Marek, V. Blum, R. Johanni, V. Havu, B. Lang, T. Auckenthaler, A. Heinecke, 
 H. Bungartz, H. Lederer.
 J. Phys. Condens. Matter 26, 213201 (2014).
 The ELPA library: scalable parallel eigenvalue solutions for electronic 
 structure theory and computational science.
 https://doi.org/10.1088/0953-8984/26/21/213201

 J. VandeVondele, U. Borstnik, J. Hutter.
 J. Chem. Theory Comput. 8, 3565-3573 (2012).
 Linear Scaling Self-Consistent Field Calculations with Millions of Atoms in the 
 Condensed Phase.
 https://doi.org/10.1021/ct200897x

 J. VandeVondele, J. Hutter.
 J. Chem. Phys. 127, 114105 (2007).
 Gaussian basis sets for accurate calculations on molecular systems in gas and 
 condensed phases.
 https://doi.org/10.1063/1.2770708

 J. VandeVondele, M. Krack, F. Mohamed, M. Parrinello, T. Chassaing, J. Hutter.
 Comput. Phys. Commun. 167, 103-128 (2005).
 QUICKSTEP: Fast and accurate density functional calculations using a mixed 
 Gaussian and plane waves approach.
 https://doi.org/10.1016/j.cpc.2004.12.014

 M. Krack.
 Theor. Chem. Acc. 114, 145-152 (2005).
 Pseudopotentials for H to Kr optimized for gradient-corrected 
 exchange-correlation functionals.
 https://doi.org/10.1007/s00214-005-0655-y

 M. Frigo, S. G. Johnson.
 Proc. IEEE 93, 216-231 (2005).
 The design and implementation of FFTW3.
 https://doi.org/10.1109/JPROC.2004.840301

 A. M. N. Niklasson, C. J. Tymczak, M. Challacombe.
 J. Chem. Phys. 118, 8611-8620 (2003).
 Trace resetting density matrix purification in O(N) self-consistent-field 
 theory.
 https://doi.org/10.1063/1.1559913

 C. Hartwigsen, S. Goedecker, J. Hutter.
 Phys. Rev. B 58, 3641-3662 (1998).
 Relativistic separable dual-space Gaussian pseudopotentials from H to Rn.
 https://doi.org/10.1103/PhysRevB.58.3641

 G. Lippert, J. Hutter, M. Parrinello.
 Mol. Phys. 92, 477-487 (1997).
 A hybrid Gaussian and plane wave density functional scheme.
 https://doi.org/10.1080/002689797170220

 S. Goedecker, M. Teter, J. Hutter.
 Phys. Rev. B 54, 1703-1710 (1996).
 Separable dual-space Gaussian pseudopotentials.
 https://doi.org/10.1103/PhysRevB.54.1703

 J. P. Perdew, K. Burke, M. Ernzerhof.
 Phys. Rev. Lett. 77, 3865-3868 (1996).
 Generalized gradient approximation made simple.
 https://doi.org/10.1103/PhysRevLett.77.3865


 -------------------------------------------------------------------------------
 -                                                                             -
 -                                T I M I N G                                  -
 -                                                                             -
 -------------------------------------------------------------------------------
 SUBROUTINE                       CALLS  ASD         SELF TIME        TOTAL TIME
                                MAXIMUM       AVERAGE  MAXIMUM  AVERAGE  MAXIMUM
 CP2K                                 1  1.0    0.013    0.016  441.925  441.927
 qs_energies                          1  2.0    0.000    0.000  441.758  441.760
 ls_scf                               1  3.0    0.000    0.000  440.576  440.578
 pao_update                           6  4.0    0.006    0.024  414.366  414.367
 pao_calc_energy                    817  5.0    0.003    0.019  371.460  371.465
 dbcsr_multiply_generic           49961  8.4    1.398    1.483  346.547  346.940
 multiply_cannon                  49961  9.4    2.597    3.012  277.959  283.295
 multiply_cannon_loop             49961 10.4    1.803    2.068  267.278  273.486
 ls_scf_init_matrix_S               823  7.0    0.009    0.010  206.753  206.849
 pao_rebuild_S                      817  6.0    0.002    0.003  205.234  205.329
 matrix_sqrt_Newton_Schulz          823  8.0    0.173    0.284  191.613  191.664
 multiply_cannon_multrec         399688 11.4  178.691  180.631  179.518  181.438
 pao_dm_trs4                        817  6.0    0.006    0.007  165.823  165.845
 density_matrix_trs4                830  7.0    0.212    0.357  159.797  159.888
 mp_waitall_1                   3199034 12.6   85.070   95.488   85.070   95.488
 multiply_cannon_metrocomm3      399688 11.4    0.687    0.791   67.022   74.237
 arnoldi_extremal                  1653  8.5    0.013    0.015   59.810   59.865
 arnoldi_normal_ev                 1653  9.5    0.036    0.062   59.794   59.849
 make_m2s                         99922  9.4    0.553    0.763   51.444   52.631
 build_subspace                    5868 10.6    0.358    0.390   52.566   52.603
 make_images                      99922 10.4    7.400    7.624   50.069   51.309
 dbcsr_matrix_vector_mult        179346 11.6    0.769    1.169   49.596   50.086
 dbcsr_matrix_vector_mult_local  179346 12.6   42.227   42.778   42.428   42.976
 pao_calc_AB                       1085  5.8    0.002    0.002   42.448   42.450
 pao_calc_AB_equi                  1085  6.8    0.040    0.100   42.446   42.448
 pao_calc_grad_lnv_wrt_AB           267  7.0    0.020    0.025   42.020   42.078
 make_images_data                 99922 11.4    0.877    1.112   21.960   24.155
 ls_scf_main                          6  4.0    0.000    0.001   22.976   22.977
 mp_sum_l                        204022  9.5    9.597   22.013    9.597   22.013
 hybrid_alltoall_any             101564 12.4    0.906    1.804   17.195   20.518
 ls_scf_dm_to_ks                     13  5.0    0.000    0.000   20.276   20.280
 matrix_qs_to_ls                   1653  7.5    0.016    0.022   17.057   17.240
 dbcsr_multiply_generic_mpsum_f   36588  9.5    0.026    0.032    5.988   16.208
 calculate_norms                 746032 11.4   11.556   12.352   11.556   12.352
 qs_ks_update_qs_env                 14  6.0    0.000    0.000   12.163   12.166
 rebuild_ks_matrix                   14  7.0    0.000    0.000   12.153   12.155
 qs_ks_build_kohn_sham_matrix        14  8.0    0.002    0.003   12.153   12.155
 make_images_pack                 99922 11.4   11.109   11.480   11.245   11.616
 qs_rho_update_rho_low               14  6.0    0.000    0.000    9.592    9.595
 calculate_rho_elec                  14  7.0    0.005    0.005    9.592    9.595
 sum_up_and_integrate                14  9.0    0.000    0.001    9.206    9.209
 integrate_v_rspace                  14 10.0    0.000    0.001    9.192    9.194
 -------------------------------------------------------------------------------

 The number of warnings for this run is : 1
 
 -------------------------------------------------------------------------------
  **** **** ******  **  PROGRAM ENDED AT                 2024-09-24 01:52:37.739
 ***** ** ***  *** **   PROGRAM RAN ON                                    moritz
 **    ****   ******    PROGRAM RAN BY                                       ole
 ***** **    ** ** **   PROGRAM PROCESS ID                                166335
  **** **  *******  **  PROGRAM STOPPED IN /home/ole/git/pao_ml_equivar/64H2O_MD
                                           /Frame2800
