6
Properties=species:S:1:pos:R:3 i=0 time=0.0 E=-34.4504806384 pbc="F F F"
O        4.76248405      -1.10962017       4.35000000
H        5.10975236      -0.47946644       3.71000000
H        3.80553264      -1.07041561       4.25600000
O        5.70830127      -3.86521499       3.63500000
H        6.19389441      -4.25945388       4.36500000
H        5.44269374      -2.98627378       3.94700000
