 DBCSR| CPU Multiplication driver                                           XSMM (U)
 DBCSR| Multrec recursion limit                                              512 (U)
 DBCSR| Multiplication stack size                                           1000 (D)
 DBCSR| Maximum elements for images                                    UNLIMITED (U)
 DBCSR| Multiplicative factor virtual images                                   1 (U)
 DBCSR| Use multiplication densification                                       T (D)
 DBCSR| Multiplication size stacks                                             3 (U)
 DBCSR| Use memory pool for CPU allocation                                     F (U)
 DBCSR| Number of 3D layers                                               SINGLE (U)
 DBCSR| Use MPI memory allocation                                              F (U)
 DBCSR| Use RMA algorithm                                                      F (U)
 DBCSR| Use Communication thread                                               T (U)
 DBCSR| Communication thread load                                             87 (D)
 DBCSR| MPI: My process id                                                     0
 DBCSR| MPI: Number of processes                                              32
 DBCSR| OMP: Current number of threads                                         1
 DBCSR| OMP: Max number of threads                                             1
 DBCSR| Split modifier for TAS multiplication algorithm                  1.0E+00 (U)


  **** **** ******  **  PROGRAM STARTED AT               2024-09-24 00:30:24.326
 ***** ** ***  *** **   PROGRAM STARTED ON                                moritz
 **    ****   ******    PROGRAM STARTED BY                                   ole
 ***** **    ** ** **   PROGRAM PROCESS ID                                165304
  **** **  *******  **  PROGRAM STARTED IN /home/ole/git/pao_ml_equivar/64H2O_MD
                                           /Frame1800

 CP2K| version string:                 CP2K version 2024.3 (Development Version)
 CP2K| source code revision number:                                  git:3f890bb
 CP2K| cp2kflags: omp libint fftw3 libxc libgrpp pexsi elpa parallel scalapack c
 CP2K|            osma quip deepmd xsmm plumed2 spglib libdftd4 sirius libvori l
 CP2K|            libbqb libvdwxc hdf5
 CP2K| is freely available from                            https://www.cp2k.org/
 CP2K| Program compiled at                          Mo 23 Sep 2024 17:17:04 CEST
 CP2K| Program compiled on                                                moritz
 CP2K| Program compiled for                                                local
 CP2K| Data directory path                               /home/ole/git/cp2k/data
 CP2K| Input file name                                           64H2O_pao44.inp

 GLOBAL| Force Environment number                                              1
 GLOBAL| Basis set file name                                        BASIS_MOLOPT
 GLOBAL| Potential file name                                      GTH_POTENTIALS
 GLOBAL| MM Potential file name                                     MM_POTENTIAL
 GLOBAL| Coordinate file name                                         coords.xyz
 GLOBAL| Method name                                                        CP2K
 GLOBAL| Project name                                                64H2O_pao44
 GLOBAL| Run type                                                         ENERGY
 GLOBAL| FFT library                                                       FFTW3
 GLOBAL| Diagonalization library                                            ELPA
 GLOBAL| DGEMM library                                                      BLAS
 GLOBAL| Minimum number of eigenvectors for ELPA usage                        16
 GLOBAL| Orthonormality check for eigenvectors                          DISABLED
 GLOBAL| Matrix multiplication library                                     COSMA
 GLOBAL| All-to-all communication in single precision                          F
 GLOBAL| FFTs using library dependent lengths                                  F
 GLOBAL| Grid backend                                                       AUTO
 GLOBAL| Global print level                                                  LOW
 GLOBAL| MPI I/O enabled                                                       T
 GLOBAL| Total number of message passing processes                            32
 GLOBAL| Number of threads for this process                                    1
 GLOBAL| This output is from process                                           0
 GLOBAL| Stack size for threads created by OpenMP (OMP_STACKSIZE)        default
 GLOBAL| CPU model name           AMD Ryzen Threadripper 3970X 32-Core Processor
 GLOBAL| CPUID                                                              1002

 MEMORY| system memory details [Kb]
 MEMORY|                        rank 0           min           max       average
 MEMORY| MemTotal            131752136     131752136     131752136     131752136
 MEMORY| MemFree             114295260     114295260     114295260     114295260
 MEMORY| Buffers               1994720       1994720       1994720       1994720
 MEMORY| Cached                8624444       8624444       8624444       8624444
 MEMORY| Slab                  1638180       1638180       1638180       1638180
 MEMORY| SReclaimable          1143788       1143788       1143788       1143788
 MEMORY| MemLikelyFree       126058212     126058212     126058212     126058212


 GENERATE|  Preliminary Number of Bonds generated:                             0
 GENERATE|  Achieved consistency in connectivity generation.

 *******************************************************************************
 *******************************************************************************
 **                                                                           **
 **     #####                         ##              ##                      **
 **    ##   ##            ##          ##              ##                      **
 **   ##     ##                       ##            ######                    **
 **   ##     ##  ##   ##  ##   #####  ##  ##   ####   ##    #####    #####    **
 **   ##     ##  ##   ##  ##  ##      ## ##   ##      ##   ##   ##  ##   ##   **
 **   ##  ## ##  ##   ##  ##  ##      ####     ###    ##   ######   ######    **
 **    ##  ###   ##   ##  ##  ##      ## ##      ##   ##   ##       ##        **
 **     #######   #####   ##   #####  ##  ##  ####    ##    #####   ##        **
 **           ##                                                    ##        **
 **                                                                           **
 **                                                ... make the atoms dance   **
 **                                                                           **
 **            Copyright (C) by CP2K developers group (2000-2024)             **
 **                      J. Chem. Phys. 152, 194103 (2020)                    **
 **                                                                           **
 *******************************************************************************


 TOTAL NUMBERS AND MAXIMUM NUMBERS

  Total number of            - Atomic kinds:                                   2
                             - Atoms:                                        192
                             - Shell sets:                                   192
                             - Shells:                                       704
                             - Primitive Cartesian functions:               1344
                             - Cartesian basis functions:                   1536
                             - Spherical basis functions:                   1472

  Maximum angular momentum of- Orbital basis functions:                        2
                             - Local part of the GTH pseudopotential:          2
                             - Non-local part of the GTH pseudopotential:      0

 ------------------------------ Linear scaling SCF -----------------------------
 eps_scf:                                                              0.100E-07
 eps_filter:                                                           0.100E-11
 mixing_fraction:                                                      0.450E+00
 max_scf:                                                                     25
 fixed chemical potential (mu)                                                 F
 has unit metric:                                                              F
 Computing inv(S):                                                             T
 Computing sqrt(S):                                                            T
 Computing S preconditioner                                                    F
 S sqrt method:                                                     NEWTONSCHULZ
 S sqrt order:                                                                 3
 Extrapolation order:                                                          1
 S preconditioner type                                                      NONE
 Polarized Atomic Orbitals (PAO)                                               T
 Purification method                                   Trace resetting 4th order
 Cluster type                                                             ATOMIC
 Computing Chebyshev                                                       FALSE
 Using PAO                                                                     T
 -------------------------------------------------------------------------------

 
 PAO|                                  EPS_PAO                           0.5E-06
 PAO|                                  MIXING                            0.5E+00
 PAO|                                  MAX_PAO                              1500
 PAO|                                  MAX_CYCLES                           1000
 PAO|                                  PARAMETERIZATION              EQUIVARIANT
 PAO|                                  PRECONDITION                            F
 PAO|                                  REGULARIZATION                    0.0E+00
 PAO|                                  EPS_PGF                           0.1E-09
 PAO|                                  PENALTY_DISTANCE                  0.1E+00
 PAO|                                  PENALTY_STRENGTH                  0.5E-02
 PAO|                                  LINPOT_PRECONDITION_DELTA         0.0E+00
 PAO|                                  LINPOT_INITGUESS_DELT             0.0E+00
 PAO|                                  LINPOT_REGULARIZATION_DELTA       0.0E+00
 PAO|                                  LINPOT_REGULARIZATION_STRENGTH    0.0E+00
 PAO|                                  OPTIMIZER                              CG
 PAO|                                  CG_INIT_STEPS                           2
 PAO|                                  CG_RESET_LIMIT                    0.1E+00
 PAO|                                  CHECK_UNITARY_TOL                -0.1E+01
 PAO|                                  CHECK_GRADIENT_TOL               -0.1E+01
 PAO|                                  NUM_GRADIENT_ORDER                      2
 PAO|                                  NUM_GRADIENT_EPS                  0.1E-07
 PAO|                                  PRINT%RESTART%WRITE_CYCLES            100
 PAO|                                  RESTART_FILE 
 PAO|                                  PREOPT_DM_FILE 64H2O_ref_LS_DM_SPIN_1_RESTART.dm
 PAO|                                  MACHINE_LEARNING%METHOD       GAUSSIAN_PR
 PAO|                                  MACHINE_LEARNING%PRIOR               ZERO
 PAO|                                  MACHINE_LEARNING%DESCRIPTOR     POTENTIAL
 PAO|                                  MACHINE_LEARNING%TOLERANCE        0.1E-01
 PAO|                                  MACHINE_LEARNING%GP_NOISE_VAR     0.1E+00
 PAO|                                  MACHINE_LEARNING%GP_SCALE         0.5E-01
 

 Calculating atomic Fock matrix for atomic kind: O

 Electronic structure
    Total number of core electrons                                          2.00
    Total number of valence electrons                                       6.00
    Total number of electrons                                               8.00
    Multiplicity                                                   not specified
    S   [  2.00] 2.00
    P      4.00


 *******************************************************************************
                  Iteration          Convergence                     Energy [au]
 *******************************************************************************
                          1        0.708315                     -15.576645311500
                          2        0.608879                     -15.587933561584
                          3        0.102828E-01                 -15.656849565404
                          4        0.113889E-02                 -15.656866888140
                          5        0.434197E-03                 -15.656867072159
                          6        0.263771E-03                 -15.656867091904
                          7        0.478536E-06                 -15.656867103452

 Energy components [Hartree]           Total Energy ::          -15.656867103452
                                        Band Energy ::           -3.000198112285
                                     Kinetic Energy ::           11.759971203220
                                   Potential Energy ::          -27.416838306672
                                      Virial (-V/T) ::            2.331369510426
                                        Core Energy ::          -26.140716385623
                                          XC Energy ::           -3.154051012914
                                     Coulomb Energy ::           13.637900295084
                       Total Pseudopotential Energy ::          -37.935781716540
                       Local Pseudopotential Energy ::          -39.218907440693
                    Nonlocal Pseudopotential Energy ::            1.283125724153
                                        Confinement ::            0.350941276976

 Orbital energies  State     L     Occupation   Energy[a.u.]          Energy[eV]

                       1     0          2.000      -0.864471          -23.523463

                       1     1          4.000      -0.317814           -8.648154


 Total Electron Density at R=0:                                         0.000068

 Calculating atomic Fock matrix for atomic kind: H

 Electronic structure
    Total number of core electrons                                          0.00
    Total number of valence electrons                                       1.00
    Total number of electrons                                               1.00
    Multiplicity                                                   not specified
    S      1.00


 *******************************************************************************
                  Iteration          Convergence                     Energy [au]
 *******************************************************************************
                          1        0.437545E-02                  -0.424159432110
                          2        0.531356E-03                  -0.424178438213
                          3        0.259176E-06                  -0.424178722480

 Energy components [Hartree]           Total Energy ::           -0.424178722480
                                        Band Energy ::           -0.199015229016
                                     Kinetic Energy ::            0.464007633961
                                   Potential Energy ::           -0.888186356441
                                      Virial (-V/T) ::            1.914163240935
                                        Core Energy ::           -0.479160803564
                                          XC Energy ::           -0.244352904054
                                     Coulomb Energy ::            0.299334985138
                       Total Pseudopotential Energy ::           -0.962295316385
                       Local Pseudopotential Energy ::           -0.962295316385
                    Nonlocal Pseudopotential Energy ::            0.000000000000
                                        Confinement ::            0.191268788606

 Orbital energies  State     L     Occupation   Energy[a.u.]          Energy[eV]

                       1     0          1.000      -0.199015           -5.415480


 Total Electron Density at R=0:                                         0.242907
 PAO| Made initial guess for matrix_X with norm:   27.712812921102035     

     Lanczos converged:  F threshold:   0.100E-02
     Est. extremal eigenvalues:    0.615E+01   0.960E-01
     Est. condition number :    0.640E+02

 Order=           3
     NS sqrt iter    1 1.00000000   0.150E+01       0.021     2713.870
     NS sqrt iter    2 1.00000000   0.815E+00       0.034     3363.580
     NS sqrt iter    3 1.00000000   0.328E+00       0.033     3383.011
     NS sqrt iter    4 1.00000000   0.912E-01       0.034     3366.761
     NS sqrt iter    5 1.00000000   0.320E-02       0.034     3367.757
     NS sqrt iter    6 1.00000000   0.249E-06       0.029     2911.623
     Symmetrizing Results
     Final NS sqrt iter    6 1.00000000   0.101E-12

 PAO| Read restart DM 64H2O_ref_LS_DM_SPIN_1_RESTART.dm with checksum:    6051.7596106672627     
 PAO| Quickstep energy from restart density:  -1103.1525222083260     
 PAO| ======================= Iteration:         1 =============================

     Lanczos converged:  F threshold:   0.100E-02
     Est. extremal eigenvalues:    0.615E+01   0.960E-01
     Est. condition number :    0.640E+02

 Order=           3
     NS sqrt iter    1 1.00000000   0.150E+01       0.021     2711.824
     NS sqrt iter    2 1.00000000   0.815E+00       0.034     3365.821
     NS sqrt iter    3 1.00000000   0.328E+00       0.034     3363.832
     NS sqrt iter    4 1.00000000   0.912E-01       0.034     3365.388
     NS sqrt iter    5 1.00000000   0.320E-02       0.034     3374.028
     NS sqrt iter    6 1.00000000   0.249E-06       0.029     2945.588
     Symmetrizing Results
     Final NS sqrt iter    6 1.00000000   0.101E-12

     Est. extremal eigenvalues     -0.82586     2.63537  converged:  T
     TRS4 it   1 1.00000000   0.275E+02       0.007     2101.013   0.100E-11
     TRS4 it   2 1.00000000   0.238E+02       0.013     2186.901   0.100E-11
     TRS4 it   3 1.00000000   0.161E+02       0.013     2189.385   0.100E-11
     TRS4 it   4 1.00000000   0.101E+02       0.013     2191.251   0.100E-11
     TRS4 it   5 1.00000000   0.492E+01       0.013     2199.860   0.100E-11
     TRS4 it   6 1.00000000   0.165E+01       0.013     2178.026   0.100E-11
     TRS4 it   7 1.00000000   0.331E+00       0.013     2183.253   0.100E-11
     TRS4 it   8 1.00000000   0.236E-01       0.013     2192.633   0.100E-11
     TRS4 it   9 1.00000000   0.190E-03       0.013     2187.241   0.100E-11
     TRS4 it  10 1.00000000   0.107E-07       0.013     2195.998   0.100E-11
     TRS4 it  11 1.00000000   0.160E-13       0.013     2191.639   0.100E-11
     Final TRS4 iteration   11 1.00000000   0.160E-13
     Chemical potential (mu):       0.00681
 
 PAO| energy:  -186.57713168149292      penalty:   1.4082399753359465E-031
 PAO|CG| warming up with steepest descent
 PAO|CG| beta:    0.0000000000000000     
 PAO| norm of gradient:   4.0017095438046226     
 PAO|LS| adapt:  T F F
 PAO|LS| adapt: scan_steps:    0.0000000000000000        0.0000000000000000        0.0000000000000000     
 PAO|LS| adapt: energies:   -186.57713168149292        0.0000000000000000        0.0000000000000000     
 PAO| ======================= Iteration:         2 =============================

     Lanczos converged:  F threshold:   0.100E-02
     Est. extremal eigenvalues:    0.593E+01   0.100E+00
     Est. condition number :    0.590E+02

 Order=           3
     NS sqrt iter    1 1.00000000   0.146E+01       0.021     2728.399
     NS sqrt iter    2 1.00000000   0.785E+00       0.033     3384.696
     NS sqrt iter    3 1.00000000   0.307E+00       0.034     3365.494
     NS sqrt iter    4 1.00000000   0.764E-01       0.034     3367.240
     NS sqrt iter    5 1.00000000   0.197E-02       0.034     3364.650
     NS sqrt iter    6 1.00000000   0.687E-07       0.029     2929.580
     Symmetrizing Results
     Final NS sqrt iter    6 1.00000000   0.113E-13

     Est. extremal eigenvalues     -0.82914     2.62905  converged:  T
     TRS4 it   1 1.00000000   0.277E+02       0.007     2134.924   0.100E-11
     TRS4 it   2 1.00000000   0.237E+02       0.013     2179.569   0.100E-11
     TRS4 it   3 1.00000000   0.160E+02       0.013     2189.540   0.100E-11
     TRS4 it   4 1.00000000   0.991E+01       0.013     2184.441   0.100E-11
     TRS4 it   5 1.00000000   0.470E+01       0.013     2181.014   0.100E-11
     TRS4 it   6 1.00000000   0.152E+01       0.013     2188.279   0.100E-11
     TRS4 it   7 1.00000000   0.284E+00       0.013     2220.799   0.100E-11
     TRS4 it   8 1.00000000   0.168E-01       0.013     2162.120   0.100E-11
     TRS4 it   9 1.00000000   0.870E-04       0.013     2210.903   0.100E-11
     TRS4 it  10 1.00000000   0.259E-08       0.013     2205.238   0.100E-11
     TRS4 it  11 1.00000000   0.195E-13       0.013     2201.640   0.100E-11
     Final TRS4 iteration   11 1.00000000   0.195E-13
     Chemical potential (mu):       0.01251
 
 PAO| energy:  -188.04661195363397      penalty:   4.7934763699982542E-007
 PAO|LS| adapt:  T T F
 PAO|LS| adapt: scan_steps:    0.0000000000000000       0.10000000000000001        0.0000000000000000     
 PAO|LS| adapt: energies:   -186.57713168149292       -188.04661195363397        0.0000000000000000     
 PAO| ======================= Iteration:         3 =============================

     Lanczos converged:  F threshold:   0.100E-02
     Est. extremal eigenvalues:    0.571E+01   0.106E+00
     Est. condition number :    0.540E+02

 Order=           3
     NS sqrt iter    1 1.00000000   0.141E+01       0.021     2716.054
     NS sqrt iter    2 1.00000000   0.756E+00       0.034     3367.393
     NS sqrt iter    3 1.00000000   0.287E+00       0.033     3380.516
     NS sqrt iter    4 1.00000000   0.638E-01       0.033     3392.229
     NS sqrt iter    5 1.00000000   0.123E-02       0.034     3374.921
     NS sqrt iter    6 1.00000000   0.204E-07       0.029     2917.158
     Symmetrizing Results
     Final NS sqrt iter    6 1.00000000   0.301E-14

     Est. extremal eigenvalues     -0.83220     2.62553  converged:  T
     TRS4 it   1 1.00000000   0.279E+02       0.007     2133.506   0.100E-11
     TRS4 it   2 1.00000000   0.237E+02       0.013     2218.442   0.100E-11
     TRS4 it   3 1.00000000   0.159E+02       0.013     2215.996   0.100E-11
     TRS4 it   4 1.00000000   0.972E+01       0.013     2184.426   0.100E-11
     TRS4 it   5 1.00000000   0.449E+01       0.013     2208.371   0.100E-11
     TRS4 it   6 1.00000000   0.139E+01       0.013     2201.558   0.100E-11
     TRS4 it   7 1.00000000   0.241E+00       0.013     2179.843   0.100E-11
     TRS4 it   8 1.00000000   0.117E-01       0.013     2180.977   0.100E-11
     TRS4 it   9 1.00000000   0.368E-04       0.013     2195.802   0.100E-11
     TRS4 it  10 1.00000000   0.541E-09       0.013     2199.991   0.100E-11
     TRS4 it  11 1.00000000   0.178E-13       0.013     2186.905   0.100E-11
     Final TRS4 iteration   11 1.00000000   0.178E-13
     Chemical potential (mu):       0.01902
 
 PAO| energy:  -189.23554779532685      penalty:   7.6695621920470038E-006
 PAO|LS| adapt:  T T F
 PAO|LS| adapt: scan_steps:    0.0000000000000000       0.20000000000000001        0.0000000000000000     
 PAO|LS| adapt: energies:   -186.57713168149292       -189.23554779532685        0.0000000000000000     
 PAO| ======================= Iteration:         4 =============================

     Lanczos converged:  T threshold:   0.100E-02
     Est. extremal eigenvalues:    0.531E+01   0.115E+00
     Est. condition number :    0.462E+02

 Order=           3
     NS sqrt iter    1 1.00000000   0.133E+01       0.021     2710.182
     NS sqrt iter    2 1.00000000   0.701E+00       0.033     3389.435
     NS sqrt iter    3 1.00000000   0.250E+00       0.034     3369.900
     NS sqrt iter    4 1.00000000   0.447E-01       0.033     3385.472
     NS sqrt iter    5 1.00000000   0.505E-03       0.034     3374.509
     NS sqrt iter    6 1.00000000   0.192E-08       0.029     2876.934
     Symmetrizing Results
     Final NS sqrt iter    6 1.00000000   0.159E-13

     Est. extremal eigenvalues     -0.83712     2.62449  converged:  T
     TRS4 it   1 1.00000000   0.283E+02       0.007     2112.155   0.100E-11
     TRS4 it   2 1.00000000   0.237E+02       0.013     2178.837   0.100E-11
     TRS4 it   3 1.00000000   0.157E+02       0.013     2186.035   0.100E-11
     TRS4 it   4 1.00000000   0.938E+01       0.013     2179.097   0.100E-11
     TRS4 it   5 1.00000000   0.412E+01       0.013     2201.877   0.100E-11
     TRS4 it   6 1.00000000   0.117E+01       0.013     2203.065   0.100E-11
     TRS4 it   7 1.00000000   0.171E+00       0.013     2181.444   0.100E-11
     TRS4 it   8 1.00000000   0.540E-02       0.013     2193.323   0.100E-11
     TRS4 it   9 1.00000000   0.610E-05       0.013     2193.512   0.100E-11
     TRS4 it  10 1.00000000   0.163E-10       0.013     2203.080   0.100E-11
     Final TRS4 iteration   10 1.00000000   0.163E-10
     Chemical potential (mu):       0.03844
 
 PAO| energy:  -190.72834611654960      penalty:   1.2271299507314744E-004
 PAO|LS| Need extra step
 PAO|LS| adapt:  T T F
 PAO|LS| adapt: scan_steps:    0.0000000000000000       0.40000000000000002        0.0000000000000000     
 PAO|LS| adapt: energies:   -186.57713168149292       -190.72834611654960        0.0000000000000000     
 PAO| ======================= Iteration:         5 =============================

     Lanczos converged:  T threshold:   0.100E-02
     Est. extremal eigenvalues:    0.466E+01   0.130E+00
     Est. condition number :    0.359E+02

 Order=           3
     NS sqrt iter    1 1.00000000   0.121E+01       0.021     2702.330
     NS sqrt iter    2 1.00000000   0.612E+00       0.033     3380.875
     NS sqrt iter    3 1.00000000   0.193E+00       0.034     3374.325
     NS sqrt iter    4 1.00000000   0.233E-01       0.034     3368.896
     NS sqrt iter    5 1.00000000   0.966E-04       0.033     3382.896
     NS sqrt iter    6 1.00000000   0.203E-10       0.018     2198.827
     Symmetrizing Results
     Final NS sqrt iter    6 1.00000000   0.206E-11

     Est. extremal eigenvalues     -0.83980     2.62606  converged:  T
     TRS4 it   1 1.00000000   0.289E+02       0.007     2146.699   0.100E-11
     TRS4 it   2 1.00000000   0.237E+02       0.013     2189.875   0.100E-11
     TRS4 it   3 1.00000000   0.155E+02       0.013     2185.239   0.100E-11
     TRS4 it   4 1.00000000   0.889E+01       0.013     2186.587   0.100E-11
     TRS4 it   5 1.00000000   0.359E+01       0.013     2180.155   0.100E-11
     TRS4 it   6 1.00000000   0.870E+00       0.013     2198.504   0.100E-11
     TRS4 it   7 1.00000000   0.933E-01       0.013     2184.307   0.100E-11
     TRS4 it   8 1.00000000   0.146E-02       0.013     2190.222   0.100E-11
     TRS4 it   9 1.00000000   0.422E-06       0.013     2199.988   0.100E-11
     TRS4 it  10 1.00000000   0.941E-13       0.013     2211.403   0.100E-11
     Final TRS4 iteration   10 1.00000000   0.941E-13
     Chemical potential (mu):       0.06099
 
 PAO| energy:  -190.30068191030918      penalty:   1.9634079211735393E-003
 PAO|LS| Need extra step
 PAO|LS| adapt:  T T T
 PAO|LS| adapt: scan_steps:    0.0000000000000000       0.40000000000000002       0.80000000000000004     
 PAO|LS| adapt: energies:   -186.57713168149292       -190.72834611654960       -190.30068191030918     
 PAO|LS| adapt: suggested step_size:   0.56264026721448368     
 PAO|LS| adapt: predicted energy  -191.10684561917537     
 PAO| ======================= Iteration:         6 =============================

     Lanczos converged:  T threshold:   0.100E-02
     Est. extremal eigenvalues:    0.501E+01   0.121E+00
     Est. condition number :    0.413E+02

 Order=           3
     NS sqrt iter    1 1.00000000   0.128E+01       0.021     2743.439
     NS sqrt iter    2 1.00000000   0.661E+00       0.033     3388.539
     NS sqrt iter    3 1.00000000   0.223E+00       0.034     3370.371
     NS sqrt iter    4 1.00000000   0.338E-01       0.034     3354.461
     NS sqrt iter    5 1.00000000   0.252E-03       0.034     3371.392
     NS sqrt iter    6 1.00000000   0.290E-09       0.028     2684.198
     Symmetrizing Results
     Final NS sqrt iter    6 1.00000000   0.515E-12

     Est. extremal eigenvalues     -0.83949     2.62568  converged:  T
     TRS4 it   1 1.00000000   0.286E+02       0.007     2140.238   0.100E-11
     TRS4 it   2 1.00000000   0.237E+02       0.013     2217.216   0.100E-11
     TRS4 it   3 1.00000000   0.156E+02       0.013     2183.995   0.100E-11
     TRS4 it   4 1.00000000   0.916E+01       0.013     2205.918   0.100E-11
     TRS4 it   5 1.00000000   0.388E+01       0.013     2208.025   0.100E-11
     TRS4 it   6 1.00000000   0.103E+01       0.013     2188.499   0.100E-11
     TRS4 it   7 1.00000000   0.131E+00       0.013     2220.160   0.100E-11
     TRS4 it   8 1.00000000   0.298E-02       0.013     2201.284   0.100E-11
     TRS4 it   9 1.00000000   0.170E-05       0.013     2206.801   0.100E-11
     TRS4 it  10 1.00000000   0.126E-11       0.013     2172.493   0.100E-11
     Final TRS4 iteration   10 1.00000000   0.126E-11
     Chemical potential (mu):       0.04889
 
 PAO| energy:  -191.08055075807476      penalty:   4.8036773958408055E-004
 PAO|CG| warming up with steepest descent
 PAO|CG| beta:    0.0000000000000000     
 PAO| norm of gradient:   2.1248687873434915     
 PAO| energy improvement:  -4.5034190765818494     
 PAO| step      6                 -191.080550758  0.415E-02  0.563E+00     2.449
 PAO|LS| adapt:  T F F
 PAO|LS| adapt: scan_steps:    0.0000000000000000        0.0000000000000000        0.0000000000000000     
 PAO|LS| adapt: energies:   -191.08055075807476        0.0000000000000000        0.0000000000000000     
 PAO| ======================= Iteration:         7 =============================

     Lanczos converged:  F threshold:   0.100E-02
     Est. extremal eigenvalues:    0.485E+01   0.129E+00
     Est. condition number :    0.375E+02

 Order=           3
     NS sqrt iter    1 1.00000000   0.125E+01       0.021     2681.268
     NS sqrt iter    2 1.00000000   0.635E+00       0.034     3360.332
     NS sqrt iter    3 1.00000000   0.206E+00       0.034     3372.675
     NS sqrt iter    4 1.00000000   0.271E-01       0.033     3386.727
     NS sqrt iter    5 1.00000000   0.138E-03       0.034     3376.267
     NS sqrt iter    6 1.00000000   0.517E-10       0.022     2367.990
     Symmetrizing Results
     Final NS sqrt iter    6 1.00000000   0.213E-11

     Est. extremal eigenvalues     -0.84033     2.60952  converged:  T
     TRS4 it   1 1.00000000   0.286E+02       0.007     2157.128   0.100E-11
     TRS4 it   2 1.00000000   0.237E+02       0.013     2202.659   0.100E-11
     TRS4 it   3 1.00000000   0.157E+02       0.013     2179.329   0.100E-11
     TRS4 it   4 1.00000000   0.929E+01       0.013     2196.495   0.100E-11
     TRS4 it   5 1.00000000   0.398E+01       0.013     2173.036   0.100E-11
     TRS4 it   6 1.00000000   0.105E+01       0.013     2191.622   0.100E-11
     TRS4 it   7 1.00000000   0.133E+00       0.013     2196.515   0.100E-11
     TRS4 it   8 1.00000000   0.303E-02       0.013     2176.873   0.100E-11
     TRS4 it   9 1.00000000   0.183E-05       0.013     2185.135   0.100E-11
     TRS4 it  10 1.00000000   0.162E-11       0.013     2193.877   0.100E-11
     Final TRS4 iteration   10 1.00000000   0.162E-11
     Chemical potential (mu):       0.05136
 
 PAO| energy:  -190.17553716776021      penalty:   6.8464768177672235E-004
 PAO|LS| adapt:  T F T
 PAO|LS| adapt: scan_steps:    0.0000000000000000        0.0000000000000000       0.56264026721448368     
 PAO|LS| adapt: energies:   -191.08055075807476        0.0000000000000000       -190.17553716776021     
 PAO| ======================= Iteration:         8 =============================

     Lanczos converged:  T threshold:   0.100E-02
     Est. extremal eigenvalues:    0.493E+01   0.125E+00
     Est. condition number :    0.394E+02

 Order=           3
     NS sqrt iter    1 1.00000000   0.126E+01       0.021     2704.508
     NS sqrt iter    2 1.00000000   0.648E+00       0.034     3372.007
     NS sqrt iter    3 1.00000000   0.215E+00       0.034     3368.034
     NS sqrt iter    4 1.00000000   0.304E-01       0.034     3353.340
     NS sqrt iter    5 1.00000000   0.188E-03       0.034     3377.261
     NS sqrt iter    6 1.00000000   0.125E-09       0.026     2531.852
     Symmetrizing Results
     Final NS sqrt iter    6 1.00000000   0.142E-11

     Est. extremal eigenvalues     -0.84143     2.61777  converged:  T
     TRS4 it   1 1.00000000   0.286E+02       0.007     2125.513   0.100E-11
     TRS4 it   2 1.00000000   0.237E+02       0.013     2195.931   0.100E-11
     TRS4 it   3 1.00000000   0.156E+02       0.013     2202.409   0.100E-11
     TRS4 it   4 1.00000000   0.920E+01       0.013     2210.479   0.100E-11
     TRS4 it   5 1.00000000   0.390E+01       0.013     2193.882   0.100E-11
     TRS4 it   6 1.00000000   0.103E+01       0.013     2183.668   0.100E-11
     TRS4 it   7 1.00000000   0.131E+00       0.013     2233.535   0.100E-11
     TRS4 it   8 1.00000000   0.299E-02       0.013     2181.586   0.100E-11
     TRS4 it   9 1.00000000   0.174E-05       0.013     2203.857   0.100E-11
     TRS4 it  10 1.00000000   0.129E-11       0.013     2189.455   0.100E-11
     Final TRS4 iteration   10 1.00000000   0.129E-11
     Chemical potential (mu):       0.04888
 
 PAO| energy:  -191.47611250321688      penalty:   5.1115748397576510E-004
 PAO|LS| adapt:  T T T
 PAO|LS| adapt: scan_steps:    0.0000000000000000       0.28132013360724184       0.56264026721448368     
 PAO|LS| adapt: energies:   -191.08055075807476       -191.47611250321688       -190.17553716776021     
 PAO|LS| adapt: suggested step_size:   0.20626766672355734     
 PAO|LS| adapt: predicted energy  -191.53647389794307     
 PAO| ======================= Iteration:         9 =============================

     Lanczos converged:  T threshold:   0.100E-02
     Est. extremal eigenvalues:    0.495E+01   0.124E+00
     Est. condition number :    0.399E+02

 Order=           3
     NS sqrt iter    1 1.00000000   0.126E+01       0.021     2706.925
     NS sqrt iter    2 1.00000000   0.651E+00       0.033     3386.409
     NS sqrt iter    3 1.00000000   0.217E+00       0.033     3392.120
     NS sqrt iter    4 1.00000000   0.313E-01       0.034     3369.140
     NS sqrt iter    5 1.00000000   0.203E-03       0.034     3360.956
     NS sqrt iter    6 1.00000000   0.157E-09       0.027     2588.377
     Symmetrizing Results
     Final NS sqrt iter    6 1.00000000   0.115E-11

     Est. extremal eigenvalues     -0.84123     2.61990  converged:  T
     TRS4 it   1 1.00000000   0.286E+02       0.007     2102.745   0.100E-11
     TRS4 it   2 1.00000000   0.237E+02       0.013     2186.954   0.100E-11
     TRS4 it   3 1.00000000   0.156E+02       0.013     2178.301   0.100E-11
     TRS4 it   4 1.00000000   0.918E+01       0.013     2196.322   0.100E-11
     TRS4 it   5 1.00000000   0.389E+01       0.013     2195.302   0.100E-11
     TRS4 it   6 1.00000000   0.103E+01       0.013     2187.365   0.100E-11
     TRS4 it   7 1.00000000   0.131E+00       0.013     2203.038   0.100E-11
     TRS4 it   8 1.00000000   0.299E-02       0.013     2197.046   0.100E-11
     TRS4 it   9 1.00000000   0.173E-05       0.013     2194.138   0.100E-11
     TRS4 it  10 1.00000000   0.123E-11       0.013     2207.225   0.100E-11
     Final TRS4 iteration   10 1.00000000   0.123E-11
     Chemical potential (mu):       0.04865
 
 PAO| energy:  -191.54063897935347      penalty:   4.9356159785367390E-004
 PAO|CG| trace_G_new   0.73761800496549645     
 PAO|CG| trace_G_prev    4.5150673634266001     
 PAO|CG| trace_G_mix   -4.2907149835699133E-002
 PAO|CG| trace_D    4.5150673634266001     
 PAO|CG| trace_D_Gnew   4.2907149835699133E-002
 PAO|CG| beta:   0.17287120921465832     
 PAO| norm of gradient:  0.85884690426495480     
 PAO| energy improvement: -0.46008822127870985     
 PAO| step      9                 -191.540638979  0.168E-02  0.206E+00     1.502
 PAO|LS| adapt:  T F F
 PAO|LS| adapt: scan_steps:    0.0000000000000000        0.0000000000000000        0.0000000000000000     
 PAO|LS| adapt: energies:   -191.54063897935347        0.0000000000000000        0.0000000000000000     
 PAO| ======================= Iteration:        10 =============================

     Lanczos converged:  T threshold:   0.100E-02
     Est. extremal eigenvalues:    0.490E+01   0.128E+00
     Est. condition number :    0.384E+02

 Order=           3
     NS sqrt iter    1 1.00000000   0.125E+01       0.021     2693.546
     NS sqrt iter    2 1.00000000   0.643E+00       0.034     3367.638
     NS sqrt iter    3 1.00000000   0.211E+00       0.034     3371.569
     NS sqrt iter    4 1.00000000   0.290E-01       0.034     3369.400
     NS sqrt iter    5 1.00000000   0.162E-03       0.034     3361.689
     NS sqrt iter    6 1.00000000   0.788E-10       0.024     2440.406
     Symmetrizing Results
     Final NS sqrt iter    6 1.00000000   0.193E-11

     Est. extremal eigenvalues     -0.84188     2.60356  converged:  T
     TRS4 it   1 1.00000000   0.286E+02       0.007     2119.580   0.100E-11
     TRS4 it   2 1.00000000   0.236E+02       0.013     2193.188   0.100E-11
     TRS4 it   3 1.00000000   0.156E+02       0.013     2203.346   0.100E-11
     TRS4 it   4 1.00000000   0.916E+01       0.013     2214.694   0.100E-11
     TRS4 it   5 1.00000000   0.387E+01       0.013     2216.103   0.100E-11
     TRS4 it   6 1.00000000   0.102E+01       0.013     2196.024   0.100E-11
     TRS4 it   7 1.00000000   0.127E+00       0.013     2194.282   0.100E-11
     TRS4 it   8 1.00000000   0.281E-02       0.013     2203.869   0.100E-11
     TRS4 it   9 1.00000000   0.154E-05       0.013     2192.696   0.100E-11
     TRS4 it  10 1.00000000   0.972E-12       0.013     2201.240   0.100E-11
     Final TRS4 iteration   10 1.00000000   0.972E-12
     Chemical potential (mu):       0.04952
 
 PAO| energy:  -191.64276671255632      penalty:   4.9642089662802619E-004
 PAO|LS| adapt:  T T F
 PAO|LS| adapt: scan_steps:    0.0000000000000000       0.20626766672355734        0.0000000000000000     
 PAO|LS| adapt: energies:   -191.54063897935347       -191.64276671255632        0.0000000000000000     
 PAO| ======================= Iteration:        11 =============================

     Lanczos converged:  T threshold:   0.100E-02
     Est. extremal eigenvalues:    0.485E+01   0.131E+00
     Est. condition number :    0.369E+02

 Order=           3
     NS sqrt iter    1 1.00000000   0.124E+01       0.021     2692.131
     NS sqrt iter    2 1.00000000   0.634E+00       0.034     3362.374
     NS sqrt iter    3 1.00000000   0.205E+00       0.034     3378.425
     NS sqrt iter    4 1.00000000   0.268E-01       0.034     3371.980
     NS sqrt iter    5 1.00000000   0.129E-03       0.034     3373.725
     NS sqrt iter    6 1.00000000   0.390E-10       0.021     2258.325
     Symmetrizing Results
     Final NS sqrt iter    6 1.00000000   0.221E-11

     Est. extremal eigenvalues     -0.84209     2.58705  converged:  T
     TRS4 it   1 1.00000000   0.285E+02       0.007     2138.405   0.100E-11
     TRS4 it   2 1.00000000   0.235E+02       0.013     2191.254   0.100E-11
     TRS4 it   3 1.00000000   0.156E+02       0.013     2208.575   0.100E-11
     TRS4 it   4 1.00000000   0.913E+01       0.013     2186.040   0.100E-11
     TRS4 it   5 1.00000000   0.384E+01       0.013     2176.730   0.100E-11
     TRS4 it   6 1.00000000   0.100E+01       0.013     2189.221   0.100E-11
     TRS4 it   7 1.00000000   0.123E+00       0.013     2190.037   0.100E-11
     TRS4 it   8 1.00000000   0.263E-02       0.013     2180.120   0.100E-11
     TRS4 it   9 1.00000000   0.135E-05       0.013     2226.562   0.100E-11
     TRS4 it  10 1.00000000   0.799E-12       0.013     2196.422   0.100E-11
     Final TRS4 iteration   10 1.00000000   0.799E-12
     Chemical potential (mu):       0.05046
 
 PAO| energy:  -191.65055502309687      penalty:   5.0941881452373577E-004
 PAO|LS| adapt:  T T F
 PAO|LS| adapt: scan_steps:    0.0000000000000000       0.41253533344711468        0.0000000000000000     
 PAO|LS| adapt: energies:   -191.54063897935347       -191.65055502309687        0.0000000000000000     
 PAO| ======================= Iteration:        12 =============================

     Lanczos converged:  F threshold:   0.100E-02
     Est. extremal eigenvalues:    0.475E+01   0.139E+00
     Est. condition number :    0.342E+02

 Order=           3
     NS sqrt iter    1 1.00000000   0.123E+01       0.021     2678.744
     NS sqrt iter    2 1.00000000   0.618E+00       0.034     3339.512
     NS sqrt iter    3 1.00000000   0.195E+00       0.034     3353.509
     NS sqrt iter    4 1.00000000   0.230E-01       0.034     3366.024
     NS sqrt iter    5 1.00000000   0.806E-04       0.034     3374.679
     NS sqrt iter    6 1.00000000   0.903E-11       0.015     2155.826
     Symmetrizing Results
     Final NS sqrt iter    6 1.00000000   0.152E-11

     Est. extremal eigenvalues     -0.84129     2.55415  converged:  T
     TRS4 it   1 1.00000000   0.285E+02       0.007     2126.469   0.100E-11
     TRS4 it   2 1.00000000   0.233E+02       0.013     2185.504   0.100E-11
     TRS4 it   3 1.00000000   0.155E+02       0.013     2199.112   0.100E-11
     TRS4 it   4 1.00000000   0.906E+01       0.013     2217.415   0.100E-11
     TRS4 it   5 1.00000000   0.378E+01       0.013     2188.279   0.100E-11
     TRS4 it   6 1.00000000   0.964E+00       0.013     2183.449   0.100E-11
     TRS4 it   7 1.00000000   0.114E+00       0.013     2186.340   0.100E-11
     TRS4 it   8 1.00000000   0.224E-02       0.013     2166.008   0.100E-11
     TRS4 it   9 1.00000000   0.100E-05       0.013     2187.258   0.100E-11
     TRS4 it  10 1.00000000   0.464E-12       0.013     2192.953   0.100E-11
     Final TRS4 iteration   10 1.00000000   0.464E-12
     Chemical potential (mu):       0.05252
 
 PAO| energy:  -191.39968861878904      penalty:   5.7313962462688653E-004
 PAO|LS| Need extra step
 PAO|LS| adapt:  T T T
 PAO|LS| adapt: scan_steps:    0.0000000000000000       0.41253533344711468       0.82507066689422937     
 PAO|LS| adapt: energies:   -191.54063897935347       -191.65055502309687       -191.39968861878904     
 PAO|LS| adapt: suggested step_size:   0.33195075358600812     
 PAO|LS| adapt: predicted energy  -191.65743832779009     
 PAO| ======================= Iteration:        13 =============================

     Lanczos converged:  T threshold:   0.100E-02
     Est. extremal eigenvalues:    0.487E+01   0.130E+00
     Est. condition number :    0.375E+02

 Order=           3
     NS sqrt iter    1 1.00000000   0.125E+01       0.021     2714.286
     NS sqrt iter    2 1.00000000   0.637E+00       0.034     3378.903
     NS sqrt iter    3 1.00000000   0.208E+00       0.034     3355.466
     NS sqrt iter    4 1.00000000   0.276E-01       0.034     3360.278
     NS sqrt iter    5 1.00000000   0.141E-03       0.034     3367.716
     NS sqrt iter    6 1.00000000   0.514E-10       0.022     2342.369
     Symmetrizing Results
     Final NS sqrt iter    6 1.00000000   0.218E-11

     Est. extremal eigenvalues     -0.84206     2.59351  converged:  T
     TRS4 it   1 1.00000000   0.286E+02       0.007     2140.315   0.100E-11
     TRS4 it   2 1.00000000   0.236E+02       0.013     2184.302   0.100E-11
     TRS4 it   3 1.00000000   0.156E+02       0.013     2190.327   0.100E-11
     TRS4 it   4 1.00000000   0.914E+01       0.013     2212.256   0.100E-11
     TRS4 it   5 1.00000000   0.385E+01       0.013     2171.707   0.100E-11
     TRS4 it   6 1.00000000   0.101E+01       0.013     2198.057   0.100E-11
     TRS4 it   7 1.00000000   0.125E+00       0.013     2222.997   0.100E-11
     TRS4 it   8 1.00000000   0.270E-02       0.013     2183.452   0.100E-11
     TRS4 it   9 1.00000000   0.142E-05       0.013     2198.071   0.100E-11
     TRS4 it  10 1.00000000   0.904E-12       0.013     2166.289   0.100E-11
     Final TRS4 iteration   10 1.00000000   0.904E-12
     Chemical potential (mu):       0.05008
 
 PAO| energy:  -191.65848235305839      penalty:   5.0304980561314411E-004
 PAO|CG| trace_G_new   0.27966777002115867     
 PAO|CG| trace_G_prev   0.73761800496549645     
 PAO|CG| trace_G_mix   -1.2479383468619798E-002
 PAO|CG| trace_D   0.85771351054633371     
 PAO|CG| trace_D_Gnew   1.1883799214963697E-002
 PAO|CG| beta:   0.39606835994119238     
 PAO| norm of gradient:  0.52883624121381723     
 PAO| energy improvement: -0.11784337370491471     
 PAO| step     13                 -191.658482353  0.103E-02  0.332E+00     1.933
 PAO|LS| adapt:  T F F
 PAO|LS| adapt: scan_steps:    0.0000000000000000        0.0000000000000000        0.0000000000000000     
 PAO|LS| adapt: energies:   -191.65848235305839        0.0000000000000000        0.0000000000000000     
 PAO| ======================= Iteration:        14 =============================

     Lanczos converged:  T threshold:   0.100E-02
     Est. extremal eigenvalues:    0.480E+01   0.133E+00
     Est. condition number :    0.362E+02

 Order=           3
     NS sqrt iter    1 1.00000000   0.123E+01       0.021     2737.667
     NS sqrt iter    2 1.00000000   0.627E+00       0.033     3387.795
     NS sqrt iter    3 1.00000000   0.201E+00       0.034     3370.109
     NS sqrt iter    4 1.00000000   0.255E-01       0.034     3360.464
     NS sqrt iter    5 1.00000000   0.112E-03       0.034     3347.225
     NS sqrt iter    6 1.00000000   0.262E-10       0.019     2217.213
     Symmetrizing Results
     Final NS sqrt iter    6 1.00000000   0.216E-11

     Est. extremal eigenvalues     -0.84264     2.59000  converged:  T
     TRS4 it   1 1.00000000   0.286E+02       0.007     2151.070   0.100E-11
     TRS4 it   2 1.00000000   0.235E+02       0.013     2193.578   0.100E-11
     TRS4 it   3 1.00000000   0.156E+02       0.013     2179.613   0.100E-11
     TRS4 it   4 1.00000000   0.909E+01       0.013     2215.347   0.100E-11
     TRS4 it   5 1.00000000   0.380E+01       0.013     2180.987   0.100E-11
     TRS4 it   6 1.00000000   0.977E+00       0.013     2174.831   0.100E-11
     TRS4 it   7 1.00000000   0.118E+00       0.013     2180.638   0.100E-11
     TRS4 it   8 1.00000000   0.239E-02       0.013     2220.610   0.100E-11
     TRS4 it   9 1.00000000   0.112E-05       0.013     2182.186   0.100E-11
     TRS4 it  10 1.00000000   0.556E-12       0.013     2191.659   0.100E-11
     Final TRS4 iteration   10 1.00000000   0.556E-12
     Chemical potential (mu):       0.05198
 
 PAO| energy:  -191.71095188547218      penalty:   5.0574630677465912E-004
 PAO|LS| adapt:  T T F
 PAO|LS| adapt: scan_steps:    0.0000000000000000       0.33195075358600812        0.0000000000000000     
 PAO|LS| adapt: energies:   -191.65848235305839       -191.71095188547218        0.0000000000000000     
 PAO| ======================= Iteration:        15 =============================

     Lanczos converged:  T threshold:   0.100E-02
     Est. extremal eigenvalues:    0.473E+01   0.135E+00
     Est. condition number :    0.350E+02

 Order=           3
     NS sqrt iter    1 1.00000000   0.122E+01       0.021     2721.060
     NS sqrt iter    2 1.00000000   0.616E+00       0.033     3381.921
     NS sqrt iter    3 1.00000000   0.195E+00       0.034     3362.953
     NS sqrt iter    4 1.00000000   0.235E-01       0.034     3369.366
     NS sqrt iter    5 1.00000000   0.896E-04       0.034     3376.006
     NS sqrt iter    6 1.00000000   0.134E-10       0.016     2162.343
     Symmetrizing Results
     Final NS sqrt iter    6 1.00000000   0.180E-11

     Est. extremal eigenvalues     -0.84274     2.58618  converged:  T
     TRS4 it   1 1.00000000   0.287E+02       0.007     2136.071   0.100E-11
     TRS4 it   2 1.00000000   0.235E+02       0.013     2177.128   0.100E-11
     TRS4 it   3 1.00000000   0.155E+02       0.013     2189.364   0.100E-11
     TRS4 it   4 1.00000000   0.903E+01       0.013     2180.613   0.100E-11
     TRS4 it   5 1.00000000   0.374E+01       0.013     2178.398   0.100E-11
     TRS4 it   6 1.00000000   0.947E+00       0.013     2174.556   0.100E-11
     TRS4 it   7 1.00000000   0.111E+00       0.013     2201.829   0.100E-11
     TRS4 it   8 1.00000000   0.211E-02       0.013     2182.061   0.100E-11
     TRS4 it   9 1.00000000   0.879E-06       0.013     2168.892   0.100E-11
     TRS4 it  10 1.00000000   0.352E-12       0.013     2200.743   0.100E-11
     Final TRS4 iteration   10 1.00000000   0.352E-12
     Chemical potential (mu):       0.05376
 
 PAO| energy:  -191.68701754182703      penalty:   5.2399891018997365E-004
 PAO|LS| adapt:  T T T
 PAO|LS| adapt: scan_steps:    0.0000000000000000       0.33195075358600812       0.66390150717201624     
 PAO|LS| adapt: energies:   -191.65848235305839       -191.71095188547218       -191.68701754182703     
 PAO|LS| adapt: suggested step_size:   0.39393895303391324     
 PAO|LS| adapt: predicted energy  -191.71228404465060     
 PAO| ======================= Iteration:        16 =============================

     Lanczos converged:  T threshold:   0.100E-02
     Est. extremal eigenvalues:    0.478E+01   0.133E+00
     Est. condition number :    0.359E+02

 Order=           3
     NS sqrt iter    1 1.00000000   0.123E+01       0.021     2718.553
     NS sqrt iter    2 1.00000000   0.625E+00       0.034     3358.027
     NS sqrt iter    3 1.00000000   0.200E+00       0.034     3378.831
     NS sqrt iter    4 1.00000000   0.251E-01       0.033     3389.805
     NS sqrt iter    5 1.00000000   0.107E-03       0.033     3386.557
     NS sqrt iter    6 1.00000000   0.231E-10       0.018     2195.637
     Symmetrizing Results
     Final NS sqrt iter    6 1.00000000   0.213E-11

     Est. extremal eigenvalues     -0.84270     2.58931  converged:  T
     TRS4 it   1 1.00000000   0.286E+02       0.007     2144.622   0.100E-11
     TRS4 it   2 1.00000000   0.235E+02       0.013     2216.037   0.100E-11
     TRS4 it   3 1.00000000   0.156E+02       0.013     2221.931   0.100E-11
     TRS4 it   4 1.00000000   0.908E+01       0.013     2184.002   0.100E-11
     TRS4 it   5 1.00000000   0.379E+01       0.013     2188.667   0.100E-11
     TRS4 it   6 1.00000000   0.971E+00       0.013     2186.586   0.100E-11
     TRS4 it   7 1.00000000   0.116E+00       0.013     2198.224   0.100E-11
     TRS4 it   8 1.00000000   0.233E-02       0.013     2194.380   0.100E-11
     TRS4 it   9 1.00000000   0.107E-05       0.013     2191.556   0.100E-11
     TRS4 it  10 1.00000000   0.496E-12       0.013     2174.246   0.100E-11
     Final TRS4 iteration   10 1.00000000   0.496E-12
     Chemical potential (mu):       0.05232
 
 PAO| energy:  -191.71222888830329      penalty:   5.0792496203186691E-004
 PAO|CG| trace_G_new   0.10349993035251774     
 PAO|CG| trace_G_prev   0.27966777002115867     
 PAO|CG| trace_G_mix    4.4545233766448648E-003
 PAO|CG| trace_D   0.40480381969942714     
 PAO|CG| trace_D_Gnew   8.2774735642958928E-004
 PAO|CG| beta:   0.35415381246247807     
 PAO| norm of gradient:  0.32171405059853658     
 PAO| energy improvement:  -5.3746535244897586E-002
 PAO| step     16                 -191.712228888  0.628E-03  0.394E+00     1.480
 PAO|LS| adapt:  T F F
 PAO|LS| adapt: scan_steps:    0.0000000000000000        0.0000000000000000        0.0000000000000000     
 PAO|LS| adapt: energies:   -191.71222888830329        0.0000000000000000        0.0000000000000000     
 PAO| ======================= Iteration:        17 =============================

     Lanczos converged:  T threshold:   0.100E-02
     Est. extremal eigenvalues:    0.475E+01   0.134E+00
     Est. condition number :    0.354E+02

 Order=           3
     NS sqrt iter    1 1.00000000   0.122E+01       0.021     2685.321
     NS sqrt iter    2 1.00000000   0.620E+00       0.034     3379.899
     NS sqrt iter    3 1.00000000   0.198E+00       0.034     3370.150
     NS sqrt iter    4 1.00000000   0.243E-01       0.034     3335.960
     NS sqrt iter    5 1.00000000   0.982E-04       0.034     3369.435
     NS sqrt iter    6 1.00000000   0.176E-10       0.017     2183.460
     Symmetrizing Results
     Final NS sqrt iter    6 1.00000000   0.197E-11

     Est. extremal eigenvalues     -0.84277     2.58669  converged:  T
     TRS4 it   1 1.00000000   0.286E+02       0.007     2145.310   0.100E-11
     TRS4 it   2 1.00000000   0.235E+02       0.013     2184.721   0.100E-11
     TRS4 it   3 1.00000000   0.155E+02       0.013     2189.263   0.100E-11
     TRS4 it   4 1.00000000   0.903E+01       0.013     2176.907   0.100E-11
     TRS4 it   5 1.00000000   0.375E+01       0.013     2205.554   0.100E-11
     TRS4 it   6 1.00000000   0.951E+00       0.013     2207.705   0.100E-11
     TRS4 it   7 1.00000000   0.112E+00       0.013     2191.094   0.100E-11
     TRS4 it   8 1.00000000   0.215E-02       0.013     2186.935   0.100E-11
     TRS4 it   9 1.00000000   0.913E-06       0.013     2225.681   0.100E-11
     TRS4 it  10 1.00000000   0.343E-12       0.013     2200.583   0.100E-11
     Final TRS4 iteration   10 1.00000000   0.343E-12
     Chemical potential (mu):       0.05341
 
 PAO| energy:  -191.71622117534187      penalty:   5.0073772968299275E-004
 PAO|LS| adapt:  T T F
 PAO|LS| adapt: scan_steps:    0.0000000000000000       0.39393895303391324        0.0000000000000000     
 PAO|LS| adapt: energies:   -191.71222888830329       -191.71622117534187        0.0000000000000000     
 PAO| ======================= Iteration:        18 =============================

     Lanczos converged:  T threshold:   0.100E-02
     Est. extremal eigenvalues:    0.471E+01   0.135E+00
     Est. condition number :    0.349E+02

 Order=           3
     NS sqrt iter    1 1.00000000   0.121E+01       0.021     2682.999
     NS sqrt iter    2 1.00000000   0.616E+00       0.033     3396.307
     NS sqrt iter    3 1.00000000   0.195E+00       0.034     3375.918
     NS sqrt iter    4 1.00000000   0.236E-01       0.034     3360.849
     NS sqrt iter    5 1.00000000   0.899E-04       0.034     3356.427
     NS sqrt iter    6 1.00000000   0.135E-10       0.016     2161.595
     Symmetrizing Results
     Final NS sqrt iter    6 1.00000000   0.183E-11

     Est. extremal eigenvalues     -0.84272     2.58390  converged:  T
     TRS4 it   1 1.00000000   0.287E+02       0.007     2139.331   0.100E-11
     TRS4 it   2 1.00000000   0.235E+02       0.013     2218.834   0.100E-11
     TRS4 it   3 1.00000000   0.155E+02       0.013     2214.552   0.100E-11
     TRS4 it   4 1.00000000   0.899E+01       0.013     2191.593   0.100E-11
     TRS4 it   5 1.00000000   0.371E+01       0.013     2194.104   0.100E-11
     TRS4 it   6 1.00000000   0.932E+00       0.013     2203.676   0.100E-11
     TRS4 it   7 1.00000000   0.108E+00       0.013     2207.806   0.100E-11
     TRS4 it   8 1.00000000   0.199E-02       0.013     2196.578   0.100E-11
     TRS4 it   9 1.00000000   0.784E-06       0.013     2196.858   0.100E-11
     TRS4 it  10 1.00000000   0.304E-12       0.013     2177.563   0.100E-11
     Final TRS4 iteration   10 1.00000000   0.304E-12
     Chemical potential (mu):       0.05457
 
 PAO| energy:  -191.64670765669908      penalty:   5.0099525149805129E-004
 PAO|LS| adapt:  T T T
 PAO|LS| adapt: scan_steps:    0.0000000000000000       0.39393895303391324       0.78787790606782648     
 PAO|LS| adapt: energies:   -191.71222888830329       -191.71622117534187       -191.64670765669908     
 PAO|LS| adapt: suggested step_size:   0.21836530180738684     
 PAO|LS| adapt: predicted energy  -191.72352167315822     
 PAO| ======================= Iteration:        19 =============================

     Lanczos converged:  T threshold:   0.100E-02
     Est. extremal eigenvalues:    0.476E+01   0.134E+00
     Est. condition number :    0.356E+02

 Order=           3
     NS sqrt iter    1 1.00000000   0.123E+01       0.021     2709.988
     NS sqrt iter    2 1.00000000   0.622E+00       0.033     3399.484
     NS sqrt iter    3 1.00000000   0.199E+00       0.034     3367.566
     NS sqrt iter    4 1.00000000   0.246E-01       0.034     3356.413
     NS sqrt iter    5 1.00000000   0.102E-03       0.034     3370.565
     NS sqrt iter    6 1.00000000   0.199E-10       0.017     2176.575
     Symmetrizing Results
     Final NS sqrt iter    6 1.00000000   0.207E-11

     Est. extremal eigenvalues     -0.84275     2.58788  converged:  T
     TRS4 it   1 1.00000000   0.286E+02       0.007     2077.247   0.100E-11
     TRS4 it   2 1.00000000   0.235E+02       0.013     2214.745   0.100E-11
     TRS4 it   3 1.00000000   0.156E+02       0.013     2188.354   0.100E-11
     TRS4 it   4 1.00000000   0.905E+01       0.013     2194.865   0.100E-11
     TRS4 it   5 1.00000000   0.377E+01       0.013     2189.044   0.100E-11
     TRS4 it   6 1.00000000   0.960E+00       0.013     2212.667   0.100E-11
     TRS4 it   7 1.00000000   0.114E+00       0.013     2194.206   0.100E-11
     TRS4 it   8 1.00000000   0.223E-02       0.013     2196.131   0.100E-11
     TRS4 it   9 1.00000000   0.979E-06       0.013     2210.900   0.100E-11
     TRS4 it  10 1.00000000   0.476E-12       0.013     2199.177   0.100E-11
     Final TRS4 iteration   10 1.00000000   0.476E-12
     Chemical potential (mu):       0.05292
 
 PAO| energy:  -191.72350760260090      penalty:   5.0303758128702862E-004
 PAO|CG| trace_G_new    2.1136710442642391E-002
 PAO|CG| trace_G_prev   0.10349993035251774     
 PAO|CG| trace_G_mix   -3.0732554513562788E-004
 PAO|CG| trace_D   0.15368611845646868     
 PAO|CG| trace_D_Gnew  -4.7972413137547658E-005
 PAO|CG| beta:   0.20718889292717646     
 PAO| norm of gradient:  0.14538469810348814     
 PAO| energy improvement:  -1.1278714297617398E-002
 PAO| step     19                 -191.723507603  0.284E-03  0.218E+00     1.478
 PAO|LS| adapt:  T F F
 PAO|LS| adapt: scan_steps:    0.0000000000000000        0.0000000000000000        0.0000000000000000     
 PAO|LS| adapt: energies:   -191.72350760260090        0.0000000000000000        0.0000000000000000     
 PAO| ======================= Iteration:        20 =============================

     Lanczos converged:  T threshold:   0.100E-02
     Est. extremal eigenvalues:    0.476E+01   0.134E+00
     Est. condition number :    0.356E+02

 Order=           3
     NS sqrt iter    1 1.00000000   0.122E+01       0.021     2706.059
     NS sqrt iter    2 1.00000000   0.622E+00       0.034     3369.608
     NS sqrt iter    3 1.00000000   0.199E+00       0.034     3371.041
     NS sqrt iter    4 1.00000000   0.246E-01       0.034     3372.842
     NS sqrt iter    5 1.00000000   0.102E-03       0.033     3381.127
     NS sqrt iter    6 1.00000000   0.196E-10       0.017     2179.828
     Symmetrizing Results
     Final NS sqrt iter    6 1.00000000   0.207E-11

     Est. extremal eigenvalues     -0.84276     2.58648  converged:  T
     TRS4 it   1 1.00000000   0.286E+02       0.007     2131.256   0.100E-11
     TRS4 it   2 1.00000000   0.235E+02       0.013     2197.854   0.100E-11
     TRS4 it   3 1.00000000   0.155E+02       0.013     2186.330   0.100E-11
     TRS4 it   4 1.00000000   0.904E+01       0.013     2203.882   0.100E-11
     TRS4 it   5 1.00000000   0.376E+01       0.013     2180.875   0.100E-11
     TRS4 it   6 1.00000000   0.956E+00       0.013     2181.666   0.100E-11
     TRS4 it   7 1.00000000   0.113E+00       0.013     2221.885   0.100E-11
     TRS4 it   8 1.00000000   0.220E-02       0.013     2209.736   0.100E-11
     TRS4 it   9 1.00000000   0.949E-06       0.013     2211.757   0.100E-11
     TRS4 it  10 1.00000000   0.403E-12       0.013     2206.767   0.100E-11
     Final TRS4 iteration   10 1.00000000   0.403E-12
     Chemical potential (mu):       0.05311
 
 PAO| energy:  -191.72723190411506      penalty:   4.9349001975427088E-004
 PAO|LS| adapt:  T T F
 PAO|LS| adapt: scan_steps:    0.0000000000000000       0.21836530180738684        0.0000000000000000     
 PAO|LS| adapt: energies:   -191.72350760260090       -191.72723190411506        0.0000000000000000     
 PAO| ======================= Iteration:        21 =============================

     Lanczos converged:  T threshold:   0.100E-02
     Est. extremal eigenvalues:    0.476E+01   0.134E+00
     Est. condition number :    0.356E+02

 Order=           3
     NS sqrt iter    1 1.00000000   0.122E+01       0.021     2718.016
     NS sqrt iter    2 1.00000000   0.621E+00       0.033     3385.009
     NS sqrt iter    3 1.00000000   0.199E+00       0.033     3392.530
     NS sqrt iter    4 1.00000000   0.246E-01       0.034     3370.212
     NS sqrt iter    5 1.00000000   0.102E-03       0.034     3362.192
     NS sqrt iter    6 1.00000000   0.194E-10       0.017     2178.146
     Symmetrizing Results
     Final NS sqrt iter    6 1.00000000   0.207E-11

     Est. extremal eigenvalues     -0.84277     2.58507  converged:  T
     TRS4 it   1 1.00000000   0.286E+02       0.007     2111.457   0.100E-11
     TRS4 it   2 1.00000000   0.235E+02       0.013     2177.311   0.100E-11
     TRS4 it   3 1.00000000   0.155E+02       0.013     2190.763   0.100E-11
     TRS4 it   4 1.00000000   0.903E+01       0.013     2220.534   0.100E-11
     TRS4 it   5 1.00000000   0.375E+01       0.013     2190.942   0.100E-11
     TRS4 it   6 1.00000000   0.952E+00       0.013     2212.603   0.100E-11
     TRS4 it   7 1.00000000   0.112E+00       0.013     2189.988   0.100E-11
     TRS4 it   8 1.00000000   0.216E-02       0.013     2177.211   0.100E-11
     TRS4 it   9 1.00000000   0.921E-06       0.013     2186.376   0.100E-11
     TRS4 it  10 1.00000000   0.355E-12       0.013     2192.824   0.100E-11
     Final TRS4 iteration   10 1.00000000   0.355E-12
     Chemical potential (mu):       0.05330
 
 PAO| energy:  -191.72915639551331      penalty:   4.8435182955013903E-004
 PAO|LS| adapt:  T T F
 PAO|LS| adapt: scan_steps:    0.0000000000000000       0.43673060361477367        0.0000000000000000     
 PAO|LS| adapt: energies:   -191.72350760260090       -191.72915639551331        0.0000000000000000     
 PAO| ======================= Iteration:        22 =============================

     Lanczos converged:  T threshold:   0.100E-02
     Est. extremal eigenvalues:    0.475E+01   0.134E+00
     Est. condition number :    0.355E+02

 Order=           3
     NS sqrt iter    1 1.00000000   0.122E+01       0.021     2716.140
     NS sqrt iter    2 1.00000000   0.621E+00       0.034     3345.043
     NS sqrt iter    3 1.00000000   0.199E+00       0.033     3388.616
     NS sqrt iter    4 1.00000000   0.247E-01       0.033     3389.759
     NS sqrt iter    5 1.00000000   0.101E-03       0.034     3366.029
     NS sqrt iter    6 1.00000000   0.190E-10       0.017     2187.474
     Symmetrizing Results
     Final NS sqrt iter    6 1.00000000   0.207E-11

     Est. extremal eigenvalues     -0.84277     2.58220  converged:  T
     TRS4 it   1 1.00000000   0.286E+02       0.007     2149.906   0.100E-11
     TRS4 it   2 1.00000000   0.235E+02       0.013     2198.766   0.100E-11
     TRS4 it   3 1.00000000   0.155E+02       0.013     2209.908   0.100E-11
     TRS4 it   4 1.00000000   0.901E+01       0.013     2181.537   0.100E-11
     TRS4 it   5 1.00000000   0.373E+01       0.013     2209.456   0.100E-11
     TRS4 it   6 1.00000000   0.944E+00       0.013     2183.154   0.100E-11
     TRS4 it   7 1.00000000   0.111E+00       0.013     2192.527   0.100E-11
     TRS4 it   8 1.00000000   0.210E-02       0.013     2196.919   0.100E-11
     TRS4 it   9 1.00000000   0.865E-06       0.013     2204.107   0.100E-11
     TRS4 it  10 1.00000000   0.304E-12       0.013     2214.037   0.100E-11
     Final TRS4 iteration   10 1.00000000   0.304E-12
     Chemical potential (mu):       0.05369
 
 PAO| energy:  -191.72752724412351      penalty:   4.6727815928102062E-004
 PAO|LS| Need extra step
 PAO|LS| adapt:  T T T
 PAO|LS| adapt: scan_steps:    0.0000000000000000       0.43673060361477367       0.87346120722954734     
 PAO|LS| adapt: energies:   -191.72350760260090       -191.72915639551331       -191.72752724412351     
 PAO|LS| adapt: suggested step_size:   0.55733474645953618     
 PAO|LS| adapt: predicted energy  -191.72943390378521     
 PAO| ======================= Iteration:        23 =============================

     Lanczos converged:  T threshold:   0.100E-02
     Est. extremal eigenvalues:    0.475E+01   0.134E+00
     Est. condition number :    0.356E+02

 Order=           3
     NS sqrt iter    1 1.00000000   0.122E+01       0.021     2674.877
     NS sqrt iter    2 1.00000000   0.621E+00       0.034     3351.852
     NS sqrt iter    3 1.00000000   0.199E+00       0.034     3348.253
     NS sqrt iter    4 1.00000000   0.246E-01       0.034     3292.243
     NS sqrt iter    5 1.00000000   0.102E-03       0.033     3388.251
     NS sqrt iter    6 1.00000000   0.193E-10       0.017     2186.571
     Symmetrizing Results
     Final NS sqrt iter    6 1.00000000   0.206E-11

     Est. extremal eigenvalues     -0.84277     2.58428  converged:  T
     TRS4 it   1 1.00000000   0.286E+02       0.007     2138.443   0.100E-11
     TRS4 it   2 1.00000000   0.235E+02       0.013     2190.133   0.100E-11
     TRS4 it   3 1.00000000   0.155E+02       0.013     2177.187   0.100E-11
     TRS4 it   4 1.00000000   0.902E+01       0.013     2169.534   0.100E-11
     TRS4 it   5 1.00000000   0.374E+01       0.013     2216.948   0.100E-11
     TRS4 it   6 1.00000000   0.950E+00       0.013     2189.449   0.100E-11
     TRS4 it   7 1.00000000   0.112E+00       0.013     2211.845   0.100E-11
     TRS4 it   8 1.00000000   0.214E-02       0.013     2217.227   0.100E-11
     TRS4 it   9 1.00000000   0.905E-06       0.013     2197.190   0.100E-11
     TRS4 it  10 1.00000000   0.346E-12       0.013     2197.385   0.100E-11
     Final TRS4 iteration   10 1.00000000   0.346E-12
     Chemical potential (mu):       0.05341
 
 PAO| energy:  -191.72944061400105      penalty:   4.7947774656894248E-004
 PAO|CG| trace_G_new    1.5216572818442870E-002
 PAO|CG| trace_G_prev    2.1136710442642391E-002
 PAO|CG| trace_G_mix    1.1016989192405067E-004
 PAO|CG| trace_D    2.7753909629728624E-002
 PAO|CG| trace_D_Gnew  -4.6503844841285213E-005
 PAO|CG| beta:   0.71469980948607359     
 PAO| norm of gradient:  0.12335547340285663     
 PAO| energy improvement:  -5.9330114001454604E-003
 PAO| step     23                 -191.729440614  0.241E-03  0.557E+00     1.918
 PAO|LS| adapt:  T F F
 PAO|LS| adapt: scan_steps:    0.0000000000000000        0.0000000000000000        0.0000000000000000     
 PAO|LS| adapt: energies:   -191.72944061400105        0.0000000000000000        0.0000000000000000     
 PAO| ======================= Iteration:        24 =============================

     Lanczos converged:  T threshold:   0.100E-02
     Est. extremal eigenvalues:    0.474E+01   0.133E+00
     Est. condition number :    0.355E+02

 Order=           3
     NS sqrt iter    1 1.00000000   0.122E+01       0.021     2703.080
     NS sqrt iter    2 1.00000000   0.620E+00       0.034     3358.564
     NS sqrt iter    3 1.00000000   0.198E+00       0.033     3392.025
     NS sqrt iter    4 1.00000000   0.246E-01       0.034     3350.637
     NS sqrt iter    5 1.00000000   0.102E-03       0.034     3366.682
     NS sqrt iter    6 1.00000000   0.191E-10       0.017     2150.773
     Symmetrizing Results
     Final NS sqrt iter    6 1.00000000   0.208E-11

     Est. extremal eigenvalues     -0.84277     2.58087  converged:  T
     TRS4 it   1 1.00000000   0.286E+02       0.007     2146.815   0.100E-11
     TRS4 it   2 1.00000000   0.235E+02       0.013     2223.808   0.100E-11
     TRS4 it   3 1.00000000   0.155E+02       0.013     2207.659   0.100E-11
     TRS4 it   4 1.00000000   0.900E+01       0.013     2192.424   0.100E-11
     TRS4 it   5 1.00000000   0.372E+01       0.013     2194.185   0.100E-11
     TRS4 it   6 1.00000000   0.941E+00       0.013     2197.652   0.100E-11
     TRS4 it   7 1.00000000   0.110E+00       0.013     2193.681   0.100E-11
     TRS4 it   8 1.00000000   0.207E-02       0.013     2186.035   0.100E-11
     TRS4 it   9 1.00000000   0.850E-06       0.013     2185.529   0.100E-11
     TRS4 it  10 1.00000000   0.320E-12       0.013     2188.361   0.100E-11
     Final TRS4 iteration   10 1.00000000   0.320E-12
     Chemical potential (mu):       0.05379
 
 PAO| energy:  -191.73256244970142      penalty:   4.4357021736770794E-004
 PAO|LS| adapt:  T T F
 PAO|LS| adapt: scan_steps:    0.0000000000000000       0.55733474645953618        0.0000000000000000     
 PAO|LS| adapt: energies:   -191.72944061400105       -191.73256244970142        0.0000000000000000     
 PAO| ======================= Iteration:        25 =============================

     Lanczos converged:  T threshold:   0.100E-02
     Est. extremal eigenvalues:    0.473E+01   0.133E+00
     Est. condition number :    0.355E+02

 Order=           3
     NS sqrt iter    1 1.00000000   0.122E+01       0.021     2681.085
     NS sqrt iter    2 1.00000000   0.619E+00       0.033     3389.153
     NS sqrt iter    3 1.00000000   0.198E+00       0.034     3346.709
     NS sqrt iter    4 1.00000000   0.246E-01       0.034     3375.315
     NS sqrt iter    5 1.00000000   0.102E-03       0.034     3352.581
     NS sqrt iter    6 1.00000000   0.191E-10       0.017     2186.749
     Symmetrizing Results
     Final NS sqrt iter    6 1.00000000   0.206E-11

     Est. extremal eigenvalues     -0.84275     2.57729  converged:  T
     TRS4 it   1 1.00000000   0.286E+02       0.007     2116.884   0.100E-11
     TRS4 it   2 1.00000000   0.234E+02       0.013     2224.705   0.100E-11
     TRS4 it   3 1.00000000   0.155E+02       0.013     2171.779   0.100E-11
     TRS4 it   4 1.00000000   0.898E+01       0.013     2209.842   0.100E-11
     TRS4 it   5 1.00000000   0.370E+01       0.013     2206.146   0.100E-11
     TRS4 it   6 1.00000000   0.932E+00       0.013     2198.575   0.100E-11
     TRS4 it   7 1.00000000   0.108E+00       0.013     2194.290   0.100E-11
     TRS4 it   8 1.00000000   0.201E-02       0.013     2171.154   0.100E-11
     TRS4 it   9 1.00000000   0.798E-06       0.013     2187.954   0.100E-11
     TRS4 it  10 1.00000000   0.277E-12       0.013     2211.656   0.100E-11
     Final TRS4 iteration   10 1.00000000   0.277E-12
     Chemical potential (mu):       0.05418
 
 PAO| energy:  -191.72475167121857      penalty:   4.1116861339779372E-004
 PAO|LS| adapt:  T T T
 PAO|LS| adapt: scan_steps:    0.0000000000000000       0.55733474645953618        1.1146694929190724     
 PAO|LS| adapt: energies:   -191.72944061400105       -191.73256244970142       -191.72475167121857     
 PAO|LS| adapt: suggested step_size:   0.43781572323964235     
 PAO|LS| adapt: predicted energy  -191.73281383267405     
 PAO| ======================= Iteration:        26 =============================

     Lanczos converged:  T threshold:   0.100E-02
     Est. extremal eigenvalues:    0.474E+01   0.134E+00
     Est. condition number :    0.355E+02

 Order=           3
     NS sqrt iter    1 1.00000000   0.122E+01       0.021     2694.394
     NS sqrt iter    2 1.00000000   0.620E+00       0.033     3384.891
     NS sqrt iter    3 1.00000000   0.198E+00       0.034     3372.656
     NS sqrt iter    4 1.00000000   0.246E-01       0.033     3386.113
     NS sqrt iter    5 1.00000000   0.102E-03       0.033     3394.267
     NS sqrt iter    6 1.00000000   0.192E-10       0.017     2171.362
     Symmetrizing Results
     Final NS sqrt iter    6 1.00000000   0.208E-11

     Est. extremal eigenvalues     -0.84278     2.58162  converged:  T
     TRS4 it   1 1.00000000   0.286E+02       0.007     2146.621   0.100E-11
     TRS4 it   2 1.00000000   0.235E+02       0.013     2215.564   0.100E-11
     TRS4 it   3 1.00000000   0.155E+02       0.013     2199.161   0.100E-11
     TRS4 it   4 1.00000000   0.901E+01       0.013     2156.117   0.100E-11
     TRS4 it   5 1.00000000   0.372E+01       0.013     2167.896   0.100E-11
     TRS4 it   6 1.00000000   0.943E+00       0.013     2198.978   0.100E-11
     TRS4 it   7 1.00000000   0.110E+00       0.013     2193.948   0.100E-11
     TRS4 it   8 1.00000000   0.209E-02       0.013     2179.753   0.100E-11
     TRS4 it   9 1.00000000   0.861E-06       0.013     2196.877   0.100E-11
     TRS4 it  10 1.00000000   0.345E-12       0.013     2174.659   0.100E-11
     Final TRS4 iteration   10 1.00000000   0.345E-12
     Chemical potential (mu):       0.05371
 
 PAO| energy:  -191.73280468271673      penalty:   4.5096995147263409E-004
 PAO|CG| trace_G_new    1.1928776905882022E-002
 PAO|CG| trace_G_prev    1.5216572818442870E-002
 PAO|CG| trace_G_mix    2.2014527926898596E-004
 PAO|CG| trace_D    2.9459626359657980E-002
 PAO|CG| trace_D_Gnew  -6.9048290298628228E-005
 PAO|CG| beta:   0.76946575068611245     
 PAO| norm of gradient:  0.10921894023420124     
 PAO| energy improvement:  -3.3640687156832882E-003
 PAO| step     26                 -191.732804683  0.213E-03  0.438E+00     1.480
 PAO|LS| adapt:  T F F
 PAO|LS| adapt: scan_steps:    0.0000000000000000        0.0000000000000000        0.0000000000000000     
 PAO|LS| adapt: energies:   -191.73280468271673        0.0000000000000000        0.0000000000000000     
 PAO| ======================= Iteration:        27 =============================

     Lanczos converged:  T threshold:   0.100E-02
     Est. extremal eigenvalues:    0.473E+01   0.133E+00
     Est. condition number :    0.355E+02

 Order=           3
     NS sqrt iter    1 1.00000000   0.122E+01       0.021     2705.814
     NS sqrt iter    2 1.00000000   0.619E+00       0.034     3368.048
     NS sqrt iter    3 1.00000000   0.198E+00       0.034     3375.692
     NS sqrt iter    4 1.00000000   0.245E-01       0.034     3364.911
     NS sqrt iter    5 1.00000000   0.101E-03       0.034     3371.658
     NS sqrt iter    6 1.00000000   0.192E-10       0.017     2167.635
     Symmetrizing Results
     Final NS sqrt iter    6 1.00000000   0.209E-11

     Est. extremal eigenvalues     -0.84279     2.57852  converged:  T
     TRS4 it   1 1.00000000   0.286E+02       0.007     2123.867   0.100E-11
     TRS4 it   2 1.00000000   0.234E+02       0.013     2212.184   0.100E-11
     TRS4 it   3 1.00000000   0.155E+02       0.013     2191.887   0.100E-11
     TRS4 it   4 1.00000000   0.899E+01       0.013     2177.420   0.100E-11
     TRS4 it   5 1.00000000   0.371E+01       0.013     2189.770   0.100E-11
     TRS4 it   6 1.00000000   0.935E+00       0.013     2182.737   0.100E-11
     TRS4 it   7 1.00000000   0.109E+00       0.013     2192.513   0.100E-11
     TRS4 it   8 1.00000000   0.202E-02       0.013     2196.180   0.100E-11
     TRS4 it   9 1.00000000   0.810E-06       0.013     2201.402   0.100E-11
     TRS4 it  10 1.00000000   0.304E-12       0.013     2185.650   0.100E-11
     Final TRS4 iteration   10 1.00000000   0.304E-12
     Chemical potential (mu):       0.05410
 
 PAO| energy:  -191.73507433334760      penalty:   4.1528305170102032E-004
 PAO|LS| adapt:  T T F
 PAO|LS| adapt: scan_steps:    0.0000000000000000       0.43781572323964235        0.0000000000000000     
 PAO|LS| adapt: energies:   -191.73280468271673       -191.73507433334760        0.0000000000000000     
 PAO| ======================= Iteration:        28 =============================

     Lanczos converged:  T threshold:   0.100E-02
     Est. extremal eigenvalues:    0.472E+01   0.133E+00
     Est. condition number :    0.356E+02

 Order=           3
     NS sqrt iter    1 1.00000000   0.121E+01       0.021     2722.969
     NS sqrt iter    2 1.00000000   0.618E+00       0.033     3382.460
     NS sqrt iter    3 1.00000000   0.197E+00       0.034     3339.445
     NS sqrt iter    4 1.00000000   0.244E-01       0.034     3364.345
     NS sqrt iter    5 1.00000000   0.101E-03       0.034     3350.921
     NS sqrt iter    6 1.00000000   0.193E-10       0.017     2189.640
     Symmetrizing Results
     Final NS sqrt iter    6 1.00000000   0.208E-11

     Est. extremal eigenvalues     -0.84280     2.57529  converged:  T
     TRS4 it   1 1.00000000   0.286E+02       0.007     2094.630   0.100E-11
     TRS4 it   2 1.00000000   0.234E+02       0.013     2194.354   0.100E-11
     TRS4 it   3 1.00000000   0.155E+02       0.013     2181.813   0.100E-11
     TRS4 it   4 1.00000000   0.896E+01       0.013     2192.480   0.100E-11
     TRS4 it   5 1.00000000   0.369E+01       0.013     2195.400   0.100E-11
     TRS4 it   6 1.00000000   0.927E+00       0.013     2193.850   0.100E-11
     TRS4 it   7 1.00000000   0.107E+00       0.013     2200.753   0.100E-11
     TRS4 it   8 1.00000000   0.196E-02       0.013     2201.487   0.100E-11
     TRS4 it   9 1.00000000   0.763E-06       0.013     2209.484   0.100E-11
     TRS4 it  10 1.00000000   0.275E-12       0.013     2205.633   0.100E-11
     Final TRS4 iteration   10 1.00000000   0.275E-12
     Chemical potential (mu):       0.05449
 
 PAO| energy:  -191.73134214089436      penalty:   3.8251287691222176E-004
 PAO|LS| adapt:  T T T
 PAO|LS| adapt: scan_steps:    0.0000000000000000       0.43781572323964235       0.87563144647928470     
 PAO|LS| adapt: energies:   -191.73280468271673       -191.73507433334760       -191.73134214089436     
 PAO|LS| adapt: suggested step_size:   0.38447179232049467     
 PAO|LS| adapt: predicted energy  -191.73511888275834     
 PAO| ======================= Iteration:        29 =============================

     Lanczos converged:  T threshold:   0.100E-02
     Est. extremal eigenvalues:    0.473E+01   0.133E+00
     Est. condition number :    0.355E+02

 Order=           3
     NS sqrt iter    1 1.00000000   0.122E+01       0.021     2667.385
     NS sqrt iter    2 1.00000000   0.619E+00       0.033     3389.137
     NS sqrt iter    3 1.00000000   0.198E+00       0.034     3379.797
     NS sqrt iter    4 1.00000000   0.245E-01       0.034     3373.360
     NS sqrt iter    5 1.00000000   0.101E-03       0.034     3353.774
     NS sqrt iter    6 1.00000000   0.192E-10       0.017     2178.895
     Symmetrizing Results
     Final NS sqrt iter    6 1.00000000   0.209E-11

     Est. extremal eigenvalues     -0.84279     2.57891  converged:  T
     TRS4 it   1 1.00000000   0.286E+02       0.007     2117.776   0.100E-11
     TRS4 it   2 1.00000000   0.234E+02       0.013     2203.297   0.100E-11
     TRS4 it   3 1.00000000   0.155E+02       0.013     2195.168   0.100E-11
     TRS4 it   4 1.00000000   0.899E+01       0.013     2207.989   0.100E-11
     TRS4 it   5 1.00000000   0.371E+01       0.013     2187.539   0.100E-11
     TRS4 it   6 1.00000000   0.936E+00       0.013     2197.431   0.100E-11
     TRS4 it   7 1.00000000   0.109E+00       0.013     2176.510   0.100E-11
     TRS4 it   8 1.00000000   0.203E-02       0.013     2165.384   0.100E-11
     TRS4 it   9 1.00000000   0.816E-06       0.013     2216.515   0.100E-11
[...]
     TRS4 it   5 1.00000000   0.421E+01       0.013     2205.853   0.100E-11
     TRS4 it   6 1.00000000   0.132E+01       0.013     2187.957   0.100E-11
     TRS4 it   7 1.00000000   0.236E+00       0.013     2202.910   0.100E-11
     TRS4 it   8 1.00000000   0.117E-01       0.013     2175.642   0.100E-11
     TRS4 it   9 1.00000000   0.334E-04       0.013     2196.153   0.100E-11
     TRS4 it  10 1.00000000   0.423E-09       0.013     2193.915   0.100E-11
     TRS4 it  11 1.00000000   0.888E-14       0.013     2206.083   0.100E-11
     Final TRS4 iteration   11 1.00000000   0.888E-14
     Chemical potential (mu):       0.02047
 
 PAO| energy:  -191.36521078274424      penalty:   1.4089134809050138E-008
 PAO| Writing restart file.
     Est. extremal eigenvalues     -0.84272     2.56733  converged:  T
     TRS4 it   1 1.00000000   0.289E+02       0.007     2141.897   0.100E-11
     TRS4 it   2 1.00000000   0.236E+02       0.013     2219.661   0.100E-11
     TRS4 it   3 1.00000000   0.157E+02       0.013     2184.273   0.100E-11
     TRS4 it   4 1.00000000   0.933E+01       0.013     2201.858   0.100E-11
     TRS4 it   5 1.00000000   0.421E+01       0.013     2187.083   0.100E-11
     TRS4 it   6 1.00000000   0.132E+01       0.013     2190.112   0.100E-11
     TRS4 it   7 1.00000000   0.236E+00       0.013     2199.457   0.100E-11
     TRS4 it   8 1.00000000   0.117E-01       0.013     2210.345   0.100E-11
     TRS4 it   9 1.00000000   0.334E-04       0.013     2193.666   0.100E-11
     TRS4 it  10 1.00000000   0.423E-09       0.013     2194.233   0.100E-11
     TRS4 it  11 1.00000000   0.888E-14       0.013     2188.506   0.100E-11
     Final TRS4 iteration   11 1.00000000   0.888E-14
     Chemical potential (mu):       0.02047

 SCF     1     -1103.063876782     -1103.063876782    1.764869

*********************************************************
 Using MIXING_FRACTION=0.450 to mix KS matrix:  iscf=  2
 KS_nw=0.450*KS + 0.550*KS_old
*********************************************************
     Est. extremal eigenvalues     -0.84272     2.56733  converged:  T
     TRS4 it   1 1.00000000   0.289E+02       0.007     2134.648   0.100E-11
     TRS4 it   2 1.00000000   0.236E+02       0.013     2207.484   0.100E-11
     TRS4 it   3 1.00000000   0.157E+02       0.013     2187.463   0.100E-11
     TRS4 it   4 1.00000000   0.933E+01       0.013     2177.683   0.100E-11
     TRS4 it   5 1.00000000   0.421E+01       0.013     2194.913   0.100E-11
     TRS4 it   6 1.00000000   0.132E+01       0.013     2199.107   0.100E-11
     TRS4 it   7 1.00000000   0.236E+00       0.013     2184.074   0.100E-11
     TRS4 it   8 1.00000000   0.117E-01       0.013     2217.197   0.100E-11
     TRS4 it   9 1.00000000   0.334E-04       0.013     2179.880   0.100E-11
     TRS4 it  10 1.00000000   0.423E-09       0.013     2190.320   0.100E-11
     TRS4 it  11 1.00000000   0.888E-14       0.013     2205.474   0.100E-11
     Final TRS4 iteration   11 1.00000000   0.888E-14
     Chemical potential (mu):       0.02047

 SCF     2     -1103.063876783        -0.000000000    1.772497


 SCF run converged in     2 steps.

 PAO| Storing density matrix for ASPC guess in slot:           1

 ENERGY| Total FORCE_EVAL ( QS ) energy [a.u.]:            -1103.063876782592160

 -------------------------------------------------------------------------------
 -                                                                             -
 -                                DBCSR STATISTICS                             -
 -                                                                             -
 -------------------------------------------------------------------------------
 COUNTER                                    TOTAL       BLAS       SMM       ACC
 flops     5 x     5 x     4             26419200       0.0%    100.0%      0.0%     
 flops    13 x     5 x     4             34078720       0.0%    100.0%      0.0%     
 flops     5 x    13 x     4             34078720       0.0%    100.0%      0.0%     
 flops    13 x    13 x     4             44994560       0.0%    100.0%      0.0%     
 flops     4 x     4 x     5           6393692160       0.0%    100.0%      0.0%     
 flops     5 x     4 x     5           7883980800       0.0%    100.0%      0.0%     
 flops     4 x     4 x    13           8311799808       0.0%    100.0%      0.0%     
 flops    13 x     4 x     5          10249175040       0.0%    100.0%      0.0%     
 flops     5 x     4 x    13          10249175040       0.0%    100.0%      0.0%     
 flops    13 x     4 x    13          13323927552       0.0%    100.0%      0.0%     
 flops     5 x     4 x     4         396624188480       0.0%    100.0%      0.0%     
 flops    13 x     4 x     4         523616967328       0.0%    100.0%      0.0%     
 flops     4 x     4 x     4       29294316982272       0.0%    100.0%      0.0%     
 flops inhomo. stacks                           0       0.0%      0.0%      0.0%
 flops total                        30.271109E+12       0.0%    100.0%      0.0%
 flops max/rank                    956.261073E+09       0.0%    100.0%      0.0%
 matmuls inhomo. stacks                         0       0.0%      0.0%      0.0%
 matmuls total                       232748379331       0.0%    100.0%      0.0%
 number of processed stacks             237778282       0.0%    100.0%      0.0%
 average stack size                                     0.0     978.8       0.0
 marketing flops                    52.503190E+12
 -------------------------------------------------------------------------------
 # multiplications                          49255
 max memory usage/rank             618.393600E+06
 # max total images/rank                        2
 # max 3D layers                                1
 # MPI messages exchanged                20490080
 MPI messages size (bytes):
  total size                         2.428750E+12
  min size                           0.000000E+00
  max size                         541.696000E+03
  average size                     118.532969E+03
 MPI breakdown and total messages size (bytes):
             size <=      128              877317                     4608
       128 < size <=     8192              331971               1283825920
      8192 < size <=    32768               63897               1539503488
     32768 < size <=   131072             8779455             652600105216
    131072 < size <=  4194304            10437440            1773709645824
   4194304 < size <= 16777216                   0                        0
  16777216 < size                               0                        0
 -------------------------------------------------------------------------------

 *** WARNING in dbcsr_mm.F:301 :: Using a non-square number of MPI ranks ***
 *** might lead to poor performance. Used ranks: 32 Suggested: 36 64     ***

 -------------------------------------------------------------------------------
 -                                                                             -
 -                      DBCSR MESSAGE PASSING PERFORMANCE                      -
 -                                                                             -
 -------------------------------------------------------------------------------
 ROUTINE             CALLS      AVE VOLUME [Bytes]
 MP_Bcast               14                     12.
 MP_Allreduce       296396                     37.
 MP_Alltoall        127183                  14590.
 MP_ISend          1648274                  55157.
 MP_IRecv          1612216                  56463.
 -------------------------------------------------------------------------------

 -------------------------------------------------------------------------------
 -                                                                             -
 -                                DBM STATISTICS                               -
 -                                                                             -
 -------------------------------------------------------------------------------
    M  x    N  x    K                                          COUNT     PERCENT
 -------------------------------------------------------------------------------

 -------------------------------------------------------------------------------
 -                                                                             -
 -                                GRID STATISTICS                              -
 -                                                                             -
 -------------------------------------------------------------------------------
 LP    KERNEL             BACKEND                              COUNT     PERCENT
 2     collocate ortho    CPU                               13110496      28.83%
 2     integrate ortho    CPU                               13110496      28.83%
 3     collocate ortho    CPU                                8428624      18.53%
 3     integrate ortho    CPU                                8428624      18.53%
 4     collocate ortho    CPU                                1199072       2.64%
 4     integrate ortho    CPU                                1199072       2.64%
 0     collocate general  CPU                                   6144       0.01%
 -------------------------------------------------------------------------------

 MEMORY| Estimated peak process memory [MiB]                                 590

 -------------------------------------------------------------------------------
 -                                                                             -
 -                         MESSAGE PASSING PERFORMANCE                         -
 -                                                                             -
 -------------------------------------------------------------------------------

 ROUTINE             CALLS      AVE VOLUME [Bytes]
 MP_Group                5
 MP_Bcast           374248                   1927.
 MP_Allreduce       930163                    514.
 MP_Sync                 5
 MP_Alltoall           419                3153675.
 MP_SendRecv          1488                  18832.
 MP_ISendRecv         1488                  18832.
 MP_Wait              4218
 MP_ISend             2470                 108139.
 MP_IRecv             2470                 108153.
 -------------------------------------------------------------------------------


 -------------------------------------------------------------------------------
 -                                                                             -
 -                           R E F E R E N C E S                               -
 -                                                                             -
 -------------------------------------------------------------------------------
 
 CP2K version 2024.3 (Development Version), the CP2K developers group (2024).
 CP2K is freely available from https://www.cp2k.org/ .
 
 T. D. Kuehne, M. Iannuzzi, M. Del Ben, V. V. Rybkin, P. Seewald, F. Stein, T. 
 Laino, R. Z. Khaliullin, O. Schuett, F. Schiffmann, D. Golze, J. Wilhelm, S. 
 Chulkov, M. H. Bani-Hashemian, V. Weber, U. Borstnik, M. Taillefumier, A. S. 
 Jakobovits, A. Lazzaro, H. Pabst, T. Mueller, R. Schade, M. Guidon, S. 
 Andermatt, N. Holmberg, G. K. Schenter, A. Hehn, A. Bussy, F. Belleflamme, G. 
 Tabacchi, A. Gloess, M. Lass, I. Bethune, C. J. Mundy, C. Plessl, M. Watkins, 
 J. VandeVondele, M. Krack, J. Hutter.
 J. Chem. Phys. 152, 194103 (2020).
 CP2K: An electronic structure and molecular dynamics software package - 
 Quickstep: Efficient and accurate electronic structure calculations.
 https://doi.org/10.1063/5.0007045

 O. Schuett, J. VandeVondele.
 J. Chem. Theory Comput. 14, 4168-4175 (2018).
 Machine Learning Adaptive Basis Sets for Efficient Large Scale Density 
 Functional Theory Simulation.
 https://doi.org/10.1021/acs.jctc.8b00378

 O. Schuett, P. Messmer, J. Hutter, J. VandeVondele.
 Electronic Structure Calculations on Graphics Processing Units, 173-190 (2016).
 GPU-Accelerated Sparse Matrix-Matrix Multiplication for Linear Scaling Density 
 Functional Theory.
 https://doi.org/10.1002/9781118670712.ch8

 A. Heinecke, G. Henry, M. Hutchinson, H. Pabst.
 Proceedings of Intl. Supercomputing Conference, 981-991 (2016).
 LIBXSMM: Accelerating Small Matrix Multiplications by Runtime Code Generation.
 https://doi.org/10.1109/SC.2016.83

 J. Hutter, M. Iannuzzi, F. Schiffmann, J. VandeVondele.
 WIREs Comput Mol Sci. 4, 15-25 (2014).
 CP2K: atomistic simulations of condensed matter systems.
 https://doi.org/10.1002/wcms.1159

 U. Borstnik, J. VandeVondele, V. Weber, J. Hutter.
 Parallel Comput. 40, 47-58 (2014).
 Sparse matrix multiplication: The distributed block-compressed sparse row 
 library.
 https://doi.org/10.1016/j.parco.2014.03.012

 A. Marek, V. Blum, R. Johanni, V. Havu, B. Lang, T. Auckenthaler, A. Heinecke, 
 H. Bungartz, H. Lederer.
 J. Phys. Condens. Matter 26, 213201 (2014).
 The ELPA library: scalable parallel eigenvalue solutions for electronic 
 structure theory and computational science.
 https://doi.org/10.1088/0953-8984/26/21/213201

 J. VandeVondele, U. Borstnik, J. Hutter.
 J. Chem. Theory Comput. 8, 3565-3573 (2012).
 Linear Scaling Self-Consistent Field Calculations with Millions of Atoms in the 
 Condensed Phase.
 https://doi.org/10.1021/ct200897x

 J. VandeVondele, J. Hutter.
 J. Chem. Phys. 127, 114105 (2007).
 Gaussian basis sets for accurate calculations on molecular systems in gas and 
 condensed phases.
 https://doi.org/10.1063/1.2770708

 J. VandeVondele, M. Krack, F. Mohamed, M. Parrinello, T. Chassaing, J. Hutter.
 Comput. Phys. Commun. 167, 103-128 (2005).
 QUICKSTEP: Fast and accurate density functional calculations using a mixed 
 Gaussian and plane waves approach.
 https://doi.org/10.1016/j.cpc.2004.12.014

 M. Krack.
 Theor. Chem. Acc. 114, 145-152 (2005).
 Pseudopotentials for H to Kr optimized for gradient-corrected 
 exchange-correlation functionals.
 https://doi.org/10.1007/s00214-005-0655-y

 M. Frigo, S. G. Johnson.
 Proc. IEEE 93, 216-231 (2005).
 The design and implementation of FFTW3.
 https://doi.org/10.1109/JPROC.2004.840301

 A. M. N. Niklasson, C. J. Tymczak, M. Challacombe.
 J. Chem. Phys. 118, 8611-8620 (2003).
 Trace resetting density matrix purification in O(N) self-consistent-field 
 theory.
 https://doi.org/10.1063/1.1559913

 C. Hartwigsen, S. Goedecker, J. Hutter.
 Phys. Rev. B 58, 3641-3662 (1998).
 Relativistic separable dual-space Gaussian pseudopotentials from H to Rn.
 https://doi.org/10.1103/PhysRevB.58.3641

 G. Lippert, J. Hutter, M. Parrinello.
 Mol. Phys. 92, 477-487 (1997).
 A hybrid Gaussian and plane wave density functional scheme.
 https://doi.org/10.1080/002689797170220

 S. Goedecker, M. Teter, J. Hutter.
 Phys. Rev. B 54, 1703-1710 (1996).
 Separable dual-space Gaussian pseudopotentials.
 https://doi.org/10.1103/PhysRevB.54.1703

 J. P. Perdew, K. Burke, M. Ernzerhof.
 Phys. Rev. Lett. 77, 3865-3868 (1996).
 Generalized gradient approximation made simple.
 https://doi.org/10.1103/PhysRevLett.77.3865


 -------------------------------------------------------------------------------
 -                                                                             -
 -                                T I M I N G                                  -
 -                                                                             -
 -------------------------------------------------------------------------------
 SUBROUTINE                       CALLS  ASD         SELF TIME        TOTAL TIME
                                MAXIMUM       AVERAGE  MAXIMUM  AVERAGE  MAXIMUM
 CP2K                                 1  1.0    0.013    0.016  441.522  441.523
 qs_energies                          1  2.0    0.000    0.000  441.369  441.371
 ls_scf                               1  3.0    0.000    0.000  440.347  440.348
 pao_update                           7  4.0    0.006    0.024  410.214  410.220
 pao_calc_energy                    802  5.0    0.003    0.018  368.012  368.019
 dbcsr_multiply_generic           49255  8.4    1.362    1.445  341.754  342.017
 multiply_cannon                  49255  9.4    2.558    2.867  276.791  281.761
 multiply_cannon_loop             49255 10.4    1.866    2.125  266.410  270.156
 ls_scf_init_matrix_S               809  7.0    0.008    0.009  208.582  208.662
 pao_rebuild_S                      802  6.0    0.002    0.003  206.758  206.827
 matrix_sqrt_Newton_Schulz          809  8.0    0.167    0.287  193.549  193.601
 multiply_cannon_multrec         394040 11.4  173.996  175.771  174.803  176.568
 pao_dm_trs4                        802  6.0    0.006    0.007  160.878  160.897
 density_matrix_trs4                817  7.0    0.209    0.357  155.334  155.433
 mp_waitall_1                   3154068 12.6   87.846   93.760   87.846   93.760
 multiply_cannon_metrocomm3      394040 11.4    0.691    0.733   70.801   75.586
 arnoldi_extremal                  1626  8.5    0.013    0.015   61.537   61.595
 arnoldi_normal_ev                 1626  9.5    0.037    0.062   61.522   61.576
 build_subspace                    6041 10.6    0.368    0.395   54.017   54.052
 dbcsr_matrix_vector_mult        184482 11.6    0.789    1.190   50.900   51.317
 make_m2s                         98510  9.4    0.538    0.682   50.085   50.879
 make_images                      98510 10.4    7.222    7.445   48.746   49.588
 dbcsr_matrix_vector_mult_local  184482 12.6   43.416   44.030   43.622   44.240
 pao_calc_AB                       1063  5.8    0.002    0.002   41.753   41.755
 pao_calc_AB_equi                  1063  6.8    0.039    0.098   41.751   41.753
 pao_calc_grad_lnv_wrt_AB           260  7.0    0.019    0.023   41.353   41.378
 ls_scf_main                          7  4.0    0.000    0.001   26.602   26.605
 ls_scf_dm_to_ks                     15  5.0    0.000    0.000   23.458   23.464
 make_images_data                 98510 11.4    0.842    0.964   21.142   23.236
 hybrid_alltoall_any             100123 12.3    0.880    1.755   16.598   20.454
 matrix_qs_to_ls                   1626  7.5    0.016    0.021   16.977   17.120
 qs_ks_update_qs_env                 16  6.0    0.000    0.000   13.992   13.998
 rebuild_ks_matrix                   16  7.0    0.000    0.000   13.981   13.987
 qs_ks_build_kohn_sham_matrix        16  8.0    0.003    0.003   13.981   13.987
 mp_sum_l                        201269  9.5    7.491   13.871    7.491   13.871
 calculate_norms                 735536 11.4   11.483   12.802   11.483   12.802
 make_images_pack                 98510 11.4   10.904   11.177   11.037   11.312
 qs_rho_update_rho_low               16  6.0    0.000    0.000   10.932   10.934
 calculate_rho_elec                  16  7.0    0.005    0.006   10.932   10.934
 sum_up_and_integrate                16  9.0    0.000    0.001   10.613   10.619
 integrate_v_rspace                  16 10.0    0.001    0.001   10.598   10.604
 grid_collocate_task_list            16  8.0    9.725    9.905    9.725    9.905
 grid_integrate_task_list            16 11.0    9.285    9.526    9.285    9.526
 dbcsr_multiply_generic_mpsum_f   36145  9.5    0.026    0.035    4.327    9.320
 -------------------------------------------------------------------------------

 The number of warnings for this run is : 1
 
 -------------------------------------------------------------------------------
  **** **** ******  **  PROGRAM ENDED AT                 2024-09-24 00:37:46.514
 ***** ** ***  *** **   PROGRAM RAN ON                                    moritz
 **    ****   ******    PROGRAM RAN BY                                       ole
 ***** **    ** ** **   PROGRAM PROCESS ID                                165304
  **** **  *******  **  PROGRAM STOPPED IN /home/ole/git/pao_ml_equivar/64H2O_MD
                                           /Frame1800
