 DBCSR| CPU Multiplication driver                                           XSMM (U)
 DBCSR| Multrec recursion limit                                              512 (U)
 DBCSR| Multiplication stack size                                           1000 (D)
 DBCSR| Maximum elements for images                                    UNLIMITED (U)
 DBCSR| Multiplicative factor virtual images                                   1 (U)
 DBCSR| Use multiplication densification                                       T (D)
 DBCSR| Multiplication size stacks                                             3 (U)
 DBCSR| Use memory pool for CPU allocation                                     F (U)
 DBCSR| Number of 3D layers                                               SINGLE (U)
 DBCSR| Use MPI memory allocation                                              F (U)
 DBCSR| Use RMA algorithm                                                      F (U)
 DBCSR| Use Communication thread                                               T (U)
 DBCSR| Communication thread load                                             87 (D)
 DBCSR| MPI: My process id                                                     0
 DBCSR| MPI: Number of processes                                              32
 DBCSR| OMP: Current number of threads                                         1
 DBCSR| OMP: Max number of threads                                             1
 DBCSR| Split modifier for TAS multiplication algorithm                  1.0E+00 (U)


  **** **** ******  **  PROGRAM STARTED AT               2024-09-23 17:35:35.333
 ***** ** ***  *** **   PROGRAM STARTED ON                                moritz
 **    ****   ******    PROGRAM STARTED BY                                   ole
 ***** **    ** ** **   PROGRAM PROCESS ID                                156436
  **** **  *******  **  PROGRAM STARTED IN /home/ole/git/pao_ml_equivar/64H2O_MD
                                           /Frame1800

 CP2K| version string:                 CP2K version 2024.3 (Development Version)
 CP2K| source code revision number:                                  git:3f890bb
 CP2K| cp2kflags: omp libint fftw3 libxc libgrpp pexsi elpa parallel scalapack c
 CP2K|            osma quip deepmd xsmm plumed2 spglib libdftd4 sirius libvori l
 CP2K|            libbqb libvdwxc hdf5
 CP2K| is freely available from                            https://www.cp2k.org/
 CP2K| Program compiled at                          Mo 23 Sep 2024 17:17:04 CEST
 CP2K| Program compiled on                                                moritz
 CP2K| Program compiled for                                                local
 CP2K| Data directory path                               /home/ole/git/cp2k/data
 CP2K| Input file name                                             64H2O_ref.inp

 GLOBAL| Force Environment number                                              1
 GLOBAL| Basis set file name                                        BASIS_MOLOPT
 GLOBAL| Potential file name                                      GTH_POTENTIALS
 GLOBAL| MM Potential file name                                     MM_POTENTIAL
 GLOBAL| Coordinate file name                                         coords.xyz
 GLOBAL| Method name                                                        CP2K
 GLOBAL| Project name                                                  64H2O_ref
 GLOBAL| Run type                                                         ENERGY
 GLOBAL| FFT library                                                       FFTW3
 GLOBAL| Diagonalization library                                            ELPA
 GLOBAL| DGEMM library                                                      BLAS
 GLOBAL| Minimum number of eigenvectors for ELPA usage                        16
 GLOBAL| Orthonormality check for eigenvectors                          DISABLED
 GLOBAL| Matrix multiplication library                                     COSMA
 GLOBAL| All-to-all communication in single precision                          F
 GLOBAL| FFTs using library dependent lengths                                  F
 GLOBAL| Grid backend                                                       AUTO
 GLOBAL| Global print level                                                  LOW
 GLOBAL| MPI I/O enabled                                                       T
 GLOBAL| Total number of message passing processes                            32
 GLOBAL| Number of threads for this process                                    1
 GLOBAL| This output is from process                                           0
 GLOBAL| Stack size for threads created by OpenMP (OMP_STACKSIZE)        default
 GLOBAL| CPU model name           AMD Ryzen Threadripper 3970X 32-Core Processor
 GLOBAL| CPUID                                                              1002

 MEMORY| system memory details [Kb]
 MEMORY|                        rank 0           min           max       average
 MEMORY| MemTotal            131752136     131752136     131752136     131752136
 MEMORY| MemFree             118357192     118357192     118357192     118357192
 MEMORY| Buffers                259620        259620        259620        259620
 MEMORY| Cached                7010276       7010276       7010280       7010277
 MEMORY| Slab                   700652        700652        700652        700652
 MEMORY| SReclaimable           267628        267628        267628        267628
 MEMORY| MemLikelyFree       125894716     125894716     125894720     125894717


 GENERATE|  Preliminary Number of Bonds generated:                             0
 GENERATE|  Achieved consistency in connectivity generation.

 *******************************************************************************
 *******************************************************************************
 **                                                                           **
 **     #####                         ##              ##                      **
 **    ##   ##            ##          ##              ##                      **
 **   ##     ##                       ##            ######                    **
 **   ##     ##  ##   ##  ##   #####  ##  ##   ####   ##    #####    #####    **
 **   ##     ##  ##   ##  ##  ##      ## ##   ##      ##   ##   ##  ##   ##   **
 **   ##  ## ##  ##   ##  ##  ##      ####     ###    ##   ######   ######    **
 **    ##  ###   ##   ##  ##  ##      ## ##      ##   ##   ##       ##        **
 **     #######   #####   ##   #####  ##  ##  ####    ##    #####   ##        **
 **           ##                                                    ##        **
 **                                                                           **
 **                                                ... make the atoms dance   **
 **                                                                           **
 **            Copyright (C) by CP2K developers group (2000-2024)             **
 **                      J. Chem. Phys. 152, 194103 (2020)                    **
 **                                                                           **
 *******************************************************************************


 TOTAL NUMBERS AND MAXIMUM NUMBERS

  Total number of            - Atomic kinds:                                   2
                             - Atoms:                                        192
                             - Shell sets:                                   192
                             - Shells:                                       704
                             - Primitive Cartesian functions:               1344
                             - Cartesian basis functions:                   1536
                             - Spherical basis functions:                   1472

  Maximum angular momentum of- Orbital basis functions:                        2
                             - Local part of the GTH pseudopotential:          2
                             - Non-local part of the GTH pseudopotential:      0

 ------------------------------ Linear scaling SCF -----------------------------
 eps_scf:                                                              0.100E-07
 eps_filter:                                                           0.100E-11
 mixing_fraction:                                                      0.450E+00
 max_scf:                                                                     25
 fixed chemical potential (mu)                                                 F
 has unit metric:                                                              F
 Computing inv(S):                                                             T
 Computing sqrt(S):                                                            T
 Computing S preconditioner                                                    F
 S sqrt method:                                                     NEWTONSCHULZ
 S sqrt order:                                                                 3
 Extrapolation order:                                                          1
 S preconditioner type                                                      NONE
 Polarized Atomic Orbitals (PAO)                                               F
 Purification method                                   Trace resetting 4th order
 Cluster type                                                             ATOMIC
 Computing Chebyshev                                                       FALSE
 Using PAO                                                                     F
 -------------------------------------------------------------------------------


     Lanczos converged:  F threshold:   0.100E-02
     Est. extremal eigenvalues:    0.863E+01   0.579E-02
     Est. condition number :    0.149E+04

 Order=           3
     NS sqrt iter    1 1.00000000   0.223E+01       0.066     6092.345
     NS sqrt iter    2 1.00000000   0.117E+01       0.100     7965.808
     NS sqrt iter    3 1.00000000   0.578E+00       0.100     7999.429
     NS sqrt iter    4 1.00000000   0.333E+00       0.098     8148.735
     NS sqrt iter    5 1.00000000   0.225E+00       0.098     8121.037
     NS sqrt iter    6 1.00000000   0.105E+00       0.099     8018.032
     NS sqrt iter    7 1.00000000   0.125E-01       0.100     8013.770
     NS sqrt iter    8 1.00000000   0.525E-04       0.100     7985.474
     NS sqrt iter    9 1.00000000   0.171E-10       0.055     5497.089
     Symmetrizing Results
     Final NS sqrt iter    9 1.00000000   0.729E-11



 Guess for atomic kind: O

 Electronic structure
    Total number of core electrons                                          2.00
    Total number of valence electrons                                       6.00
    Total number of electrons                                               8.00
    Multiplicity                                                   not specified
    S   [  2.00] 2.00
    P      4.00


 *******************************************************************************
                  Iteration          Convergence                     Energy [au]
 *******************************************************************************
                          1        0.708315                     -15.576645311500
                          2        0.608879                     -15.587933561584
                          3        0.102828E-01                 -15.656849565404
                          4        0.113889E-02                 -15.656866888140
                          5        0.434197E-03                 -15.656867072159
                          6        0.263771E-03                 -15.656867091904
                          7        0.478536E-06                 -15.656867103452

 Energy components [Hartree]           Total Energy ::          -15.656867103452
                                        Band Energy ::           -3.000198112285
                                     Kinetic Energy ::           11.759971203220
                                   Potential Energy ::          -27.416838306672
                                      Virial (-V/T) ::            2.331369510426
                                        Core Energy ::          -26.140716385623
                                          XC Energy ::           -3.154051012914
                                     Coulomb Energy ::           13.637900295084
                       Total Pseudopotential Energy ::          -37.935781716540
                       Local Pseudopotential Energy ::          -39.218907440693
                    Nonlocal Pseudopotential Energy ::            1.283125724153
                                        Confinement ::            0.350941276976

 Orbital energies  State     L     Occupation   Energy[a.u.]          Energy[eV]

                       1     0          2.000      -0.864471          -23.523463

                       1     1          4.000      -0.317814           -8.648154


 Total Electron Density at R=0:                                         0.000068

 Guess for atomic kind: H

 Electronic structure
    Total number of core electrons                                          0.00
    Total number of valence electrons                                       1.00
    Total number of electrons                                               1.00
    Multiplicity                                                   not specified
    S      1.00


 *******************************************************************************
                  Iteration          Convergence                     Energy [au]
 *******************************************************************************
                          1        0.437545E-02                  -0.424159432110
                          2        0.531356E-03                  -0.424178438213
                          3        0.259176E-06                  -0.424178722480

 Energy components [Hartree]           Total Energy ::           -0.424178722480
                                        Band Energy ::           -0.199015229016
                                     Kinetic Energy ::            0.464007633961
                                   Potential Energy ::           -0.888186356441
                                      Virial (-V/T) ::            1.914163240935
                                        Core Energy ::           -0.479160803564
                                          XC Energy ::           -0.244352904054
                                     Coulomb Energy ::            0.299334985138
                       Total Pseudopotential Energy ::           -0.962295316385
                       Local Pseudopotential Energy ::           -0.962295316385
                    Nonlocal Pseudopotential Energy ::            0.000000000000
                                        Confinement ::            0.191268788606

 Orbital energies  State     L     Occupation   Energy[a.u.]          Energy[eV]

                       1     0          1.000      -0.199015           -5.415480


 Total Electron Density at R=0:                                         0.242907
 Re-scaling the density matrix to get the right number of electrons
                  # Electrons              Trace(P)               Scaling factor
                          512               512.001                        1.000
 Energy with the initial guess:     -1095.583656394

     Est. extremal eigenvalues     -0.94540     5.21973  converged:  T
     TRS4 it   1 1.00000000   0.566E+02       0.019     5316.728   0.100E-11
     TRS4 it   2 1.00000000   0.539E+02       0.019     5342.409   0.100E-11
     TRS4 it   3 1.00000000   0.338E+02       0.037     5484.810   0.100E-11
     TRS4 it   4 1.00000000   0.177E+02       0.037     5465.182   0.100E-11
     TRS4 it   5 1.00000000   0.107E+02       0.036     5645.609   0.100E-11
     TRS4 it   6 1.00000000   0.486E+01       0.036     5556.682   0.100E-11
     TRS4 it   7 1.00000000   0.145E+01       0.036     5607.004   0.100E-11
     TRS4 it   8 1.00000000   0.219E+00       0.036     5590.079   0.100E-11
     TRS4 it   9 1.00000000   0.935E-02       0.036     5539.749   0.100E-11
     TRS4 it  10 1.00000000   0.257E-04       0.036     5534.156   0.100E-11
     TRS4 it  11 1.00000000   0.634E-10       0.036     5641.454   0.100E-11
     Final TRS4 iteration   11 1.00000000   0.634E-10
     Chemical potential (mu):      -0.10741

 SCF     1     -1097.894203745     -1097.894203745    2.032881

*********************************************************
 Using MIXING_FRACTION=0.450 to mix KS matrix:  iscf=  2
 KS_nw=0.450*KS + 0.550*KS_old
*********************************************************
     Est. extremal eigenvalues     -0.83894     5.30350  converged:  T
     TRS4 it   1 1.00000000   0.559E+02       0.019     5299.259   0.100E-11
     TRS4 it   2 1.00000000   0.541E+02       0.019     5398.541   0.100E-11
     TRS4 it   3 1.00000000   0.350E+02       0.037     5396.720   0.100E-11
     TRS4 it   4 1.00000000   0.185E+02       0.036     5507.162   0.100E-11
     TRS4 it   5 1.00000000   0.120E+02       0.037     5490.219   0.100E-11
     TRS4 it   6 1.00000000   0.630E+01       0.037     5485.274   0.100E-11
     TRS4 it   7 1.00000000   0.253E+01       0.037     5495.238   0.100E-11
     TRS4 it   8 1.00000000   0.701E+00       0.037     5474.386   0.100E-11
     TRS4 it   9 1.00000000   0.104E+00       0.036     5499.114   0.100E-11
     TRS4 it  10 1.00000000   0.543E-02       0.037     5462.755   0.100E-11
     TRS4 it  11 1.00000000   0.723E-05       0.037     5437.899   0.100E-11
     TRS4 it  12 1.00000000   0.864E-11       0.036     5548.662   0.100E-11
     Final TRS4 iteration   12 1.00000000   0.864E-11
     Chemical potential (mu):      -0.01952

 SCF     2     -1102.979599213        -5.085395467    2.089009

*********************************************************
 Using MIXING_FRACTION=0.450 to mix KS matrix:  iscf=  3
 KS_nw=0.450*KS + 0.550*KS_old
*********************************************************
     Est. extremal eigenvalues     -0.84978     5.29553  converged:  T
     TRS4 it   1 1.00000000   0.560E+02       0.019     5281.342   0.100E-11
     TRS4 it   2 1.00000000   0.541E+02       0.019     5376.595   0.100E-11
     TRS4 it   3 1.00000000   0.348E+02       0.036     5563.661   0.100E-11
     TRS4 it   4 1.00000000   0.184E+02       0.036     5588.292   0.100E-11
     TRS4 it   5 1.00000000   0.118E+02       0.036     5506.098   0.100E-11
     TRS4 it   6 1.00000000   0.609E+01       0.036     5545.198   0.100E-11
     TRS4 it   7 1.00000000   0.236E+01       0.036     5538.111   0.100E-11
     TRS4 it   8 1.00000000   0.614E+00       0.037     5463.090   0.100E-11
     TRS4 it   9 1.00000000   0.803E-01       0.036     5520.743   0.100E-11
     TRS4 it  10 1.00000000   0.301E-02       0.036     5518.388   0.100E-11
     TRS4 it  11 1.00000000   0.209E-05       0.036     5522.889   0.100E-11
     TRS4 it  12 1.00000000   0.114E-11       0.036     5512.626   0.100E-11
     Final TRS4 iteration   12 1.00000000   0.114E-11
     Chemical potential (mu):      -0.02855

 SCF     3     -1103.143481189        -0.163881977    2.099138

*********************************************************
 Using MIXING_FRACTION=0.450 to mix KS matrix:  iscf=  4
 KS_nw=0.450*KS + 0.550*KS_old
*********************************************************
     Est. extremal eigenvalues     -0.84511     5.30019  converged:  T
     TRS4 it   1 1.00000000   0.560E+02       0.019     5376.984   0.100E-11
     TRS4 it   2 1.00000000   0.541E+02       0.018     5470.348   0.100E-11
     TRS4 it   3 1.00000000   0.349E+02       0.037     5414.901   0.100E-11
     TRS4 it   4 1.00000000   0.185E+02       0.036     5528.894   0.100E-11
     TRS4 it   5 1.00000000   0.119E+02       0.036     5543.165   0.100E-11
     TRS4 it   6 1.00000000   0.618E+01       0.036     5568.210   0.100E-11
     TRS4 it   7 1.00000000   0.243E+01       0.036     5581.248   0.100E-11
     TRS4 it   8 1.00000000   0.650E+00       0.036     5568.368   0.100E-11
     TRS4 it   9 1.00000000   0.907E-01       0.036     5651.098   0.100E-11
     TRS4 it  10 1.00000000   0.399E-02       0.036     5625.885   0.100E-11
     TRS4 it  11 1.00000000   0.436E-05       0.036     5604.052   0.100E-11
     TRS4 it  12 1.00000000   0.598E-11       0.036     5590.875   0.100E-11
     Final TRS4 iteration   12 1.00000000   0.598E-11
     Chemical potential (mu):      -0.02234

 SCF     4     -1103.151764408        -0.008283219    2.080318

*********************************************************
 Using MIXING_FRACTION=0.450 to mix KS matrix:  iscf=  5
 KS_nw=0.450*KS + 0.550*KS_old
*********************************************************
     Est. extremal eigenvalues     -0.84436     5.30097  converged:  T
     TRS4 it   1 1.00000000   0.560E+02       0.019     5350.451   0.100E-11
     TRS4 it   2 1.00000000   0.541E+02       0.019     5299.063   0.100E-11
     TRS4 it   3 1.00000000   0.349E+02       0.037     5486.258   0.100E-11
     TRS4 it   4 1.00000000   0.185E+02       0.035     5678.781   0.100E-11
     TRS4 it   5 1.00000000   0.119E+02       0.037     5493.681   0.100E-11
     TRS4 it   6 1.00000000   0.618E+01       0.036     5558.661   0.100E-11
     TRS4 it   7 1.00000000   0.243E+01       0.036     5535.724   0.100E-11
     TRS4 it   8 1.00000000   0.650E+00       0.036     5520.644   0.100E-11
     TRS4 it   9 1.00000000   0.906E-01       0.036     5576.772   0.100E-11
     TRS4 it  10 1.00000000   0.399E-02       0.036     5551.983   0.100E-11
     TRS4 it  11 1.00000000   0.448E-05       0.036     5619.864   0.100E-11
     TRS4 it  12 1.00000000   0.731E-11       0.036     5542.214   0.100E-11
     Final TRS4 iteration   12 1.00000000   0.731E-11
     Chemical potential (mu):      -0.02149

 SCF     5     -1103.152404890        -0.000640482    2.070589

*********************************************************
 Using MIXING_FRACTION=0.450 to mix KS matrix:  iscf=  6
 KS_nw=0.450*KS + 0.550*KS_old
*********************************************************
     Est. extremal eigenvalues     -0.84370     5.30167  converged:  T
     TRS4 it   1 1.00000000   0.560E+02       0.019     5306.586   0.100E-11
     TRS4 it   2 1.00000000   0.541E+02       0.019     5417.659   0.100E-11
     TRS4 it   3 1.00000000   0.349E+02       0.037     5454.508   0.100E-11
     TRS4 it   4 1.00000000   0.185E+02       0.036     5537.798   0.100E-11
     TRS4 it   5 1.00000000   0.119E+02       0.036     5552.885   0.100E-11
     TRS4 it   6 1.00000000   0.619E+01       0.037     5453.577   0.100E-11
     TRS4 it   7 1.00000000   0.244E+01       0.037     5478.622   0.100E-11
     TRS4 it   8 1.00000000   0.654E+00       0.036     5574.301   0.100E-11
     TRS4 it   9 1.00000000   0.919E-01       0.037     5487.457   0.100E-11
     TRS4 it  10 1.00000000   0.413E-02       0.037     5456.659   0.100E-11
     TRS4 it  11 1.00000000   0.494E-05       0.036     5552.149   0.100E-11
     TRS4 it  12 1.00000000   0.925E-11       0.037     5468.774   0.100E-11
     Final TRS4 iteration   12 1.00000000   0.925E-11
     Chemical potential (mu):      -0.02051

 SCF     6     -1103.152497831        -0.000092941    2.085367

*********************************************************
 Using MIXING_FRACTION=0.450 to mix KS matrix:  iscf=  7
 KS_nw=0.450*KS + 0.550*KS_old
*********************************************************
     Est. extremal eigenvalues     -0.84335     5.30197  converged:  T
     TRS4 it   1 1.00000000   0.560E+02       0.019     5354.297   0.100E-11
     TRS4 it   2 1.00000000   0.541E+02       0.018     5464.904   0.100E-11
     TRS4 it   3 1.00000000   0.349E+02       0.036     5530.123   0.100E-11
     TRS4 it   4 1.00000000   0.185E+02       0.037     5490.067   0.100E-11
     TRS4 it   5 1.00000000   0.119E+02       0.036     5553.200   0.100E-11
     TRS4 it   6 1.00000000   0.619E+01       0.036     5557.882   0.100E-11
     TRS4 it   7 1.00000000   0.244E+01       0.037     5481.812   0.100E-11
     TRS4 it   8 1.00000000   0.655E+00       0.037     5484.708   0.100E-11
     TRS4 it   9 1.00000000   0.922E-01       0.036     5503.210   0.100E-11
     TRS4 it  10 1.00000000   0.416E-02       0.036     5604.998   0.100E-11
     TRS4 it  11 1.00000000   0.506E-05       0.036     5505.477   0.100E-11
     TRS4 it  12 1.00000000   0.101E-10       0.036     5536.515   0.100E-11
     Final TRS4 iteration   12 1.00000000   0.101E-10
     Chemical potential (mu):      -0.02013

 SCF     7     -1103.152517449        -0.000019618    2.070924

*********************************************************
 Using MIXING_FRACTION=0.450 to mix KS matrix:  iscf=  8
 KS_nw=0.450*KS + 0.550*KS_old
*********************************************************
     Est. extremal eigenvalues     -0.84317     5.30213  converged:  T
     TRS4 it   1 1.00000000   0.560E+02       0.019     5200.559   0.100E-11
     TRS4 it   2 1.00000000   0.541E+02       0.019     5380.756   0.100E-11
     TRS4 it   3 1.00000000   0.349E+02       0.036     5557.945   0.100E-11
     TRS4 it   4 1.00000000   0.185E+02       0.036     5507.685   0.100E-11
     TRS4 it   5 1.00000000   0.119E+02       0.036     5623.228   0.100E-11
     TRS4 it   6 1.00000000   0.619E+01       0.037     5474.287   0.100E-11
     TRS4 it   7 1.00000000   0.244E+01       0.036     5519.715   0.100E-11
     TRS4 it   8 1.00000000   0.656E+00       0.036     5537.249   0.100E-11
     TRS4 it   9 1.00000000   0.925E-01       0.037     5452.566   0.100E-11
     TRS4 it  10 1.00000000   0.418E-02       0.036     5510.718   0.100E-11
     TRS4 it  11 1.00000000   0.516E-05       0.036     5555.218   0.100E-11
     TRS4 it  12 1.00000000   0.106E-10       0.036     5552.595   0.100E-11
     Final TRS4 iteration   12 1.00000000   0.106E-10
     Chemical potential (mu):      -0.01991

 SCF     8     -1103.152522208        -0.000004760    2.071624


 SCF run converged in     8 steps.

 Writing restart DM 64H2O_ref_LS_DM_SPIN_1_RESTART.dm with checksum:       0.60517596E+04

 ENERGY| Total FORCE_EVAL ( QS ) energy [a.u.]:            -1103.152522208326218

 -------------------------------------------------------------------------------
 -                                                                             -
 -                                DBCSR STATISTICS                             -
 -                                                                             -
 -------------------------------------------------------------------------------
 COUNTER                                    TOTAL       BLAS       SMM       ACC
 flops     5 x     5 x     5          79176844750       0.0%    100.0%      0.0%     
 flops     5 x    13 x     5         102503893700       0.0%    100.0%      0.0%     
 flops    13 x     5 x     5         102519182350       0.0%    100.0%      0.0%     
 flops     5 x     5 x    13         103013211600       0.0%    100.0%      0.0%     
 flops     5 x    13 x    13         133413463820       0.0%    100.0%      0.0%     
 flops    13 x     5 x    13         133450566080       0.0%    100.0%      0.0%     
 flops    13 x    13 x     5         134584412430       0.0%    100.0%      0.0%     
 flops    13 x    13 x    13         175256992456       0.0%    100.0%      0.0%     
 flops inhomo. stacks                           0       0.0%      0.0%      0.0%
 flops total                       963.918567E+09       0.0%    100.0%      0.0%
 flops max/rank                     30.933806E+09       0.0%    100.0%      0.0%
 matmuls inhomo. stacks                         0       0.0%      0.0%      0.0%
 matmuls total                         1068038341       0.0%    100.0%      0.0%
 number of processed stacks               1512840       0.0%    100.0%      0.0%
 average stack size                                     0.0     706.0       0.0
 marketing flops                     1.569237E+12
 -------------------------------------------------------------------------------
 # multiplications                            246
 max memory usage/rank             618.414080E+06
 # max total images/rank                        2
 # max 3D layers                                1
 # MPI messages exchanged                  102336
 MPI messages size (bytes):
  total size                        42.271539E+09
  min size                           0.000000E+00
  max size                         541.696000E+03
  average size                     413.066156E+03
 MPI breakdown and total messages size (bytes):
             size <=      128                 312                        0
       128 < size <=     8192                  42                   279312
      8192 < size <=    32768                  62                   841968
     32768 < size <=   131072                 318                 35224512
    131072 < size <=  4194304              101602              42235194368
   4194304 < size <= 16777216                   0                        0
  16777216 < size                               0                        0
 -------------------------------------------------------------------------------

 *** WARNING in dbcsr_mm.F:301 :: Using a non-square number of MPI ranks ***
 *** might lead to poor performance. Used ranks: 32 Suggested: 36 64     ***

 -------------------------------------------------------------------------------
 -                                                                             -
 -                      DBCSR MESSAGE PASSING PERFORMANCE                      -
 -                                                                             -
 -------------------------------------------------------------------------------
 ROUTINE             CALLS      AVE VOLUME [Bytes]
 MP_Bcast                9                     12.
 MP_Allreduce         1762                     34.
 MP_Alltoall           546                  34827.
 MP_ISend             8604                 170445.
 MP_IRecv             8238                 178626.
 -------------------------------------------------------------------------------

 -------------------------------------------------------------------------------
 -                                                                             -
 -                                DBM STATISTICS                               -
 -                                                                             -
 -------------------------------------------------------------------------------
    M  x    N  x    K                                          COUNT     PERCENT
 -------------------------------------------------------------------------------

 -------------------------------------------------------------------------------
 -                                                                             -
 -                                GRID STATISTICS                              -
 -                                                                             -
 -------------------------------------------------------------------------------
 LP    KERNEL             BACKEND                              COUNT     PERCENT
 2     collocate ortho    CPU                                7374654      28.82%
 2     integrate ortho    CPU                                7374654      28.82%
 3     collocate ortho    CPU                                4741101      18.53%
 3     integrate ortho    CPU                                4741101      18.53%
 4     collocate ortho    CPU                                 674478       2.64%
 4     integrate ortho    CPU                                 674478       2.64%
 0     collocate general  CPU                                   6144       0.02%
 -------------------------------------------------------------------------------

 MEMORY| Estimated peak process memory [MiB]                                 591

 -------------------------------------------------------------------------------
 -                                                                             -
 -                         MESSAGE PASSING PERFORMANCE                         -
 -                                                                             -
 -------------------------------------------------------------------------------

 ROUTINE             CALLS      AVE VOLUME [Bytes]
 MP_Group                5
 MP_Bcast             2052                 189741.
 MP_Allreduce         5576                    941.
 MP_Sync                 5
 MP_Alltoall           244               11109114.
 MP_SendRecv           837                  18832.
 MP_ISendRecv          837                  18832.
 MP_Wait              2391
 MP_ISend             1406                 108579.
 MP_IRecv             1406                 108603.
 -------------------------------------------------------------------------------


 -------------------------------------------------------------------------------
 -                                                                             -
 -                           R E F E R E N C E S                               -
 -                                                                             -
 -------------------------------------------------------------------------------
 
 CP2K version 2024.3 (Development Version), the CP2K developers group (2024).
 CP2K is freely available from https://www.cp2k.org/ .
 
 T. D. Kuehne, M. Iannuzzi, M. Del Ben, V. V. Rybkin, P. Seewald, F. Stein, T. 
 Laino, R. Z. Khaliullin, O. Schuett, F. Schiffmann, D. Golze, J. Wilhelm, S. 
 Chulkov, M. H. Bani-Hashemian, V. Weber, U. Borstnik, M. Taillefumier, A. S. 
 Jakobovits, A. Lazzaro, H. Pabst, T. Mueller, R. Schade, M. Guidon, S. 
 Andermatt, N. Holmberg, G. K. Schenter, A. Hehn, A. Bussy, F. Belleflamme, G. 
 Tabacchi, A. Gloess, M. Lass, I. Bethune, C. J. Mundy, C. Plessl, M. Watkins, 
 J. VandeVondele, M. Krack, J. Hutter.
 J. Chem. Phys. 152, 194103 (2020).
 CP2K: An electronic structure and molecular dynamics software package - 
 Quickstep: Efficient and accurate electronic structure calculations.
 https://doi.org/10.1063/5.0007045

 O. Schuett, P. Messmer, J. Hutter, J. VandeVondele.
 Electronic Structure Calculations on Graphics Processing Units, 173-190 (2016).
 GPU-Accelerated Sparse Matrix-Matrix Multiplication for Linear Scaling Density 
 Functional Theory.
 https://doi.org/10.1002/9781118670712.ch8

 A. Heinecke, G. Henry, M. Hutchinson, H. Pabst.
 Proceedings of Intl. Supercomputing Conference, 981-991 (2016).
 LIBXSMM: Accelerating Small Matrix Multiplications by Runtime Code Generation.
 https://doi.org/10.1109/SC.2016.83

 J. Hutter, M. Iannuzzi, F. Schiffmann, J. VandeVondele.
 WIREs Comput Mol Sci. 4, 15-25 (2014).
 CP2K: atomistic simulations of condensed matter systems.
 https://doi.org/10.1002/wcms.1159

 U. Borstnik, J. VandeVondele, V. Weber, J. Hutter.
 Parallel Comput. 40, 47-58 (2014).
 Sparse matrix multiplication: The distributed block-compressed sparse row 
 library.
 https://doi.org/10.1016/j.parco.2014.03.012

 A. Marek, V. Blum, R. Johanni, V. Havu, B. Lang, T. Auckenthaler, A. Heinecke, 
 H. Bungartz, H. Lederer.
 J. Phys. Condens. Matter 26, 213201 (2014).
 The ELPA library: scalable parallel eigenvalue solutions for electronic 
 structure theory and computational science.
 https://doi.org/10.1088/0953-8984/26/21/213201

 J. VandeVondele, U. Borstnik, J. Hutter.
 J. Chem. Theory Comput. 8, 3565-3573 (2012).
 Linear Scaling Self-Consistent Field Calculations with Millions of Atoms in the 
 Condensed Phase.
 https://doi.org/10.1021/ct200897x

 J. VandeVondele, J. Hutter.
 J. Chem. Phys. 127, 114105 (2007).
 Gaussian basis sets for accurate calculations on molecular systems in gas and 
 condensed phases.
 https://doi.org/10.1063/1.2770708

 J. VandeVondele, M. Krack, F. Mohamed, M. Parrinello, T. Chassaing, J. Hutter.
 Comput. Phys. Commun. 167, 103-128 (2005).
 QUICKSTEP: Fast and accurate density functional calculations using a mixed 
 Gaussian and plane waves approach.
 https://doi.org/10.1016/j.cpc.2004.12.014

 M. Krack.
 Theor. Chem. Acc. 114, 145-152 (2005).
 Pseudopotentials for H to Kr optimized for gradient-corrected 
 exchange-correlation functionals.
 https://doi.org/10.1007/s00214-005-0655-y

 M. Frigo, S. G. Johnson.
 Proc. IEEE 93, 216-231 (2005).
 The design and implementation of FFTW3.
 https://doi.org/10.1109/JPROC.2004.840301

 A. M. N. Niklasson, C. J. Tymczak, M. Challacombe.
 J. Chem. Phys. 118, 8611-8620 (2003).
 Trace resetting density matrix purification in O(N) self-consistent-field 
 theory.
 https://doi.org/10.1063/1.1559913

 C. Hartwigsen, S. Goedecker, J. Hutter.
 Phys. Rev. B 58, 3641-3662 (1998).
 Relativistic separable dual-space Gaussian pseudopotentials from H to Rn.
 https://doi.org/10.1103/PhysRevB.58.3641

 G. Lippert, J. Hutter, M. Parrinello.
 Mol. Phys. 92, 477-487 (1997).
 A hybrid Gaussian and plane wave density functional scheme.
 https://doi.org/10.1080/002689797170220

 S. Goedecker, M. Teter, J. Hutter.
 Phys. Rev. B 54, 1703-1710 (1996).
 Separable dual-space Gaussian pseudopotentials.
 https://doi.org/10.1103/PhysRevB.54.1703

 J. P. Perdew, K. Burke, M. Ernzerhof.
 Phys. Rev. Lett. 77, 3865-3868 (1996).
 Generalized gradient approximation made simple.
 https://doi.org/10.1103/PhysRevLett.77.3865


 -------------------------------------------------------------------------------
 -                                                                             -
 -                                T I M I N G                                  -
 -                                                                             -
 -------------------------------------------------------------------------------
 SUBROUTINE                       CALLS  ASD         SELF TIME        TOTAL TIME
                                MAXIMUM       AVERAGE  MAXIMUM  AVERAGE  MAXIMUM
 CP2K                                 1  1.0    0.013    0.015   20.465   20.466
 qs_energies                          1  2.0    0.000    0.000   20.309   20.310
 ls_scf                               1  3.0    0.000    0.000   19.143   19.145
 ls_scf_main                          1  4.0    0.000    0.000   16.601   16.605
 ls_scf_dm_to_ks                      8  5.0    0.000    0.000   12.387   12.390
 qs_ks_update_qs_env                  9  6.1    0.000    0.000    7.800    7.801
 rebuild_ks_matrix                    9  7.1    0.000    0.000    7.794    7.795
 qs_ks_build_kohn_sham_matrix         9  8.1    0.002    0.002    7.794    7.795
 qs_rho_update_rho_low                9  6.1    0.000    0.000    6.144    6.147
 calculate_rho_elec                   9  7.1    0.003    0.003    6.144    6.147
 sum_up_and_integrate                 9  9.1    0.000    0.000    5.899    5.900
 integrate_v_rspace                   9 10.1    0.000    0.000    5.890    5.892
 grid_collocate_task_list             9  8.1    5.444    5.542    5.444    5.542
 grid_integrate_task_list             9 11.1    5.200    5.281    5.200    5.281
 dbcsr_multiply_generic             246  6.2    0.012    0.013    4.658    4.661
 density_matrix_trs4                  8  5.0    0.004    0.006    4.209    4.211
 multiply_cannon                    246  7.2    0.018    0.021    3.790    3.865
 multiply_cannon_loop               246  8.2    0.019    0.021    3.716    3.755
 ls_scf_init_scf                      1  4.0    0.000    0.000    2.480    2.481
 multiply_cannon_multrec           1968  9.2    2.091    2.145    2.098    2.151
 mp_waitall_1                     16729 10.5    1.763    1.860    1.763    1.860
 fft_wrap_pw1pw2                    172 11.3    0.003    0.003    1.756    1.781
 fft_wrap_pw1pw2_200                100 12.8    0.103    0.110    1.683    1.709
 qs_vxc_create                        9  9.1    0.000    0.000    1.549    1.576
 xc_vxc_pw_create                     9 10.1    0.013    0.019    1.549    1.576
 ls_scf_initial_guess                 1  5.0    0.000    0.000    1.561    1.563
 ls_scf_qs_atomic_guess               1  6.0    0.000    0.000    1.561    1.563
 multiply_cannon_metrocomm3        1968  9.2    0.005    0.006    1.381    1.471
 fft3d_ps                           172 13.3    0.710    0.778    1.320    1.364
 xc_pw_derive                        54 12.1    0.001    0.001    1.098    1.181
 qs_energies_init_hamiltonians        1  3.0    0.000    0.000    1.165    1.165
 build_core_hamiltonian_matrix        1  4.0    0.000    0.000    0.730    0.968
 ls_scf_init_matrix_S                 1  5.0    0.000    0.000    0.919    0.920
 matrix_sqrt_Newton_Schulz            1  6.0    0.001    0.001    0.895    0.896
 xc_rho_set_and_dset_create           9 11.1    0.020    0.027    0.782    0.803
 xc_pw_divergence                     9 11.1    0.000    0.000    0.735    0.775
 density_rs2pw                        9  8.1    0.000    0.000    0.667    0.767
 mp_waitany                        1406 12.5    0.608    0.745    0.608    0.745
 build_core_ppl                       1  5.0    0.499    0.720    0.499    0.720
 make_m2s                           492  7.2    0.005    0.007    0.683    0.696
 make_images                        492  8.2    0.039    0.040    0.673    0.687
 transfer_rs2pw                      46  9.0    0.001    0.001    0.542    0.668
 mp_alltoall_z22v                   172 15.3    0.434    0.618    0.434    0.618
 potential_pw2rs                      9 11.1    0.000    0.001    0.598    0.600
 transfer_rs2pw_200                  10  9.8    0.035    0.051    0.437    0.562
 qs_env_update_s_mstruct              1  4.0    0.000    0.000    0.415    0.507
 make_images_data                   492  9.2    0.005    0.007    0.376    0.414
 -------------------------------------------------------------------------------

 The number of warnings for this run is : 1
 
 -------------------------------------------------------------------------------
  **** **** ******  **  PROGRAM ENDED AT                 2024-09-23 17:35:56.414
 ***** ** ***  *** **   PROGRAM RAN ON                                    moritz
 **    ****   ******    PROGRAM RAN BY                                       ole
 ***** **    ** ** **   PROGRAM PROCESS ID                                156436
  **** **  *******  **  PROGRAM STOPPED IN /home/ole/git/pao_ml_equivar/64H2O_MD
                                           /Frame1800
