 DBCSR| CPU Multiplication driver                                           XSMM (U)
 DBCSR| Multrec recursion limit                                              512 (U)
 DBCSR| Multiplication stack size                                           1000 (D)
 DBCSR| Maximum elements for images                                    UNLIMITED (U)
 DBCSR| Multiplicative factor virtual images                                   1 (U)
 DBCSR| Use multiplication densification                                       T (D)
 DBCSR| Multiplication size stacks                                             3 (U)
 DBCSR| Use memory pool for CPU allocation                                     F (U)
 DBCSR| OMP: Current number of threads                                         1
 DBCSR| OMP: Max number of threads                                             1
 DBCSR| Split modifier for TAS multiplication algorithm                  1.0E+00 (U)


  **** **** ******  **  PROGRAM STARTED AT               2023-02-01 10:47:55.382
 ***** ** ***  *** **   PROGRAM STARTED ON                                moritz
 **    ****   ******    PROGRAM STARTED BY                                   ole
 ***** **    ** ** **   PROGRAM PROCESS ID                                148693
  **** **  *******  **  PROGRAM STARTED IN /home/ole/git/pao_ml_equivar/2H2O_MD/
                                           frame_0275

 CP2K| version string:                 CP2K version 2023.1 (Development Version)
 CP2K| source code revision number:                                  git:03b4147
 CP2K| cp2kflags: omp libint fftw3 libxc quip xsmm spglib libvori libbqb libtorc
 CP2K|            h
 CP2K| is freely available from                            https://www.cp2k.org/
 CP2K| Program compiled at                           Mi 01 Feb 2023 10:36:52 CET
 CP2K| Program compiled on                                                moritz
 CP2K| Program compiled for                                                local
 CP2K| Data directory path                               /home/ole/git/cp2k/data
 CP2K| Input file name                                            2H2O_pao44.inp

 GLOBAL| Force Environment number                                              1
 GLOBAL| Basis set file name                                        BASIS_MOLOPT
 GLOBAL| Potential file name                                      GTH_POTENTIALS
 GLOBAL| MM Potential file name                                     MM_POTENTIAL
 GLOBAL| Coordinate file name                                         coords.xyz
 GLOBAL| Method name                                                        CP2K
 GLOBAL| Project name                                                 2H2O_pao44
 GLOBAL| Run type                                                         ENERGY
 GLOBAL| FFT library                                                       FFTW3
 GLOBAL| Diagonalization library                                       ScaLAPACK
 GLOBAL| DGEMM library                                                      BLAS
 GLOBAL| Orthonormality check for eigenvectors                          DISABLED
 GLOBAL| Matrix multiplication library                                 ScaLAPACK
 GLOBAL| All-to-all communication in single precision                          F
 GLOBAL| FFTs using library dependent lengths                                  F
 GLOBAL| Grid backend                                                       AUTO
 GLOBAL| Global print level                                                  LOW
 GLOBAL| MPI I/O enabled                                                       T
 GLOBAL| Total number of message passing processes                             1
 GLOBAL| Number of threads for this process                                    1
 GLOBAL| This output is from process                                           0
 GLOBAL| Stack size for threads created by OpenMP (OMP_STACKSIZE)        default
 GLOBAL| CPU model name           AMD Ryzen Threadripper 3970X 32-Core Processor
 GLOBAL| CPUID                                                              1002
 GLOBAL| Compiled for CPUID                                                    0

 *** HINT in environment.F:884 :: The compiler target flags (generic) used ***
 *** to build this binary cannot exploit all extensions of this CPU model  ***
 *** (x86_avx2). Consider compiler target flags as part of FCFLAGS and     ***
 *** CFLAGS (ARCH file).                                                   ***


 MEMORY| system memory details [Kb]
 MEMORY|                        rank 0           min           max       average
 MEMORY| MemTotal            131773860     131773860     131773860     131773860
 MEMORY| MemFree             115359180     115359180     115359180     115359180
 MEMORY| Buffers                302624        302624        302624        302624
 MEMORY| Cached                7056636       7056636       7056636       7056636
 MEMORY| Slab                   780228        780228        780228        780228
 MEMORY| SReclaimable           332704        332704        332704        332704
 MEMORY| MemLikelyFree       123051144     123051144     123051144     123051144


 GENERATE|  Preliminary Number of Bonds generated:                             0
 GENERATE|  Achieved consistency in connectivity generation.

 *******************************************************************************
 *******************************************************************************
 **                                                                           **
 **     #####                         ##              ##                      **
 **    ##   ##            ##          ##              ##                      **
 **   ##     ##                       ##            ######                    **
 **   ##     ##  ##   ##  ##   #####  ##  ##   ####   ##    #####    #####    **
 **   ##     ##  ##   ##  ##  ##      ## ##   ##      ##   ##   ##  ##   ##   **
 **   ##  ## ##  ##   ##  ##  ##      ####     ###    ##   ######   ######    **
 **    ##  ###   ##   ##  ##  ##      ## ##      ##   ##   ##       ##        **
 **     #######   #####   ##   #####  ##  ##  ####    ##    #####   ##        **
 **           ##                                                    ##        **
 **                                                                           **
 **                                                ... make the atoms dance   **
 **                                                                           **
 **            Copyright (C) by CP2K developers group (2000-2023)             **
 **                      J. Chem. Phys. 152, 194103 (2020)                    **
 **                                                                           **
 *******************************************************************************


 TOTAL NUMBERS AND MAXIMUM NUMBERS

  Total number of            - Atomic kinds:                                   2
                             - Atoms:                                          6
                             - Shell sets:                                     6
                             - Shells:                                        22
                             - Primitive Cartesian functions:                 42
                             - Cartesian basis functions:                     48
                             - Spherical basis functions:                     46

  Maximum angular momentum of- Orbital basis functions:                        2
                             - Local part of the GTH pseudopotential:          2
                             - Non-local part of the GTH pseudopotential:      0

 ------------------------------ Linear scaling SCF -----------------------------
 eps_scf:                                                              0.100E-07
 eps_filter:                                                           0.100E-07
 mixing_fraction:                                                      0.450E+00
 max_scf:                                                                     25
 fixed chemical potential (mu)                                                 F
 has unit metric:                                                              F
 Computing inv(S):                                                             T
 Computing sqrt(S):                                                            T
 Computing S preconditioner                                                    F
 S sqrt method:                                                     NEWTONSCHULZ
 S sqrt order:                                                                 3
 Extrapolation order:                                                          1
 Use single precision matrices                                                 F
 S preconditioner type                                                      NONE
 Polarized Atomic Orbitals (PAO)                                               T
 Purification method                                   Trace resetting 4th order
 Cluster type                                                             ATOMIC
 Computing Chebyshev                                                       FALSE
 Using PAO                                                                     T
 -------------------------------------------------------------------------------

 
 PAO|                                  EPS_PAO                           0.5E-06
 PAO|                                  MIXING                            0.5E+00
 PAO|                                  MAX_PAO                              1500
 PAO|                                  MAX_CYCLES                           1000
 PAO|                                  PARAMETERIZATION              EQUIVARIANT
 PAO|                                  PRECONDITION                            F
 PAO|                                  REGULARIZATION                    0.0E+00
 PAO|                                  EPS_PGF                           0.1E-09
 PAO|                                  PENALTY_DISTANCE                  0.1E+00
 PAO|                                  PENALTY_STRENGTH                  0.5E-02
 PAO|                                  LINPOT_PRECONDITION_DELTA         0.0E+00
 PAO|                                  LINPOT_INITGUESS_DELT             0.0E+00
 PAO|                                  LINPOT_REGULARIZATION_DELTA       0.0E+00
 PAO|                                  LINPOT_REGULARIZATION_STRENGTH    0.0E+00
 PAO|                                  OPTIMIZER                              CG
 PAO|                                  CG_INIT_STEPS                           2
 PAO|                                  CG_RESET_LIMIT                    0.1E+00
 PAO|                                  CHECK_UNITARY_TOL                -0.1E+01
 PAO|                                  CHECK_GRADIENT_TOL               -0.1E+01
 PAO|                                  NUM_GRADIENT_ORDER                      2
 PAO|                                  NUM_GRADIENT_EPS                  0.1E-07
 PAO|                                  PRINT%RESTART%WRITE_CYCLES            100
 PAO|                                  RESTART_FILE 
 PAO|                                  PREOPT_DM_FILE 2H2O_ref_LS_DM_SPIN_1_RESTART.dm
 PAO|                                  MACHINE_LEARNING%METHOD       GAUSSIAN_PR
 PAO|                                  MACHINE_LEARNING%PRIOR               ZERO
 PAO|                                  MACHINE_LEARNING%DESCRIPTOR     POTENTIAL
 PAO|                                  MACHINE_LEARNING%TOLERANCE        0.1E-01
 PAO|                                  MACHINE_LEARNING%GP_NOISE_VAR     0.1E+00
 PAO|                                  MACHINE_LEARNING%GP_SCALE         0.5E-01
 

 Calculating atomic Fock matrix for atomic kind: O

 Electronic structure
    Total number of core electrons                                          2.00
    Total number of valence electrons                                       6.00
    Total number of electrons                                               8.00
    Multiplicity                                                   not specified
    S   [  2.00] 2.00
    P      4.00


 *******************************************************************************
                  Iteration          Convergence                     Energy [au]
 *******************************************************************************
                          1        0.708315                     -15.576645311500
                          2        0.608879                     -15.587933561584
                          3        0.102828E-01                 -15.656849565404
                          4        0.113889E-02                 -15.656866888140
                          5        0.434197E-03                 -15.656867072159
                          6        0.263771E-03                 -15.656867091904
                          7        0.478536E-06                 -15.656867103452

 Energy components [Hartree]           Total Energy ::          -15.656867103452
                                        Band Energy ::           -3.000198112285
                                     Kinetic Energy ::           11.759971203220
                                   Potential Energy ::          -27.416838306672
                                      Virial (-V/T) ::            2.331369510426
                                        Core Energy ::          -26.140716385623
                                          XC Energy ::           -3.154051012914
                                     Coulomb Energy ::           13.637900295084
                       Total Pseudopotential Energy ::          -37.935781716540
                       Local Pseudopotential Energy ::          -39.218907440693
                    Nonlocal Pseudopotential Energy ::            1.283125724153
                                        Confinement ::            0.350941276976

 Orbital energies  State     L     Occupation   Energy[a.u.]          Energy[eV]

                       1     0          2.000      -0.864471          -23.523463

                       1     1          4.000      -0.317814           -8.648154


 Total Electron Density at R=0:                                         0.000068

 Calculating atomic Fock matrix for atomic kind: H

 Electronic structure
    Total number of core electrons                                          0.00
    Total number of valence electrons                                       1.00
    Total number of electrons                                               1.00
    Multiplicity                                                   not specified
    S      1.00


 *******************************************************************************
                  Iteration          Convergence                     Energy [au]
 *******************************************************************************
                          1        0.437545E-02                  -0.424159432110
                          2        0.531356E-03                  -0.424178438213
                          3        0.259176E-06                  -0.424178722480

 Energy components [Hartree]           Total Energy ::           -0.424178722480
                                        Band Energy ::           -0.199015229016
                                     Kinetic Energy ::            0.464007633961
                                   Potential Energy ::           -0.888186356441
                                      Virial (-V/T) ::            1.914163240935
                                        Core Energy ::           -0.479160803564
                                          XC Energy ::           -0.244352904054
                                     Coulomb Energy ::            0.299334985138
                       Total Pseudopotential Energy ::           -0.962295316385
                       Local Pseudopotential Energy ::           -0.962295316385
                    Nonlocal Pseudopotential Energy ::            0.000000000000
                                        Confinement ::            0.191268788606

 Orbital energies  State     L     Occupation   Energy[a.u.]          Energy[eV]

                       1     0          1.000      -0.199015           -5.415480


 Total Electron Density at R=0:                                         0.242907
 PAO| Made initial guess for matrix_X with norm:   4.8989794855663558     

     Lanczos converged:  T threshold:   0.100E-02
     Est. extremal eigenvalues:    0.343E+01   0.116E+00
     Est. condition number :    0.295E+02

 Order=           3
     NS sqrt iter    1 1.00000000   0.840E+00       0.001       61.334
     NS sqrt iter    2 1.00000000   0.451E+00       0.001      110.592
     NS sqrt iter    3 1.00000000   0.172E+00       0.001      110.592
     NS sqrt iter    4 1.00000000   0.210E-01       0.001      110.592
     NS sqrt iter    5 1.00000000   0.570E-04       0.001       92.416
     Symmetrizing Results
     Final NS sqrt iter    5 1.00000000   0.404E-08

 PAO| Read restart DM 2H2O_ref_LS_DM_SPIN_1_RESTART.dm with checksum:    60.138835379274546     
 PAO| Quickstep energy from restart density:  -34.446810061995215     
 PAO| ======================= Iteration:         1 =============================

     Lanczos converged:  T threshold:   0.100E-02
     Est. extremal eigenvalues:    0.343E+01   0.116E+00
     Est. condition number :    0.295E+02

 Order=           3
     NS sqrt iter    1 1.00000000   0.840E+00       0.001       60.170
     NS sqrt iter    2 1.00000000   0.451E+00       0.001      102.635
     NS sqrt iter    3 1.00000000   0.172E+00       0.001      110.592
     NS sqrt iter    4 1.00000000   0.210E-01       0.001      110.592
     NS sqrt iter    5 1.00000000   0.570E-04       0.001       92.416
     Symmetrizing Results
     Final NS sqrt iter    5 1.00000000   0.404E-08

     Est. extremal eigenvalues     -0.90814     1.82372  converged:  T
     TRS4 it   1 1.00000000   0.856E+00       0.000       16.128   0.100E-07
     TRS4 it   2 1.00000000   0.673E+00       0.001       32.256   0.100E-07
     TRS4 it   3 1.00000000   0.490E+00       0.001       32.256   0.100E-07
     TRS4 it   4 1.00000000   0.310E+00       0.001       32.256   0.100E-07
     TRS4 it   5 1.00000000   0.154E+00       0.001       32.256   0.100E-07
     TRS4 it   6 1.00000000   0.466E-01       0.001       32.256   0.100E-07
     TRS4 it   7 1.00000000   0.580E-02       0.001       32.256   0.100E-07
     TRS4 it   8 1.00000000   0.116E-03       0.001       32.256   0.100E-07
     TRS4 it   9 1.00000000   0.523E-07       0.001       32.256   0.100E-07
     Final TRS4 iteration    9 1.00000000   0.523E-07
     Chemical potential (mu):      -0.07918
 
 PAO| energy:  -7.6543493802451543      penalty:   3.3896367021215347E-033
 PAO|CG| warming up with steepest descent
 PAO|CG| beta:    0.0000000000000000     
 PAO| norm of gradient:  0.78004983827541041     
 PAO|LS| adapt:  T F F
 PAO|LS| adapt: scan_steps:    0.0000000000000000        0.0000000000000000        0.0000000000000000     
 PAO|LS| adapt: energies:   -7.6543493802451543        0.0000000000000000        0.0000000000000000     
 PAO| ======================= Iteration:         2 =============================

     Lanczos converged:  T threshold:   0.100E-02
     Est. extremal eigenvalues:    0.334E+01   0.129E+00
     Est. condition number :    0.259E+02

 Order=           3
     NS sqrt iter    1 1.00000000   0.822E+00       0.001       62.289
     NS sqrt iter    2 1.00000000   0.435E+00       0.001      106.239
     NS sqrt iter    3 1.00000000   0.154E+00       0.001      103.461
     NS sqrt iter    4 1.00000000   0.146E-01       0.001      104.785
     NS sqrt iter    5 1.00000000   0.185E-04       0.001       81.835
     Symmetrizing Results
     Final NS sqrt iter    5 1.00000000   0.528E-09

     Est. extremal eigenvalues     -0.91169     1.78183  converged:  T
     TRS4 it   1 1.00000000   0.854E+00       0.000       16.128   0.100E-07
     TRS4 it   2 1.00000000   0.658E+00       0.001       32.256   0.100E-07
     TRS4 it   3 1.00000000   0.476E+00       0.001       32.256   0.100E-07
     TRS4 it   4 1.00000000   0.291E+00       0.001       32.256   0.100E-07
     TRS4 it   5 1.00000000   0.135E+00       0.001       32.256   0.100E-07
     TRS4 it   6 1.00000000   0.363E-01       0.001       32.256   0.100E-07
     TRS4 it   7 1.00000000   0.354E-02       0.001       32.256   0.100E-07
     TRS4 it   8 1.00000000   0.436E-04       0.001       32.256   0.100E-07
     TRS4 it   9 1.00000000   0.742E-08       0.001       32.256   0.100E-07
     Final TRS4 iteration    9 1.00000000   0.742E-08
     Chemical potential (mu):      -0.06841
 
 PAO| energy:  -7.7092674246653798      penalty:   2.2050615760873037E-008
 PAO|LS| adapt:  T T F
 PAO|LS| adapt: scan_steps:    0.0000000000000000       0.10000000000000001        0.0000000000000000     
 PAO|LS| adapt: energies:   -7.6543493802451543       -7.7092674246653798        0.0000000000000000     
 PAO| ======================= Iteration:         3 =============================

     Lanczos converged:  T threshold:   0.100E-02
     Est. extremal eigenvalues:    0.324E+01   0.140E+00
     Est. condition number :    0.232E+02

 Order=           3
     NS sqrt iter    1 1.00000000   0.803E+00       0.001       60.395
     NS sqrt iter    2 1.00000000   0.418E+00       0.001      101.739
     NS sqrt iter    3 1.00000000   0.137E+00       0.001      104.511
     NS sqrt iter    4 1.00000000   0.101E-01       0.001      103.397
     NS sqrt iter    5 1.00000000   0.637E-05       0.001       75.592
     Symmetrizing Results
     Final NS sqrt iter    5 1.00000000   0.651E-10

     Est. extremal eigenvalues     -0.91503     1.75299  converged:  T
     TRS4 it   1 1.00000000   0.855E+00       0.000       16.128   0.100E-07
     TRS4 it   2 1.00000000   0.646E+00       0.001       32.256   0.100E-07
     TRS4 it   3 1.00000000   0.463E+00       0.001       32.256   0.100E-07
     TRS4 it   4 1.00000000   0.273E+00       0.001       32.256   0.100E-07
     TRS4 it   5 1.00000000   0.119E+00       0.001       32.256   0.100E-07
     TRS4 it   6 1.00000000   0.277E-01       0.001       32.256   0.100E-07
     TRS4 it   7 1.00000000   0.205E-02       0.001       32.256   0.100E-07
     TRS4 it   8 1.00000000   0.146E-04       0.001       32.256   0.100E-07
     TRS4 it   9 1.00000000   0.836E-09       0.001       32.256   0.100E-07
     Final TRS4 iteration    9 1.00000000   0.836E-09
     Chemical potential (mu):      -0.05649
 
 PAO| energy:  -7.7517191132662520      penalty:   3.5280959159627143E-007
 PAO|LS| adapt:  T T F
 PAO|LS| adapt: scan_steps:    0.0000000000000000       0.20000000000000001        0.0000000000000000     
 PAO|LS| adapt: energies:   -7.6543493802451543       -7.7517191132662520        0.0000000000000000     
 PAO| ======================= Iteration:         4 =============================

     Lanczos converged:  T threshold:   0.100E-02
     Est. extremal eigenvalues:    0.303E+01   0.156E+00
     Est. condition number :    0.195E+02

 Order=           3
     NS sqrt iter    1 1.00000000   0.762E+00       0.001       58.445
     NS sqrt iter    2 1.00000000   0.381E+00       0.001       96.589
     NS sqrt iter    3 1.00000000   0.107E+00       0.001      100.397
     NS sqrt iter    4 1.00000000   0.501E-02       0.001      104.435
     NS sqrt iter    5 1.00000000   0.102E-05       0.001       81.017
     Symmetrizing Results
     Final NS sqrt iter    5 1.00000000   0.989E-10

     Est. extremal eigenvalues     -0.92031     1.71990  converged:  T
     TRS4 it   1 1.00000000   0.860E+00       0.000       16.128   0.100E-07
     TRS4 it   2 1.00000000   0.629E+00       0.001       32.256   0.100E-07
     TRS4 it   3 1.00000000   0.440E+00       0.001       32.256   0.100E-07
     TRS4 it   4 1.00000000   0.243E+00       0.001       32.256   0.100E-07
     TRS4 it   5 1.00000000   0.909E-01       0.001       32.256   0.100E-07
     TRS4 it   6 1.00000000   0.155E-01       0.001       32.256   0.100E-07
     TRS4 it   7 1.00000000   0.597E-03       0.001       32.256   0.100E-07
     TRS4 it   8 1.00000000   0.122E-05       0.001       32.256   0.100E-07
     TRS4 it   9 1.00000000   0.605E-11       0.001       32.256   0.100E-07
     Final TRS4 iteration    9 1.00000000   0.605E-11
     Chemical potential (mu):      -0.02998
 
 PAO| energy:  -7.7978167323292924      penalty:   5.6449513809225497E-006
 PAO|LS| Need extra step
 PAO|LS| adapt:  T T F
 PAO|LS| adapt: scan_steps:    0.0000000000000000       0.40000000000000002        0.0000000000000000     
 PAO|LS| adapt: energies:   -7.6543493802451543       -7.7978167323292924        0.0000000000000000     
 PAO| ======================= Iteration:         5 =============================

     Lanczos converged:  T threshold:   0.100E-02
     Est. extremal eigenvalues:    0.264E+01   0.179E+00
     Est. condition number :    0.148E+02

 Order=           3
     NS sqrt iter    1 1.00000000   0.689E+00       0.001       62.618
     NS sqrt iter    2 1.00000000   0.315E+00       0.001      102.046
     NS sqrt iter    3 1.00000000   0.647E-01       0.001      103.319
     NS sqrt iter    4 1.00000000   0.141E-02       0.001      102.692
     NS sqrt iter    5 1.00000000   0.345E-07       0.001       58.216
     Symmetrizing Results
     Final NS sqrt iter    5 1.00000000   0.429E-09

     Est. extremal eigenvalues     -0.92202     1.69332  converged:  T
     TRS4 it   1 1.00000000   0.873E+00       0.000       16.128   0.100E-07
     TRS4 it   2 1.00000000   0.606E+00       0.001       32.256   0.100E-07
     TRS4 it   3 1.00000000   0.407E+00       0.001       32.256   0.100E-07
     TRS4 it   4 1.00000000   0.198E+00       0.001       32.256   0.100E-07
     TRS4 it   5 1.00000000   0.556E-01       0.001       32.256   0.100E-07
     TRS4 it   6 1.00000000   0.498E-02       0.001       32.256   0.100E-07
     TRS4 it   7 1.00000000   0.474E-04       0.001       32.256   0.100E-07
     TRS4 it   8 1.00000000   0.572E-08       0.001       32.256   0.100E-07
     Final TRS4 iteration    8 1.00000000   0.572E-08
     Chemical potential (mu):       0.02206
 
 PAO| energy:  -7.7417263040307001      penalty:   9.0319205417832985E-005
 PAO|LS| Need extra step
 PAO|LS| adapt:  T T T
 PAO|LS| adapt: scan_steps:    0.0000000000000000       0.40000000000000002       0.80000000000000004     
 PAO|LS| adapt: energies:   -7.6543493802451543       -7.7978167323292924       -7.7417263040307001     
 PAO|LS| adapt: suggested step_size:   0.48757055086297940     
 PAO|LS| adapt: predicted energy  -7.8025990106721750     
 PAO| ======================= Iteration:         6 =============================

     Lanczos converged:  T threshold:   0.100E-02
     Est. extremal eigenvalues:    0.294E+01   0.161E+00
     Est. condition number :    0.182E+02

 Order=           3
     NS sqrt iter    1 1.00000000   0.744E+00       0.001       61.084
     NS sqrt iter    2 1.00000000   0.366E+00       0.001      105.970
     NS sqrt iter    3 1.00000000   0.956E-01       0.001      107.281
     NS sqrt iter    4 1.00000000   0.375E-02       0.001      105.175
     NS sqrt iter    5 1.00000000   0.489E-06       0.001       81.394
     Symmetrizing Results
     Final NS sqrt iter    5 1.00000000   0.379E-09

     Est. extremal eigenvalues     -0.92179     1.71136  converged:  T
     TRS4 it   1 1.00000000   0.863E+00       0.000       16.128   0.100E-07
     TRS4 it   2 1.00000000   0.623E+00       0.001       32.256   0.100E-07
     TRS4 it   3 1.00000000   0.432E+00       0.001       32.256   0.100E-07
     TRS4 it   4 1.00000000   0.231E+00       0.001       32.256   0.100E-07
     TRS4 it   5 1.00000000   0.810E-01       0.001       32.256   0.100E-07
     TRS4 it   6 1.00000000   0.119E-01       0.001       32.256   0.100E-07
     TRS4 it   7 1.00000000   0.335E-03       0.001       32.256   0.100E-07
     TRS4 it   8 1.00000000   0.376E-06       0.001       32.256   0.100E-07
     TRS4 it   9 1.00000000   0.580E-12       0.001       32.256   0.100E-07
     Final TRS4 iteration    9 1.00000000   0.580E-12
     Chemical potential (mu):      -0.01758
 
 PAO| energy:  -7.8018633680907703      penalty:   1.2461492989601453E-005
 PAO|CG| warming up with steepest descent
 PAO|CG| beta:    0.0000000000000000     
 PAO| norm of gradient:  0.41719887742811973     
 PAO| energy improvement: -0.14751398784561598     
 PAO| step      6                   -7.801863368  0.261E-01  0.488E+00     0.094
 PAO|LS| adapt:  T F F
 PAO|LS| adapt: scan_steps:    0.0000000000000000        0.0000000000000000        0.0000000000000000     
 PAO|LS| adapt: energies:   -7.8018633680907703        0.0000000000000000        0.0000000000000000     
 PAO| ======================= Iteration:         7 =============================

     Lanczos converged:  T threshold:   0.100E-02
     Est. extremal eigenvalues:    0.284E+01   0.175E+00
     Est. condition number :    0.163E+02

 Order=           3
     NS sqrt iter    1 1.00000000   0.724E+00       0.001       58.826
     NS sqrt iter    2 1.00000000   0.344E+00       0.001      101.830
     NS sqrt iter    3 1.00000000   0.796E-01       0.001      104.293
     NS sqrt iter    4 1.00000000   0.229E-02       0.001      106.411
     NS sqrt iter    5 1.00000000   0.125E-06       0.001       70.099
     Symmetrizing Results
     Final NS sqrt iter    5 1.00000000   0.456E-09

     Est. extremal eigenvalues     -0.92336     1.71049  converged:  T
     TRS4 it   1 1.00000000   0.866E+00       0.000       16.128   0.100E-07
     TRS4 it   2 1.00000000   0.624E+00       0.001       32.256   0.100E-07
     TRS4 it   3 1.00000000   0.434E+00       0.001       32.256   0.100E-07
     TRS4 it   4 1.00000000   0.234E+00       0.001       32.256   0.100E-07
     TRS4 it   5 1.00000000   0.831E-01       0.001       32.256   0.100E-07
     TRS4 it   6 1.00000000   0.122E-01       0.001       32.256   0.100E-07
     TRS4 it   7 1.00000000   0.333E-03       0.001       32.256   0.100E-07
     TRS4 it   8 1.00000000   0.349E-06       0.001       32.256   0.100E-07
     TRS4 it   9 1.00000000   0.501E-12       0.001       32.256   0.100E-07
     Final TRS4 iteration    9 1.00000000   0.501E-12
     Chemical potential (mu):      -0.01547
 
 PAO| energy:  -7.7959184682309095      penalty:   1.9227669392386252E-005
 PAO|LS| adapt:  T F T
 PAO|LS| adapt: scan_steps:    0.0000000000000000        0.0000000000000000       0.48757055086297940     
 PAO|LS| adapt: energies:   -7.8018633680907703        0.0000000000000000       -7.7959184682309095     
 PAO| ======================= Iteration:         8 =============================

     Lanczos converged:  T threshold:   0.100E-02
     Est. extremal eigenvalues:    0.289E+01   0.168E+00
     Est. condition number :    0.172E+02

 Order=           3
     NS sqrt iter    1 1.00000000   0.734E+00       0.001       62.032
     NS sqrt iter    2 1.00000000   0.355E+00       0.001      106.109
     NS sqrt iter    3 1.00000000   0.874E-01       0.001      104.570
     NS sqrt iter    4 1.00000000   0.294E-02       0.001       91.639
     NS sqrt iter    5 1.00000000   0.251E-06       0.001       77.262
     Symmetrizing Results
     Final NS sqrt iter    5 1.00000000   0.743E-09

     Est. extremal eigenvalues     -0.92311     1.71069  converged:  T
     TRS4 it   1 1.00000000   0.864E+00       0.000       16.128   0.100E-07
     TRS4 it   2 1.00000000   0.623E+00       0.001       32.256   0.100E-07
     TRS4 it   3 1.00000000   0.432E+00       0.001       32.256   0.100E-07
     TRS4 it   4 1.00000000   0.232E+00       0.001       32.256   0.100E-07
     TRS4 it   5 1.00000000   0.818E-01       0.001       32.256   0.100E-07
     TRS4 it   6 1.00000000   0.121E-01       0.001       32.256   0.100E-07
     TRS4 it   7 1.00000000   0.343E-03       0.001       32.256   0.100E-07
     TRS4 it   8 1.00000000   0.384E-06       0.001       32.256   0.100E-07
     TRS4 it   9 1.00000000   0.606E-12       0.001       32.256   0.100E-07
     Final TRS4 iteration    9 1.00000000   0.606E-12
     Chemical potential (mu):      -0.01690
 
 PAO| energy:  -7.8213948252888432      penalty:   1.3577463197146622E-005
 PAO|LS| adapt:  T T T
 PAO|LS| adapt: scan_steps:    0.0000000000000000       0.24378527543148970       0.48757055086297940     
 PAO|LS| adapt: energies:   -7.8018633680907703       -7.8213948252888432       -7.7959184682309095     
 PAO|LS| adapt: suggested step_size:   0.22768497069879132     
 PAO|LS| adapt: predicted energy  -7.8214929800063295     
 PAO| ======================= Iteration:         9 =============================

     Lanczos converged:  T threshold:   0.100E-02
     Est. extremal eigenvalues:    0.290E+01   0.167E+00
     Est. condition number :    0.173E+02

 Order=           3
     NS sqrt iter    1 1.00000000   0.735E+00       0.001       58.975
     NS sqrt iter    2 1.00000000   0.355E+00       0.001      103.348
     NS sqrt iter    3 1.00000000   0.879E-01       0.001      106.115
     NS sqrt iter    4 1.00000000   0.299E-02       0.001      106.600
     NS sqrt iter    5 1.00000000   0.262E-06       0.001       78.898
     Symmetrizing Results
     Final NS sqrt iter    5 1.00000000   0.775E-09

     Est. extremal eigenvalues     -0.92305     1.71072  converged:  T
     TRS4 it   1 1.00000000   0.864E+00       0.000       16.128   0.100E-07
     TRS4 it   2 1.00000000   0.623E+00       0.001       32.256   0.100E-07
     TRS4 it   3 1.00000000   0.432E+00       0.001       32.256   0.100E-07
     TRS4 it   4 1.00000000   0.232E+00       0.001       32.256   0.100E-07
     TRS4 it   5 1.00000000   0.817E-01       0.001       32.256   0.100E-07
     TRS4 it   6 1.00000000   0.121E-01       0.001       32.256   0.100E-07
     TRS4 it   7 1.00000000   0.343E-03       0.001       32.256   0.100E-07
     TRS4 it   8 1.00000000   0.385E-06       0.001       32.256   0.100E-07
     TRS4 it   9 1.00000000   0.611E-12       0.001       32.256   0.100E-07
     Final TRS4 iteration    9 1.00000000   0.611E-12
     Chemical potential (mu):      -0.01697
 
 PAO| energy:  -7.8215148626830091      penalty:   1.3403112477793227E-005
 PAO|CG| trace_G_new    3.8886512323194990E-002
 PAO|CG| trace_G_prev   0.17405490332728327     
 PAO|CG| trace_G_mix   -1.3101541896644408E-003
 PAO|CG| trace_D   0.17405490332728327     
 PAO|CG| trace_D_Gnew   1.3101541896644408E-003
 PAO|CG| beta:   0.23094245404437602     
 PAO| norm of gradient:  0.19719663365076745     
 PAO| energy improvement:  -1.9651494592238805E-002
 PAO| step      9                   -7.821514863  0.123E-01  0.228E+00     0.059
 PAO|LS| adapt:  T F F
 PAO|LS| adapt: scan_steps:    0.0000000000000000        0.0000000000000000        0.0000000000000000     
 PAO|LS| adapt: energies:   -7.8215148626830091        0.0000000000000000        0.0000000000000000     
 PAO| ======================= Iteration:        10 =============================

     Lanczos converged:  T threshold:   0.100E-02
     Est. extremal eigenvalues:    0.285E+01   0.172E+00
     Est. condition number :    0.165E+02

 Order=           3
     NS sqrt iter    1 1.00000000   0.725E+00       0.001       60.231
     NS sqrt iter    2 1.00000000   0.346E+00       0.001      101.651
     NS sqrt iter    3 1.00000000   0.818E-01       0.001      104.194
     NS sqrt iter    4 1.00000000   0.245E-02       0.001      102.823
     NS sqrt iter    5 1.00000000   0.150E-06       0.001       76.498
     Symmetrizing Results
     Final NS sqrt iter    5 1.00000000   0.407E-09

     Est. extremal eigenvalues     -0.92400     1.71734  converged:  T
     TRS4 it   1 1.00000000   0.866E+00       0.000       16.128   0.100E-07
     TRS4 it   2 1.00000000   0.624E+00       0.001       32.256   0.100E-07
     TRS4 it   3 1.00000000   0.433E+00       0.001       32.256   0.100E-07
     TRS4 it   4 1.00000000   0.232E+00       0.001       32.256   0.100E-07
     TRS4 it   5 1.00000000   0.811E-01       0.001       32.256   0.100E-07
     TRS4 it   6 1.00000000   0.119E-01       0.001       32.256   0.100E-07
     TRS4 it   7 1.00000000   0.321E-03       0.001       32.256   0.100E-07
     TRS4 it   8 1.00000000   0.329E-06       0.001       32.256   0.100E-07
     TRS4 it   9 1.00000000   0.447E-12       0.001       32.256   0.100E-07
     Final TRS4 iteration    9 1.00000000   0.447E-12
     Chemical potential (mu):      -0.01426
 
 PAO| energy:  -7.8267047053875149      penalty:   1.3988323556708933E-005
 PAO|LS| adapt:  T T F
 PAO|LS| adapt: scan_steps:    0.0000000000000000       0.22768497069879132        0.0000000000000000     
 PAO|LS| adapt: energies:   -7.8215148626830091       -7.8267047053875149        0.0000000000000000     
 PAO| ======================= Iteration:        11 =============================

     Lanczos converged:  T threshold:   0.100E-02
     Est. extremal eigenvalues:    0.280E+01   0.178E+00
     Est. condition number :    0.158E+02

 Order=           3
     NS sqrt iter    1 1.00000000   0.715E+00       0.001       61.546
     NS sqrt iter    2 1.00000000   0.337E+00       0.001      108.094
     NS sqrt iter    3 1.00000000   0.759E-01       0.001      105.660
     NS sqrt iter    4 1.00000000   0.200E-02       0.001      105.612
     NS sqrt iter    5 1.00000000   0.833E-07       0.001       66.014
     Symmetrizing Results
     Final NS sqrt iter    5 1.00000000   0.380E-09

     Est. extremal eigenvalues     -0.92365     1.72425  converged:  T
     TRS4 it   1 1.00000000   0.868E+00       0.000       16.128   0.100E-07
     TRS4 it   2 1.00000000   0.626E+00       0.001       32.256   0.100E-07
     TRS4 it   3 1.00000000   0.434E+00       0.001       32.256   0.100E-07
     TRS4 it   4 1.00000000   0.231E+00       0.001       32.256   0.100E-07
     TRS4 it   5 1.00000000   0.803E-01       0.001       32.256   0.100E-07
     TRS4 it   6 1.00000000   0.115E-01       0.001       32.256   0.100E-07
     TRS4 it   7 1.00000000   0.297E-03       0.001       32.256   0.100E-07
     TRS4 it   8 1.00000000   0.275E-06       0.001       32.256   0.100E-07
     TRS4 it   9 1.00000000   0.313E-12       0.001       32.256   0.100E-07
     Final TRS4 iteration    9 1.00000000   0.313E-12
     Chemical potential (mu):      -0.01141
 
 PAO| energy:  -7.8249834287175357      penalty:   1.5259682021548216E-005
 PAO|LS| adapt:  T T T
 PAO|LS| adapt: scan_steps:    0.0000000000000000       0.22768497069879132       0.45536994139758263     
 PAO|LS| adapt: energies:   -7.8215148626830091       -7.8267047053875149       -7.8249834287175357     
 PAO|LS| adapt: suggested step_size:   0.28482045868165184     
 PAO|LS| adapt: predicted energy  -7.8269223067210323     
 PAO| ======================= Iteration:        12 =============================

     Lanczos converged:  T threshold:   0.100E-02
     Est. extremal eigenvalues:    0.284E+01   0.174E+00
     Est. condition number :    0.163E+02

 Order=           3
     NS sqrt iter    1 1.00000000   0.722E+00       0.001       56.358
     NS sqrt iter    2 1.00000000   0.344E+00       0.001      103.763
     NS sqrt iter    3 1.00000000   0.803E-01       0.001      102.128
     NS sqrt iter    4 1.00000000   0.233E-02       0.001      102.391
     NS sqrt iter    5 1.00000000   0.130E-06       0.001       73.119
     Symmetrizing Results
     Final NS sqrt iter    5 1.00000000   0.468E-09

     Est. extremal eigenvalues     -0.92403     1.71905  converged:  T
     TRS4 it   1 1.00000000   0.866E+00       0.000       16.128   0.100E-07
     TRS4 it   2 1.00000000   0.625E+00       0.001       32.256   0.100E-07
     TRS4 it   3 1.00000000   0.433E+00       0.001       32.256   0.100E-07
     TRS4 it   4 1.00000000   0.232E+00       0.001       32.256   0.100E-07
     TRS4 it   5 1.00000000   0.809E-01       0.001       32.256   0.100E-07
     TRS4 it   6 1.00000000   0.118E-01       0.001       32.256   0.100E-07
     TRS4 it   7 1.00000000   0.315E-03       0.001       32.256   0.100E-07
     TRS4 it   8 1.00000000   0.316E-06       0.001       32.256   0.100E-07
     TRS4 it   9 1.00000000   0.410E-12       0.001       32.256   0.100E-07
     Final TRS4 iteration    9 1.00000000   0.410E-12
     Chemical potential (mu):      -0.01356
 
 PAO| energy:  -7.8269054311587665      penalty:   1.4235419880522363E-005
 PAO|CG| trace_G_new    1.2041128683220539E-002
 PAO|CG| trace_G_prev    3.8886512323194990E-002
 PAO|CG| trace_G_mix   -4.9261680767720439E-004
 PAO|CG| trace_D    4.7564488684602890E-002
 PAO|CG| trace_D_Gnew   2.5705995054368155E-004
 PAO|CG| beta:   0.32231600989892906     
 PAO| norm of gradient:  0.10973207681995516     
 PAO| energy improvement:  -5.3905684757573624E-003
 PAO| step     12                   -7.826905431  0.686E-02  0.285E+00     0.060
 PAO|LS| adapt:  T F F
 PAO|LS| adapt: scan_steps:    0.0000000000000000        0.0000000000000000        0.0000000000000000     
 PAO|LS| adapt: energies:   -7.8269054311587665        0.0000000000000000        0.0000000000000000     
 PAO| ======================= Iteration:        13 =============================

     Lanczos converged:  T threshold:   0.100E-02
     Est. extremal eigenvalues:    0.280E+01   0.177E+00
     Est. condition number :    0.158E+02

 Order=           3
     NS sqrt iter    1 1.00000000   0.713E+00       0.001       55.893
     NS sqrt iter    2 1.00000000   0.336E+00       0.001       95.924
     NS sqrt iter    3 1.00000000   0.757E-01       0.001       95.759
     NS sqrt iter    4 1.00000000   0.200E-02       0.001       97.087
     NS sqrt iter    5 1.00000000   0.840E-07       0.001       62.203
     Symmetrizing Results
     Final NS sqrt iter    5 1.00000000   0.209E-08

     Est. extremal eigenvalues     -0.92456     1.72143  converged:  T
     TRS4 it   1 1.00000000   0.869E+00       0.000       16.128   0.100E-07
     TRS4 it   2 1.00000000   0.624E+00       0.001       32.256   0.100E-07
     TRS4 it   3 1.00000000   0.432E+00       0.001       32.256   0.100E-07
     TRS4 it   4 1.00000000   0.229E+00       0.001       32.256   0.100E-07
     TRS4 it   5 1.00000000   0.784E-01       0.001       32.256   0.100E-07
     TRS4 it   6 1.00000000   0.109E-01       0.001       32.256   0.100E-07
     TRS4 it   7 1.00000000   0.267E-03       0.001       32.256   0.100E-07
     TRS4 it   8 1.00000000   0.222E-06       0.001       32.256   0.100E-07
     TRS4 it   9 1.00000000   0.204E-12       0.001       32.256   0.100E-07
     Final TRS4 iteration    9 1.00000000   0.204E-12
     Chemical potential (mu):      -0.00939
 
 PAO| energy:  -7.8289895685146140      penalty:   1.4542795732681499E-005
 PAO|LS| adapt:  T T F
 PAO|LS| adapt: scan_steps:    0.0000000000000000       0.28482045868165184        0.0000000000000000     
 PAO|LS| adapt: energies:   -7.8269054311587665       -7.8289895685146140        0.0000000000000000     
 PAO| ======================= Iteration:        14 =============================

     Lanczos converged:  T threshold:   0.100E-02
     Est. extremal eigenvalues:    0.275E+01   0.180E+00
     Est. condition number :    0.153E+02

 Order=           3
     NS sqrt iter    1 1.00000000   0.705E+00       0.001       60.144
     NS sqrt iter    2 1.00000000   0.328E+00       0.001      104.262
     NS sqrt iter    3 1.00000000   0.714E-01       0.001      107.743
     NS sqrt iter    4 1.00000000   0.171E-02       0.001      102.537
     NS sqrt iter    5 1.00000000   0.543E-07       0.001       65.919
     Symmetrizing Results
     Final NS sqrt iter    5 1.00000000   0.245E-09

     Est. extremal eigenvalues     -0.92454     1.72366  converged:  T
     TRS4 it   1 1.00000000   0.871E+00       0.000       16.128   0.100E-07
     TRS4 it   2 1.00000000   0.624E+00       0.001       32.256   0.100E-07
     TRS4 it   3 1.00000000   0.430E+00       0.001       32.256   0.100E-07
     TRS4 it   4 1.00000000   0.226E+00       0.001       32.256   0.100E-07
     TRS4 it   5 1.00000000   0.760E-01       0.001       32.256   0.100E-07
     TRS4 it   6 1.00000000   0.102E-01       0.001       32.256   0.100E-07
     TRS4 it   7 1.00000000   0.227E-03       0.001       32.256   0.100E-07
     TRS4 it   8 1.00000000   0.157E-06       0.001       32.256   0.100E-07
     TRS4 it   9 1.00000000   0.100E-12       0.001       32.256   0.100E-07
     Final TRS4 iteration    9 1.00000000   0.100E-12
     Chemical potential (mu):      -0.00528
 
 PAO| energy:  -7.8284765000634247      penalty:   1.5297987276411726E-005
 PAO|LS| adapt:  T T T
 PAO|LS| adapt: scan_steps:    0.0000000000000000       0.28482045868165184       0.56964091736330369     
 PAO|LS| adapt: energies:   -7.8269054311587665       -7.8289895685146140       -7.8284765000634247     
 PAO|LS| adapt: suggested step_size:   0.37096545435985995     
 PAO|LS| adapt: predicted energy  -7.8291083624072888     
 PAO| ======================= Iteration:        15 =============================

     Lanczos converged:  T threshold:   0.100E-02
     Est. extremal eigenvalues:    0.278E+01   0.178E+00
     Est. condition number :    0.156E+02

 Order=           3
     NS sqrt iter    1 1.00000000   0.711E+00       0.001       56.999
     NS sqrt iter    2 1.00000000   0.333E+00       0.001       92.264
     NS sqrt iter    3 1.00000000   0.744E-01       0.001       93.947
     NS sqrt iter    4 1.00000000   0.191E-02       0.001      101.809
     NS sqrt iter    5 1.00000000   0.737E-07       0.001       63.195
     Symmetrizing Results
     Final NS sqrt iter    5 1.00000000   0.343E-09

     Est. extremal eigenvalues     -0.92461     1.72212  converged:  T
     TRS4 it   1 1.00000000   0.869E+00       0.000       16.128   0.100E-07
     TRS4 it   2 1.00000000   0.624E+00       0.001       32.256   0.100E-07
     TRS4 it   3 1.00000000   0.431E+00       0.001       32.256   0.100E-07
     TRS4 it   4 1.00000000   0.228E+00       0.001       32.256   0.100E-07
     TRS4 it   5 1.00000000   0.777E-01       0.001       32.256   0.100E-07
     TRS4 it   6 1.00000000   0.107E-01       0.001       32.256   0.100E-07
     TRS4 it   7 1.00000000   0.254E-03       0.001       32.256   0.100E-07
     TRS4 it   8 1.00000000   0.200E-06       0.001       32.256   0.100E-07
     TRS4 it   9 1.00000000   0.165E-12       0.001       32.256   0.100E-07
     Final TRS4 iteration    9 1.00000000   0.165E-12
     Chemical potential (mu):      -0.00813
 
 PAO| energy:  -7.8291051439287092      penalty:   1.4720900734043185E-005
 PAO|CG| trace_G_new    2.5810352775818631E-003
 PAO|CG| trace_G_prev    1.2041128683220539E-002
 PAO|CG| trace_G_mix    8.0312533286053351E-005
 PAO|CG| trace_D    1.6816780669688575E-002
 PAO|CG| trace_D_Gnew   2.9893240783967817E-005
 PAO|CG| beta:   0.20768175559659932     
 PAO| norm of gradient:   5.0803890378413569E-002
 PAO| energy improvement:  -2.1997127699426855E-003
 PAO| step     15                   -7.829105144  0.318E-02  0.371E+00     0.061
 PAO|LS| adapt:  T F F
 PAO|LS| adapt: scan_steps:    0.0000000000000000        0.0000000000000000        0.0000000000000000     
 PAO|LS| adapt: energies:   -7.8291051439287092        0.0000000000000000        0.0000000000000000     
 PAO| ======================= Iteration:        16 =============================

     Lanczos converged:  T threshold:   0.100E-02
     Est. extremal eigenvalues:    0.277E+01   0.179E+00
     Est. condition number :    0.155E+02

 Order=           3
     NS sqrt iter    1 1.00000000   0.708E+00       0.001       62.190
     NS sqrt iter    2 1.00000000   0.332E+00       0.001      101.596
     NS sqrt iter    3 1.00000000   0.735E-01       0.001      106.142
     NS sqrt iter    4 1.00000000   0.183E-02       0.001      105.219
     NS sqrt iter    5 1.00000000   0.654E-07       0.001       68.371
     Symmetrizing Results
     Final NS sqrt iter    5 1.00000000   0.257E-09

     Est. extremal eigenvalues     -0.92464     1.72179  converged:  T
     TRS4 it   1 1.00000000   0.870E+00       0.000       16.128   0.100E-07
     TRS4 it   2 1.00000000   0.624E+00       0.001       32.256   0.100E-07
     TRS4 it   3 1.00000000   0.430E+00       0.001       32.256   0.100E-07
     TRS4 it   4 1.00000000   0.226E+00       0.001       32.256   0.100E-07
     TRS4 it   5 1.00000000   0.765E-01       0.001       32.256   0.100E-07
     TRS4 it   6 1.00000000   0.104E-01       0.001       32.256   0.100E-07
     TRS4 it   7 1.00000000   0.239E-03       0.001       32.256   0.100E-07
     TRS4 it   8 1.00000000   0.178E-06       0.001       32.256   0.100E-07
     TRS4 it   9 1.00000000   0.131E-12       0.001       32.256   0.100E-07
     Final TRS4 iteration    9 1.00000000   0.131E-12
     Chemical potential (mu):      -0.00712
 
 PAO| energy:  -7.8292072423158894      penalty:   1.4512142710094116E-005
 PAO|LS| adapt:  T T F
 PAO|LS| adapt: scan_steps:    0.0000000000000000       0.37096545435985995        0.0000000000000000     
 PAO|LS| adapt: energies:   -7.8291051439287092       -7.8292072423158894        0.0000000000000000     
 PAO| ======================= Iteration:        17 =============================

     Lanczos converged:  T threshold:   0.100E-02
     Est. extremal eigenvalues:    0.276E+01   0.180E+00
     Est. condition number :    0.153E+02

 Order=           3
     NS sqrt iter    1 1.00000000   0.706E+00       0.001       59.925
     NS sqrt iter    2 1.00000000   0.330E+00       0.001      103.630
     NS sqrt iter    3 1.00000000   0.726E-01       0.001      101.928
     NS sqrt iter    4 1.00000000   0.177E-02       0.001       97.237
     NS sqrt iter    5 1.00000000   0.581E-07       0.001       66.667
     Symmetrizing Results
     Final NS sqrt iter    5 1.00000000   0.243E-09

     Est. extremal eigenvalues     -0.92449     1.72152  converged:  T
     TRS4 it   1 1.00000000   0.870E+00       0.000       16.128   0.100E-07
     TRS4 it   2 1.00000000   0.623E+00       0.001       32.256   0.100E-07
     TRS4 it   3 1.00000000   0.429E+00       0.001       32.256   0.100E-07
     TRS4 it   4 1.00000000   0.225E+00       0.001       32.256   0.100E-07
     TRS4 it   5 1.00000000   0.753E-01       0.001       32.256   0.100E-07
     TRS4 it   6 1.00000000   0.101E-01       0.001       32.256   0.100E-07
     TRS4 it   7 1.00000000   0.225E-03       0.001       32.256   0.100E-07
     TRS4 it   8 1.00000000   0.159E-06       0.001       32.256   0.100E-07
     TRS4 it   9 1.00000000   0.104E-12       0.001       32.256   0.100E-07
     Final TRS4 iteration    9 1.00000000   0.104E-12
     Chemical potential (mu):      -0.00612
 
 PAO| energy:  -7.8275983897177914      penalty:   1.4423668503003748E-005
 PAO|LS| adapt:  T T T
 PAO|LS| adapt: scan_steps:    0.0000000000000000       0.37096545435985995       0.74193090871971989     
 PAO|LS| adapt: energies:   -7.8291051439287092       -7.8292072423158894       -7.8275983897177914     
 PAO|LS| adapt: suggested step_size:   0.20761952415168186     
 PAO|LS| adapt: predicted energy  -7.8293731082781273     
 PAO| ======================= Iteration:        18 =============================

     Lanczos converged:  T threshold:   0.100E-02
     Est. extremal eigenvalues:    0.278E+01   0.179E+00
     Est. condition number :    0.155E+02

 Order=           3
     NS sqrt iter    1 1.00000000   0.709E+00       0.001       62.409
     NS sqrt iter    2 1.00000000   0.332E+00       0.001       98.594
     NS sqrt iter    3 1.00000000   0.739E-01       0.001      105.470
     NS sqrt iter    4 1.00000000   0.187E-02       0.001      103.400
     NS sqrt iter    5 1.00000000   0.689E-07       0.001       60.065
     Symmetrizing Results
     Final NS sqrt iter    5 1.00000000   0.319E-09

     Est. extremal eigenvalues     -0.92465     1.72193  converged:  T
     TRS4 it   1 1.00000000   0.870E+00       0.000       16.128   0.100E-07
     TRS4 it   2 1.00000000   0.624E+00       0.001       32.256   0.100E-07
     TRS4 it   3 1.00000000   0.430E+00       0.001       32.256   0.100E-07
     TRS4 it   4 1.00000000   0.227E+00       0.001       32.256   0.100E-07
     TRS4 it   5 1.00000000   0.770E-01       0.001       32.256   0.100E-07
     TRS4 it   6 1.00000000   0.105E-01       0.001       32.256   0.100E-07
     TRS4 it   7 1.00000000   0.246E-03       0.001       32.256   0.100E-07
     TRS4 it   8 1.00000000   0.188E-06       0.001       32.256   0.100E-07
     TRS4 it   9 1.00000000   0.145E-12       0.001       32.256   0.100E-07
     Final TRS4 iteration    9 1.00000000   0.145E-12
     Chemical potential (mu):      -0.00756
 
 PAO| energy:  -7.8293727086318796      penalty:   1.4589513926648763E-005
 PAO|CG| trace_G_new    6.3205531242556694E-004
 PAO|CG| trace_G_prev    2.5810352775818631E-003
 PAO|CG| trace_G_mix    2.6135012360156668E-007
 PAO|CG| trace_D    3.2939552501435993E-003
 PAO|CG| trace_D_Gnew  -1.3979504546874711E-006
 PAO|CG| beta:   0.24478315650682797     
 PAO| norm of gradient:   2.5140710260960548E-002
 PAO| energy improvement:  -2.6756470317046421E-004
 PAO| step     18                   -7.829372709  0.157E-02  0.208E+00     0.059
 PAO|LS| adapt:  T F F
 PAO|LS| adapt: scan_steps:    0.0000000000000000        0.0000000000000000        0.0000000000000000     
 PAO|LS| adapt: energies:   -7.8293727086318796        0.0000000000000000        0.0000000000000000     
 PAO| ======================= Iteration:        19 =============================

     Lanczos converged:  T threshold:   0.100E-02
     Est. extremal eigenvalues:    0.278E+01   0.178E+00
     Est. condition number :    0.155E+02

 Order=           3
     NS sqrt iter    1 1.00000000   0.709E+00       0.001       58.814
     NS sqrt iter    2 1.00000000   0.333E+00       0.001      104.091
     NS sqrt iter    3 1.00000000   0.740E-01       0.001      104.001
     NS sqrt iter    4 1.00000000   0.187E-02       0.001      104.805
     NS sqrt iter    5 1.00000000   0.690E-07       0.001       67.375
     Symmetrizing Results
     Final NS sqrt iter    5 1.00000000   0.318E-09

     Est. extremal eigenvalues     -0.92465     1.72222  converged:  T
     TRS4 it   1 1.00000000   0.870E+00       0.000       16.128   0.100E-07
     TRS4 it   2 1.00000000   0.624E+00       0.001       32.256   0.100E-07
     TRS4 it   3 1.00000000   0.430E+00       0.001       32.256   0.100E-07
     TRS4 it   4 1.00000000   0.227E+00       0.001       32.256   0.100E-07
     TRS4 it   5 1.00000000   0.769E-01       0.001       32.256   0.100E-07
     TRS4 it   6 1.00000000   0.105E-01       0.001       32.256   0.100E-07
     TRS4 it   7 1.00000000   0.246E-03       0.001       32.256   0.100E-07
     TRS4 it   8 1.00000000   0.189E-06       0.001       32.256   0.100E-07
     TRS4 it   9 1.00000000   0.147E-12       0.001       32.256   0.100E-07
     Final TRS4 iteration    9 1.00000000   0.147E-12
     Chemical potential (mu):      -0.00770
 
 PAO| energy:  -7.8294744888483674      penalty:   1.4319798206845958E-005
 PAO|LS| adapt:  T T F
 PAO|LS| adapt: scan_steps:    0.0000000000000000       0.20761952415168186        0.0000000000000000     
 PAO|LS| adapt: energies:   -7.8293727086318796       -7.8294744888483674        0.0000000000000000     
 PAO| ======================= Iteration:        20 =============================

     Lanczos converged:  T threshold:   0.100E-02
     Est. extremal eigenvalues:    0.277E+01   0.178E+00
     Est. condition number :    0.156E+02

 Order=           3
     NS sqrt iter    1 1.00000000   0.709E+00       0.001       59.018
     NS sqrt iter    2 1.00000000   0.333E+00       0.001      104.530
     NS sqrt iter    3 1.00000000   0.742E-01       0.001      104.874
     NS sqrt iter    4 1.00000000   0.187E-02       0.001       99.084
     NS sqrt iter    5 1.00000000   0.691E-07       0.001       63.765
     Symmetrizing Results
     Final NS sqrt iter    5 1.00000000   0.317E-09

     Est. extremal eigenvalues     -0.92465     1.72252  converged:  T
     TRS4 it   1 1.00000000   0.870E+00       0.000       16.128   0.100E-07
     TRS4 it   2 1.00000000   0.624E+00       0.001       32.256   0.100E-07
     TRS4 it   3 1.00000000   0.430E+00       0.001       32.256   0.100E-07
     TRS4 it   4 1.00000000   0.227E+00       0.001       32.256   0.100E-07
     TRS4 it   5 1.00000000   0.767E-01       0.001       32.256   0.100E-07
     TRS4 it   6 1.00000000   0.105E-01       0.001       32.256   0.100E-07
     TRS4 it   7 1.00000000   0.246E-03       0.001       32.256   0.100E-07
     TRS4 it   8 1.00000000   0.190E-06       0.001       32.256   0.100E-07
     TRS4 it   9 1.00000000   0.149E-12       0.001       32.256   0.100E-07
     Final TRS4 iteration    9 1.00000000   0.149E-12
     Chemical potential (mu):      -0.00784
 
 PAO| energy:  -7.8295169239139026      penalty:   1.4060089676030478E-005
 PAO|LS| adapt:  T T F
 PAO|LS| adapt: scan_steps:    0.0000000000000000       0.41523904830336372        0.0000000000000000     
 PAO|LS| adapt: energies:   -7.8293727086318796       -7.8295169239139026        0.0000000000000000     
 PAO| ======================= Iteration:        21 =============================

     Lanczos converged:  T threshold:   0.100E-02
     Est. extremal eigenvalues:    0.277E+01   0.178E+00
     Est. condition number :    0.156E+02

 Order=           3
     NS sqrt iter    1 1.00000000   0.709E+00       0.001       58.258
     NS sqrt iter    2 1.00000000   0.333E+00       0.001      110.592
     NS sqrt iter    3 1.00000000   0.745E-01       0.001      103.972
     NS sqrt iter    4 1.00000000   0.188E-02       0.001      104.729
     NS sqrt iter    5 1.00000000   0.693E-07       0.001       68.541
     Symmetrizing Results
     Final NS sqrt iter    5 1.00000000   0.315E-09

     Est. extremal eigenvalues     -0.92465     1.72312  converged:  T
     TRS4 it   1 1.00000000   0.870E+00       0.000       16.128   0.100E-07
     TRS4 it   2 1.00000000   0.624E+00       0.001       32.256   0.100E-07
     TRS4 it   3 1.00000000   0.430E+00       0.001       32.256   0.100E-07
     TRS4 it   4 1.00000000   0.226E+00       0.001       32.256   0.100E-07
     TRS4 it   5 1.00000000   0.765E-01       0.001       32.256   0.100E-07
     TRS4 it   6 1.00000000   0.105E-01       0.001       32.256   0.100E-07
     TRS4 it   7 1.00000000   0.247E-03       0.001       32.256   0.100E-07
     TRS4 it   8 1.00000000   0.192E-06       0.001       32.256   0.100E-07
     TRS4 it   9 1.00000000   0.152E-12       0.001       32.256   0.100E-07
     Final TRS4 iteration    9 1.00000000   0.152E-12
     Chemical potential (mu):      -0.00813
 
 PAO| energy:  -7.8294218992660403      penalty:   1.3570205381491230E-005
 PAO|LS| Need extra step
 PAO|LS| adapt:  T T T
 PAO|LS| adapt: scan_steps:    0.0000000000000000       0.41523904830336372       0.83047809660672745     
 PAO|LS| adapt: energies:   -7.8293727086318796       -7.8295169239139026       -7.8294218992660403     
 PAO|LS| adapt: suggested step_size:   0.45792814314654096     
 PAO|LS| adapt: predicted energy  -7.8295181881878531     
 PAO| ======================= Iteration:        22 =============================

     Lanczos converged:  T threshold:   0.100E-02
     Est. extremal eigenvalues:    0.277E+01   0.178E+00
     Est. condition number :    0.156E+02

 Order=           3
     NS sqrt iter    1 1.00000000   0.709E+00       0.001       62.631
     NS sqrt iter    2 1.00000000   0.333E+00       0.001      104.632
     NS sqrt iter    3 1.00000000   0.742E-01       0.001      105.211
     NS sqrt iter    4 1.00000000   0.188E-02       0.001      105.203
     NS sqrt iter    5 1.00000000   0.691E-07       0.001       67.888
     Symmetrizing Results
     Final NS sqrt iter    5 1.00000000   0.317E-09

     Est. extremal eigenvalues     -0.92465     1.72258  converged:  T
     TRS4 it   1 1.00000000   0.870E+00       0.000       16.128   0.100E-07
     TRS4 it   2 1.00000000   0.624E+00       0.001       32.256   0.100E-07
     TRS4 it   3 1.00000000   0.430E+00       0.001       32.256   0.100E-07
     TRS4 it   4 1.00000000   0.227E+00       0.001       32.256   0.100E-07
     TRS4 it   5 1.00000000   0.767E-01       0.001       32.256   0.100E-07
     TRS4 it   6 1.00000000   0.105E-01       0.001       32.256   0.100E-07
     TRS4 it   7 1.00000000   0.246E-03       0.001       32.256   0.100E-07
     TRS4 it   8 1.00000000   0.190E-06       0.001       32.256   0.100E-07
     TRS4 it   9 1.00000000   0.149E-12       0.001       32.256   0.100E-07
     Final TRS4 iteration    9 1.00000000   0.149E-12
     Chemical potential (mu):      -0.00787
 
 PAO| energy:  -7.8295182512536918      penalty:   1.4007917803564384E-005
 PAO|CG| trace_G_new    2.0974790596160173E-004
 PAO|CG| trace_G_prev    6.3205531242556694E-004
 PAO|CG| trace_G_mix    2.5036617042447733E-006
 PAO|CG| trace_D    8.3010952699694607E-004
 PAO|CG| trace_D_Gnew  -1.4458976162321711E-006
 PAO|CG| beta:   0.32788941123212656     
 PAO| norm of gradient:   1.4482676063545774E-002
 PAO| energy improvement:  -1.4554262181221134E-004
 PAO| step     22                   -7.829518251  0.905E-03  0.458E+00     0.076
 PAO|LS| adapt:  T F F
 PAO|LS| adapt: scan_steps:    0.0000000000000000        0.0000000000000000        0.0000000000000000     
 PAO|LS| adapt: energies:   -7.8295182512536918        0.0000000000000000        0.0000000000000000     
 PAO| ======================= Iteration:        23 =============================

     Lanczos converged:  T threshold:   0.100E-02
     Est. extremal eigenvalues:    0.277E+01   0.178E+00
     Est. condition number :    0.155E+02

 Order=           3
     NS sqrt iter    1 1.00000000   0.709E+00       0.001       60.832
     NS sqrt iter    2 1.00000000   0.333E+00       0.001      109.192
     NS sqrt iter    3 1.00000000   0.742E-01       0.001       99.050
     NS sqrt iter    4 1.00000000   0.187E-02       0.001      103.801
     NS sqrt iter    5 1.00000000   0.688E-07       0.001       67.710
     Symmetrizing Results
     Final NS sqrt iter    5 1.00000000   0.316E-09

     Est. extremal eigenvalues     -0.92466     1.72257  converged:  T
     TRS4 it   1 1.00000000   0.870E+00       0.000       16.128   0.100E-07
     TRS4 it   2 1.00000000   0.624E+00       0.001       32.256   0.100E-07
     TRS4 it   3 1.00000000   0.430E+00       0.001       32.256   0.100E-07
     TRS4 it   4 1.00000000   0.227E+00       0.001       32.256   0.100E-07
     TRS4 it   5 1.00000000   0.768E-01       0.001       32.256   0.100E-07
     TRS4 it   6 1.00000000   0.105E-01       0.001       32.256   0.100E-07
     TRS4 it   7 1.00000000   0.248E-03       0.001       32.256   0.100E-07
     TRS4 it   8 1.00000000   0.193E-06       0.001       32.256   0.100E-07
     TRS4 it   9 1.00000000   0.154E-12       0.001       32.256   0.100E-07
     Final TRS4 iteration    9 1.00000000   0.154E-12
     Chemical potential (mu):      -0.00808
 
 PAO| energy:  -7.8295657581465594      penalty:   1.3316595182002022E-005
 PAO|LS| adapt:  T T F
 PAO|LS| adapt: scan_steps:    0.0000000000000000       0.45792814314654096        0.0000000000000000     
 PAO|LS| adapt: energies:   -7.8295182512536918       -7.8295657581465594        0.0000000000000000     
 PAO| ======================= Iteration:        24 =============================

     Lanczos converged:  T threshold:   0.100E-02
     Est. extremal eigenvalues:    0.278E+01   0.179E+00
     Est. condition number :    0.155E+02

 Order=           3
     NS sqrt iter    1 1.00000000   0.709E+00       0.001       56.838
     NS sqrt iter    2 1.00000000   0.333E+00       0.001      103.008
     NS sqrt iter    3 1.00000000   0.743E-01       0.001      106.185
     NS sqrt iter    4 1.00000000   0.187E-02       0.001      103.980
     NS sqrt iter    5 1.00000000   0.685E-07       0.001       65.514
     Symmetrizing Results
     Final NS sqrt iter    5 1.00000000   0.315E-09

     Est. extremal eigenvalues     -0.92466     1.72255  converged:  T
     TRS4 it   1 1.00000000   0.870E+00       0.000       16.128   0.100E-07
     TRS4 it   2 1.00000000   0.624E+00       0.001       32.256   0.100E-07
     TRS4 it   3 1.00000000   0.430E+00       0.001       32.256   0.100E-07
     TRS4 it   4 1.00000000   0.227E+00       0.001       32.256   0.100E-07
     TRS4 it   5 1.00000000   0.768E-01       0.001       32.256   0.100E-07
     TRS4 it   6 1.00000000   0.105E-01       0.001       32.256   0.100E-07
     TRS4 it   7 1.00000000   0.250E-03       0.001       32.256   0.100E-07
     TRS4 it   8 1.00000000   0.196E-06       0.001       32.256   0.100E-07
     TRS4 it   9 1.00000000   0.158E-12       0.001       32.256   0.100E-07
     Final TRS4 iteration    9 1.00000000   0.158E-12
     Chemical potential (mu):      -0.00828
 
 PAO| energy:  -7.8295150260362067      penalty:   1.2653953816438035E-005
 PAO|LS| adapt:  T T T
 PAO|LS| adapt: scan_steps:    0.0000000000000000       0.45792814314654096       0.91585628629308191     
 PAO|LS| adapt: energies:   -7.8295182512536918       -7.8295657581465594       -7.8295150260362067     
 PAO|LS| adapt: suggested step_size:   0.45041118040377159     
 PAO|LS| adapt: predicted energy  -7.8295657713821729     
 PAO| ======================= Iteration:        25 =============================

     Lanczos converged:  T threshold:   0.100E-02
     Est. extremal eigenvalues:    0.277E+01   0.178E+00
     Est. condition number :    0.155E+02

 Order=           3
     NS sqrt iter    1 1.00000000   0.709E+00       0.001       62.214
     NS sqrt iter    2 1.00000000   0.333E+00       0.001      108.315
     NS sqrt iter    3 1.00000000   0.742E-01       0.001      105.267
     NS sqrt iter    4 1.00000000   0.187E-02       0.001      104.128
     NS sqrt iter    5 1.00000000   0.688E-07       0.001       69.175
     Symmetrizing Results
     Final NS sqrt iter    5 1.00000000   0.316E-09

     Est. extremal eigenvalues     -0.92466     1.72257  converged:  T
     TRS4 it   1 1.00000000   0.870E+00       0.000       16.128   0.100E-07
     TRS4 it   2 1.00000000   0.624E+00       0.001       32.256   0.100E-07
     TRS4 it   3 1.00000000   0.430E+00       0.001       32.256   0.100E-07
     TRS4 it   4 1.00000000   0.227E+00       0.001       32.256   0.100E-07
     TRS4 it   5 1.00000000   0.768E-01       0.001       32.256   0.100E-07
     TRS4 it   6 1.00000000   0.105E-01       0.001       32.256   0.100E-07
     TRS4 it   7 1.00000000   0.248E-03       0.001       32.256   0.100E-07
     TRS4 it   8 1.00000000   0.193E-06       0.001       32.256   0.100E-07
     TRS4 it   9 1.00000000   0.154E-12       0.001       32.256   0.100E-07
     Final TRS4 iteration    9 1.00000000   0.154E-12
     Chemical potential (mu):      -0.00807
 
 PAO| energy:  -7.8295657684287461      penalty:   1.3327710231918116E-005
 PAO|CG| trace_G_new    7.2507127380876479E-005
 PAO|CG| trace_G_prev    2.0974790596160173E-004
 PAO|CG| trace_G_mix    9.0489849383885585E-007
 PAO|CG| trace_D    2.9994238718425144E-004
 PAO|CG| trace_D_Gnew  -3.9271132272897673E-007
 PAO|CG| beta:   0.34137279492146994     
 PAO| norm of gradient:   8.5151117068936032E-003
 PAO| energy improvement:  -4.7517175054245797E-005
 PAO| step     25                   -7.829565768  0.532E-03  0.450E+00     0.058
 PAO|LS| adapt:  T F F
 PAO|LS| adapt: scan_steps:    0.0000000000000000        0.0000000000000000        0.0000000000000000     
 PAO|LS| adapt: energies:   -7.8295657684287461        0.0000000000000000        0.0000000000000000     
 PAO| ======================= Iteration:        26 =============================

     Lanczos converged:  T threshold:   0.100E-02
     Est. extremal eigenvalues:    0.277E+01   0.178E+00
     Est. condition number :    0.155E+02

 Order=           3
     NS sqrt iter    1 1.00000000   0.709E+00       0.001       57.948
     NS sqrt iter    2 1.00000000   0.333E+00       0.001      102.377
     NS sqrt iter    3 1.00000000   0.741E-01       0.001      105.957
     NS sqrt iter    4 1.00000000   0.187E-02       0.001      104.191
     NS sqrt iter    5 1.00000000   0.687E-07       0.001       65.017
     Symmetrizing Results
     Final NS sqrt iter    5 1.00000000   0.318E-09

     Est. extremal eigenvalues     -0.92466     1.72219  converged:  T
     TRS4 it   1 1.00000000   0.870E+00       0.000       16.128   0.100E-07
     TRS4 it   2 1.00000000   0.624E+00       0.001       32.256   0.100E-07
     TRS4 it   3 1.00000000   0.430E+00       0.001       32.256   0.100E-07
     TRS4 it   4 1.00000000   0.227E+00       0.001       32.256   0.100E-07
     TRS4 it   5 1.00000000   0.766E-01       0.001       32.256   0.100E-07
     TRS4 it   6 1.00000000   0.105E-01       0.001       32.256   0.100E-07
     TRS4 it   7 1.00000000   0.245E-03       0.001       32.256   0.100E-07
     TRS4 it   8 1.00000000   0.189E-06       0.001       32.256   0.100E-07
     TRS4 it   9 1.00000000   0.147E-12       0.001       32.256   0.100E-07
     Final TRS4 iteration    9 1.00000000   0.147E-12
     Chemical potential (mu):      -0.00785
 
 PAO| energy:  -7.8295674362190013      penalty:   1.2622466074797915E-005
 PAO|LS| adapt:  T T F
 PAO|LS| adapt: scan_steps:    0.0000000000000000       0.45041118040377159        0.0000000000000000     
 PAO|LS| adapt: energies:   -7.8295657684287461       -7.8295674362190013        0.0000000000000000     
 PAO| ======================= Iteration:        27 =============================

     Lanczos converged:  T threshold:   0.100E-02
     Est. extremal eigenvalues:    0.277E+01   0.178E+00
     Est. condition number :    0.155E+02

 Order=           3
     NS sqrt iter    1 1.00000000   0.708E+00       0.001       61.276
     NS sqrt iter    2 1.00000000   0.332E+00       0.001      104.352
     NS sqrt iter    3 1.00000000   0.740E-01       0.001      105.750
     NS sqrt iter    4 1.00000000   0.187E-02       0.001      103.016
     NS sqrt iter    5 1.00000000   0.686E-07       0.001       67.921
     Symmetrizing Results
     Final NS sqrt iter    5 1.00000000   0.320E-09

     Est. extremal eigenvalues     -0.92466     1.72181  converged:  T
     TRS4 it   1 1.00000000   0.870E+00       0.000       16.128   0.100E-07
     TRS4 it   2 1.00000000   0.624E+00       0.001       32.256   0.100E-07
     TRS4 it   3 1.00000000   0.430E+00       0.001       32.256   0.100E-07
     TRS4 it   4 1.00000000   0.226E+00       0.001       32.256   0.100E-07
     TRS4 it   5 1.00000000   0.765E-01       0.001       32.256   0.100E-07
     TRS4 it   6 1.00000000   0.104E-01       0.001       32.256   0.100E-07
     TRS4 it   7 1.00000000   0.243E-03       0.001       32.256   0.100E-07
     TRS4 it   8 1.00000000   0.185E-06       0.001       32.256   0.100E-07
     TRS4 it   9 1.00000000   0.140E-12       0.001       32.256   0.100E-07
     Final TRS4 iteration    9 1.00000000   0.140E-12
     Chemical potential (mu):      -0.00763
 
 PAO| energy:  -7.8295068933486593      penalty:   1.1939993145479972E-005
 PAO|LS| adapt:  T T T
 PAO|LS| adapt: scan_steps:    0.0000000000000000       0.45041118040377159       0.90082236080754319     
 PAO|LS| adapt: energies:   -7.8295657684287461       -7.8295674362190013       -7.8295068933486593     
 PAO|LS| adapt: suggested step_size:   0.23728055244009946     
 PAO|LS| adapt: predicted energy  -7.8295744010121373     
 PAO| ======================= Iteration:        28 =============================

     Lanczos converged:  T threshold:   0.100E-02
     Est. extremal eigenvalues:    0.277E+01   0.178E+00
     Est. condition number :    0.155E+02

 Order=           3
     NS sqrt iter    1 1.00000000   0.709E+00       0.001       61.919
     NS sqrt iter    2 1.00000000   0.333E+00       0.001      101.670
     NS sqrt iter    3 1.00000000   0.742E-01       0.001      105.672
     NS sqrt iter    4 1.00000000   0.187E-02       0.001      107.688
     NS sqrt iter    5 1.00000000   0.688E-07       0.001       68.602
     Symmetrizing Results
     Final NS sqrt iter    5 1.00000000   0.317E-09

     Est. extremal eigenvalues     -0.92466     1.72237  converged:  T
     TRS4 it   1 1.00000000   0.870E+00       0.000       16.128   0.100E-07
     TRS4 it   2 1.00000000   0.624E+00       0.001       32.256   0.100E-07
     TRS4 it   3 1.00000000   0.430E+00       0.001       32.256   0.100E-07
     TRS4 it   4 1.00000000   0.227E+00       0.001       32.256   0.100E-07
     TRS4 it   5 1.00000000   0.767E-01       0.001       32.256   0.100E-07
     TRS4 it   6 1.00000000   0.105E-01       0.001       32.256   0.100E-07
     TRS4 it   7 1.00000000   0.247E-03       0.001       32.256   0.100E-07
     TRS4 it   8 1.00000000   0.191E-06       0.001       32.256   0.100E-07
     TRS4 it   9 1.00000000   0.151E-12       0.001       32.256   0.100E-07
     Final TRS4 iteration    9 1.00000000   0.151E-12
     Chemical potential (mu):      -0.00796
 
 PAO| energy:  -7.8295743909938720      penalty:   1.2953326478355499E-005
 PAO|CG| trace_G_new    2.5162483350734536E-005
 PAO|CG| trace_G_prev    7.2507127380876479E-005
 PAO|CG| trace_G_mix    1.9566147841771081E-008
 PAO|CG| trace_D    1.0772915090662919E-004
 PAO|CG| trace_D_Gnew  -2.0043511242066548E-008
 PAO|CG| beta:   0.34676476797678418     
 PAO| norm of gradient:   5.0162220196812001E-003
 PAO| energy improvement:  -8.6225651259042024E-006
 PAO| step     28                   -7.829574391  0.314E-03  0.237E+00     0.058
 PAO|LS| adapt:  T F F
 PAO|LS| adapt: scan_steps:    0.0000000000000000        0.0000000000000000        0.0000000000000000     
 PAO|LS| adapt: energies:   -7.8295743909938720        0.0000000000000000        0.0000000000000000     
 PAO| ======================= Iteration:        29 =============================

     Lanczos converged:  T threshold:   0.100E-02
     Est. extremal eigenvalues:    0.277E+01   0.178E+00
     Est. condition number :    0.155E+02

 Order=           3
     NS sqrt iter    1 1.00000000   0.708E+00       0.001       61.172
     NS sqrt iter    2 1.00000000   0.332E+00       0.001      104.372
     NS sqrt iter    3 1.00000000   0.741E-01       0.001      102.520
     NS sqrt iter    4 1.00000000   0.187E-02       0.001      104.586
     NS sqrt iter    5 1.00000000   0.687E-07       0.001       68.184
     Symmetrizing Results
     Final NS sqrt iter    5 1.00000000   0.318E-09

     Est. extremal eigenvalues     -0.92466     1.72223  converged:  T
     TRS4 it   1 1.00000000   0.870E+00       0.000       16.128   0.100E-07
     TRS4 it   2 1.00000000   0.624E+00       0.001       32.256   0.100E-07
     TRS4 it   3 1.00000000   0.430E+00       0.001       32.256   0.100E-07
     TRS4 it   4 1.00000000   0.227E+00       0.001       32.256   0.100E-07
     TRS4 it   5 1.00000000   0.766E-01       0.001       32.256   0.100E-07
     TRS4 it   6 1.00000000   0.105E-01       0.001       32.256   0.100E-07
     TRS4 it   7 1.00000000   0.245E-03       0.001       32.256   0.100E-07
     TRS4 it   8 1.00000000   0.188E-06       0.001       32.256   0.100E-07
     TRS4 it   9 1.00000000   0.146E-12       0.001       32.256   0.100E-07
     Final TRS4 iteration    9 1.00000000   0.146E-12
     Chemical potential (mu):      -0.00779
 
 PAO| energy:  -7.8295795813735580      penalty:   1.2577197362026526E-005
 PAO|LS| adapt:  T T F
 PAO|LS| adapt: scan_steps:    0.0000000000000000       0.23728055244009946        0.0000000000000000     
 PAO|LS| adapt: energies:   -7.8295743909938720       -7.8295795813735580        0.0000000000000000     
 PAO| ======================= Iteration:        30 =============================

     Lanczos converged:  T threshold:   0.100E-02
     Est. extremal eigenvalues:    0.277E+01   0.178E+00
     Est. condition number :    0.155E+02

 Order=           3
     NS sqrt iter    1 1.00000000   0.708E+00       0.001       61.881
     NS sqrt iter    2 1.00000000   0.332E+00       0.001      105.069
     NS sqrt iter    3 1.00000000   0.740E-01       0.001      104.940
     NS sqrt iter    4 1.00000000   0.187E-02       0.001      106.172
     NS sqrt iter    5 1.00000000   0.687E-07       0.001       68.042
     Symmetrizing Results
     Final NS sqrt iter    5 1.00000000   0.320E-09

     Est. extremal eigenvalues     -0.92467     1.72210  converged:  T
     TRS4 it   1 1.00000000   0.870E+00       0.000       16.128   0.100E-07
     TRS4 it   2 1.00000000   0.624E+00       0.001       32.256   0.100E-07
     TRS4 it   3 1.00000000   0.430E+00       0.001       32.256   0.100E-07
     TRS4 it   4 1.00000000   0.226E+00       0.001       32.256   0.100E-07
     TRS4 it   5 1.00000000   0.765E-01       0.001       32.256   0.100E-07
     TRS4 it   6 1.00000000   0.104E-01       0.001       32.256   0.100E-07
     TRS4 it   7 1.00000000   0.243E-03       0.001       32.256   0.100E-07
     TRS4 it   8 1.00000000   0.185E-06       0.001       32.256   0.100E-07
     TRS4 it   9 1.00000000   0.141E-12       0.001       32.256   0.100E-07
     Final TRS4 iteration    9 1.00000000   0.141E-12
     Chemical potential (mu):      -0.00762
 
 PAO| energy:  -7.8295832082231236      penalty:   1.2207136506787192E-005
 PAO|LS| adapt:  T T F
 PAO|LS| adapt: scan_steps:    0.0000000000000000       0.47456110488019893        0.0000000000000000     
 PAO|LS| adapt: energies:   -7.8295743909938720       -7.8295832082231236        0.0000000000000000     
 PAO| ======================= Iteration:        31 =============================

     Lanczos converged:  T threshold:   0.100E-02
     Est. extremal eigenvalues:    0.277E+01   0.178E+00
     Est. condition number :    0.155E+02

 Order=           3
     NS sqrt iter    1 1.00000000   0.708E+00       0.001       59.338
     NS sqrt iter    2 1.00000000   0.332E+00       0.001      106.009
     NS sqrt iter    3 1.00000000   0.739E-01       0.001      101.315
     NS sqrt iter    4 1.00000000   0.186E-02       0.001      104.856
     NS sqrt iter    5 1.00000000   0.686E-07       0.001       67.566
     Symmetrizing Results
     Final NS sqrt iter    5 1.00000000   0.323E-09

     Est. extremal eigenvalues     -0.92467     1.72182  converged:  T
     TRS4 it   1 1.00000000   0.870E+00       0.000       16.128   0.100E-07
     TRS4 it   2 1.00000000   0.624E+00       0.001       32.256   0.100E-07
     TRS4 it   3 1.00000000   0.430E+00       0.001       32.256   0.100E-07
     TRS4 it   4 1.00000000   0.226E+00       0.001       32.256   0.100E-07
     TRS4 it   5 1.00000000   0.763E-01       0.001       32.256   0.100E-07
     TRS4 it   6 1.00000000   0.104E-01       0.001       32.256   0.100E-07
     TRS4 it   7 1.00000000   0.240E-03       0.001       32.256   0.100E-07
     TRS4 it   8 1.00000000   0.179E-06       0.001       32.256   0.100E-07
     TRS4 it   9 1.00000000   0.133E-12       0.001       32.256   0.100E-07
     Final TRS4 iteration    9 1.00000000   0.133E-12
     Chemical potential (mu):      -0.00730
 
 PAO| energy:  -7.8295857721008151      penalty:   1.1485125362442924E-005
 PAO|LS| Need extra step
 PAO|LS| adapt:  T T F
 PAO|LS| adapt: scan_steps:    0.0000000000000000       0.94912220976039785        0.0000000000000000     
 PAO|LS| adapt: energies:   -7.8295743909938720       -7.8295857721008151        0.0000000000000000     
 PAO| ======================= Iteration:        32 =============================

     Lanczos converged:  T threshold:   0.100E-02
     Est. extremal eigenvalues:    0.277E+01   0.178E+00
     Est. condition number :    0.155E+02

 Order=           3
     NS sqrt iter    1 1.00000000   0.707E+00       0.001       61.612
[...]
     NS sqrt iter    5 1.00000000   0.134E-08       0.001       33.683
     Symmetrizing Results
     Final NS sqrt iter    5 1.00000000   0.795E-10

     Est. extremal eigenvalues     -0.92442     1.53768  converged:  T
     TRS4 it   1 1.00000000   0.832E+00       0.000       16.128   0.100E-07
     TRS4 it   2 1.00000000   0.607E+00       0.001       32.256   0.100E-07
     TRS4 it   3 1.00000000   0.436E+00       0.001       32.256   0.100E-07
     TRS4 it   4 1.00000000   0.265E+00       0.001       32.256   0.100E-07
     TRS4 it   5 1.00000000   0.125E+00       0.001       32.256   0.100E-07
     TRS4 it   6 1.00000000   0.351E-01       0.001       32.256   0.100E-07
     TRS4 it   7 1.00000000   0.377E-02       0.001       32.256   0.100E-07
     TRS4 it   8 1.00000000   0.520E-04       0.001       32.256   0.100E-07
     TRS4 it   9 1.00000000   0.106E-07       0.001       32.256   0.100E-07
     Final TRS4 iteration    9 1.00000000   0.106E-07
     Chemical potential (mu):      -0.08662
 
 PAO| energy:  -7.8291206620927740      penalty:   5.5493704124509363E-012
 PAO|CG| warming up with steepest descent
 PAO|CG| beta:    0.0000000000000000     
 PAO| norm of gradient:   7.2600867959211558E-006
 PAO| energy improvement:  -1.2462919585232157E-011
 PAO| step    964                   -7.829120662  0.454E-06  0.293E+00     0.077
 PAO| converged after          964  steps :-)
 PAO| Recalculating energy after mixing.

     Lanczos converged:  T threshold:   0.100E-02
     Est. extremal eigenvalues:    0.253E+01   0.207E+00
     Est. condition number :    0.123E+02

 Order=           3
     NS sqrt iter    1 1.00000000   0.647E+00       0.001       58.591
     NS sqrt iter    2 1.00000000   0.283E+00       0.001      104.130
     NS sqrt iter    3 1.00000000   0.472E-01       0.001      100.956
     NS sqrt iter    4 1.00000000   0.560E-03       0.001      104.435
     NS sqrt iter    5 1.00000000   0.134E-08       0.001       36.864
     Symmetrizing Results
     Final NS sqrt iter    5 1.00000000   0.795E-10

     Est. extremal eigenvalues     -0.92442     1.53768  converged:  T
     TRS4 it   1 1.00000000   0.832E+00       0.000       16.128   0.100E-07
     TRS4 it   2 1.00000000   0.607E+00       0.001       32.256   0.100E-07
     TRS4 it   3 1.00000000   0.436E+00       0.001       32.256   0.100E-07
     TRS4 it   4 1.00000000   0.265E+00       0.001       32.256   0.100E-07
     TRS4 it   5 1.00000000   0.125E+00       0.001       32.256   0.100E-07
     TRS4 it   6 1.00000000   0.351E-01       0.001       32.256   0.100E-07
     TRS4 it   7 1.00000000   0.377E-02       0.001       32.256   0.100E-07
     TRS4 it   8 1.00000000   0.520E-04       0.001       32.256   0.100E-07
     TRS4 it   9 1.00000000   0.106E-07       0.001       32.256   0.100E-07
     Final TRS4 iteration    9 1.00000000   0.106E-07
     Chemical potential (mu):      -0.08662
 
 PAO| energy:  -7.8291206620896610      penalty:   5.6151337693100559E-012
 PAO| Writing restart file.
     Est. extremal eigenvalues     -0.92442     1.53768  converged:  T
     TRS4 it   1 1.00000000   0.832E+00       0.000       16.128   0.100E-07
     TRS4 it   2 1.00000000   0.607E+00       0.001       32.256   0.100E-07
     TRS4 it   3 1.00000000   0.436E+00       0.001       32.256   0.100E-07
     TRS4 it   4 1.00000000   0.265E+00       0.001       32.256   0.100E-07
     TRS4 it   5 1.00000000   0.125E+00       0.001       32.256   0.100E-07
     TRS4 it   6 1.00000000   0.351E-01       0.001       32.256   0.100E-07
     TRS4 it   7 1.00000000   0.377E-02       0.001       32.256   0.100E-07
     TRS4 it   8 1.00000000   0.520E-04       0.001       32.256   0.100E-07
     TRS4 it   9 1.00000000   0.106E-07       0.001       32.256   0.100E-07
     Final TRS4 iteration    9 1.00000000   0.106E-07
     Chemical potential (mu):      -0.08662

 SCF     1       -34.446314918       -34.446314918    3.668868

*********************************************************
 Using MIXING_FRACTION=0.450 to mix KS matrix:  iscf=  2
 KS_nw=0.450*KS + 0.550*KS_old
*********************************************************
     Est. extremal eigenvalues     -0.92442     1.53768  converged:  T
     TRS4 it   1 1.00000000   0.832E+00       0.000       16.128   0.100E-07
     TRS4 it   2 1.00000000   0.607E+00       0.001       32.256   0.100E-07
     TRS4 it   3 1.00000000   0.436E+00       0.001       32.256   0.100E-07
     TRS4 it   4 1.00000000   0.265E+00       0.001       32.256   0.100E-07
     TRS4 it   5 1.00000000   0.125E+00       0.001       32.256   0.100E-07
     TRS4 it   6 1.00000000   0.351E-01       0.001       32.256   0.100E-07
     TRS4 it   7 1.00000000   0.377E-02       0.001       32.256   0.100E-07
     TRS4 it   8 1.00000000   0.520E-04       0.001       32.256   0.100E-07
     TRS4 it   9 1.00000000   0.106E-07       0.001       32.256   0.100E-07
     Final TRS4 iteration    9 1.00000000   0.106E-07
     Chemical potential (mu):      -0.08662

 SCF     2       -34.446314918        -0.000000000    3.364158


 SCF run converged in     2 steps.

 PAO| Storing density matrix for ASPC guess in slot:           1

 ENERGY| Total FORCE_EVAL ( QS ) energy [a.u.]:              -34.446314918058846

 -------------------------------------------------------------------------------
 -                                                                             -
 -                                DBCSR STATISTICS                             -
 -                                                                             -
 -------------------------------------------------------------------------------
 COUNTER                                    TOTAL       BLAS       SMM       ACC
 flops     5 x     5 x     4                36000       0.0%    100.0%      0.0%
 flops    13 x     5 x     4                37440       0.0%    100.0%      0.0%
 flops     5 x    13 x     4                37440       0.0%    100.0%      0.0%
 flops    13 x    13 x     4                73008       0.0%    100.0%      0.0%
 flops     4 x     4 x     5              7553280       0.0%    100.0%      0.0%
 flops     5 x     4 x     5              9212800       0.0%    100.0%      0.0%
 flops     4 x     4 x    13              9819264       0.0%    100.0%      0.0%
 flops    13 x     4 x     5             11976640       0.0%    100.0%      0.0%
 flops     5 x     4 x    13             11976640       0.0%    100.0%      0.0%
 flops     5 x     4 x     4             14486080       0.0%    100.0%      0.0%
 flops    13 x     4 x    13             15569632       0.0%    100.0%      0.0%
 flops    13 x     4 x     4             19245408       0.0%    100.0%      0.0%
 flops     4 x     4 x     4            958826368       0.0%    100.0%      0.0%
 flops inhomo. stacks                           0       0.0%      0.0%      0.0%
 flops total                         1.058850E+09       0.0%    100.0%      0.0%
 flops max/rank                      1.058850E+09       0.0%    100.0%      0.0%
 matmuls inhomo. stacks                         0       0.0%      0.0%      0.0%
 matmuls total                            7802466       0.0%    100.0%      0.0%
 number of processed stacks                 62543       0.0%    100.0%      0.0%
 average stack size                                     0.0     124.8       0.0
 marketing flops                     1.726164E+09
 -------------------------------------------------------------------------------
 # multiplications                          52030
 max memory usage/rank             507.301888E+06
 # max total images/rank                        1
 # max 3D layers                                1
 # MPI messages exchanged                       0
 -------------------------------------------------------------------------------

 -------------------------------------------------------------------------------
 -                                                                             -
 -                                DBM STATISTICS                               -
 -                                                                             -
 -------------------------------------------------------------------------------
    M  x    N  x    K                                          COUNT     PERCENT
 -------------------------------------------------------------------------------

 -------------------------------------------------------------------------------
 -                                                                             -
 -                                GRID STATISTICS                              -
 -                                                                             -
 -------------------------------------------------------------------------------
 LP    KERNEL             BACKEND                              COUNT     PERCENT
 2     collocate ortho    REF                                  68472      30.79%
 2     integrate ortho    REF                                  68472      30.79%
 3     collocate ortho    REF                                  35154      15.81%
 3     integrate ortho    REF                                  35154      15.81%
 4     collocate ortho    REF                                   7578       3.41%
 4     integrate ortho    REF                                   7578       3.41%
 0     collocate general  REF                                      6       0.00%
 -------------------------------------------------------------------------------

 MEMORY| Estimated peak process memory [MiB]                                 484

 -------------------------------------------------------------------------------
 -                                                                             -
 -                           R E F E R E N C E S                               -
 -                                                                             -
 -------------------------------------------------------------------------------
 
 CP2K version 2023.1 (Development Version), the CP2K developers group (2023).
 CP2K is freely available from https://www.cp2k.org/ .

 Kuehne,Thomas D.; Iannuzzi,Marcella; Del Ben,Mauro;
 Rybkin,Vladimir V.; Seewald,Patrick; Stein,Frederick; Laino,Teodoro;
 Khaliullin,Rustam Z.; Schuett,Ole; Schiffmann,Florian; Golze,Dorothea;
 Wilhelm,Jan; Chulkov,Sergey; Bani-Hashemian,Mohammad Hossein;
 Weber,Valery; Borstnik,Urban; Taillefumier,Mathieu;
 Jakobovits,Alice Shoshana; Lazzaro,Alfio; Pabst,Hans; Mueller,Tiziano;
 Schade,Robert; Guidon,Manuel; Andermatt,Samuel; Holmberg,Nico;
 Schenter,Gregory K.; Hehn,Anna; Bussy,Augustin; Belleflamme,Fabian;
 Tabacchi,Gloria; Gloess,Andreas; Lass,Michael; Bethune,Iain;
 Mundy,Christopher J.; Plessl,Christian; Watkins,Matt;
 VandeVondele,Joost; Krack,Matthias; Hutter,Juerg. 
 The Journal of Chemical Physics, 152 (19), (2020). 
 CP2K: An electronic structure and molecular dynamics software package -
 Quickstep: Efficient and accurate electronic structure calculations.
 https://doi.org/10.1063/5.0007045

 Schuett, O; VandeVondele, J. 
 Journal of Chemical Theory and Computation, 14, (2018). 
 Machine Learning Adaptive Basis Sets for Efficient Large Scale
 Density Functional Theory Simulation.
 https://doi.org/10.1021/acs.jctc.8b00378

 Schuett, Ole; Messmer, Peter; Hutter, Juerg; VandeVondele, Joost. 
 Electronic Structure Calculations on Graphics Processing Units, John
 Wiley & Sons, Ltd, 173-190 (2016). 
 GPU-Accelerated Sparse Matrix-Matrix Multiplication for
 Linear Scaling Density Functional Theory.
 https://doi.org/10.1002/9781118670712.ch8

 Heinecke, A; Henry, G; Hutchinson, M; Pabst, H. 
 Proceedings of Intl. Supercomputing Conference, 981-991 (2016). 
 LIBXSMM: Accelerating Small Matrix Multiplications
 by Runtime Code Generation.
 https://doi.org/10.1109/SC.2016.83

 Borstnik, U; VandeVondele, J; Weber, V; Hutter, J. 
 PARALLEL COMPUTING, 40 (5-6), 47-58 (2014). 
 Sparse matrix multiplication: The distributed block-compressed sparse
 row library.
 https://doi.org/10.1016/j.parco.2014.03.012

 Hutter, J; Iannuzzi, M; Schiffmann, F; VandeVondele, J. 
 WIREs Comput Mol Sci., 4 (1), 15-25 (2014). 
 CP2K: atomistic simulations of condensed matter systems.
 https://doi.org/10.1002/wcms.1159

 VandeVondele, J; Borstnik, U; Hutter, J. 
 JOURNAL OF CHEMICAL THEORY AND COMPUTATION, 8 (10), 3565-3573 (2012). 
 Linear Scaling Self-Consistent Field Calculations with Millions of Atoms
 in the Condensed Phase.
 https://doi.org/10.1021/ct200897x

 VandeVondele, J; Hutter, J. 
 JOURNAL OF CHEMICAL PHYSICS, 127 (11), 114105 (2007). 
 Gaussian basis sets for accurate calculations on molecular systems in
 gas and condensed phases.
 https://doi.org/10.1063/1.2770708

 Krack, M. 
 THEORETICAL CHEMISTRY ACCOUNTS, 114 (1-3), 145-152 (2005). 
 Pseudopotentials for H to Kr optimized for gradient-corrected
 exchange-correlation functionals.
 https://doi.org/10.1007/s00214-005-0655-y

 VandeVondele, J; Krack, M; Mohamed, F; Parrinello, M; Chassaing, T;
 Hutter, J. COMPUTER PHYSICS COMMUNICATIONS, 167 (2), 103-128 (2005). 
 QUICKSTEP: Fast and accurate density functional calculations using a
 mixed Gaussian and plane waves approach.
 https://doi.org/10.1016/j.cpc.2004.12.014

 Frigo, M; Johnson, SG. 
 PROCEEDINGS OF THE IEEE, 93 (2), 216-231 (2005). 
 The design and implementation of FFTW3.
 https://doi.org/10.1109/JPROC.2004.840301

 Niklasson, AMN; Tymczak, CJ; Challacombe, M. 
 JOURNAL OF CHEMICAL PHYSICS, 118 (19), 8611-8620 (2003). 
 Trace resetting density matrix purification in O(N)
 self-consistent-field theory.
 https://doi.org/10.1063/1.1559913

 Hartwigsen, C; Goedecker, S; Hutter, J. 
 PHYSICAL REVIEW B, 58 (7), 3641-3662 (1998). 
 Relativistic separable dual-space Gaussian pseudopotentials from H to Rn.
 https://doi.org/10.1103/PhysRevB.58.3641

 Lippert, G; Hutter, J; Parrinello, M. 
 MOLECULAR PHYSICS, 92 (3), 477-487 (1997). 
 A hybrid Gaussian and plane wave density functional scheme.
 https://doi.org/10.1080/002689797170220

 Perdew, JP; Burke, K; Ernzerhof, M. 
 PHYSICAL REVIEW LETTERS, 77 (18), 3865-3868 (1996). 
 Generalized gradient approximation made simple.
 https://doi.org/10.1103/PhysRevLett.77.3865

 Goedecker, S; Teter, M; Hutter, J. 
 PHYSICAL REVIEW B, 54 (3), 1703-1710 (1996). 
 Separable dual-space Gaussian pseudopotentials.
 https://doi.org/10.1103/PhysRevB.54.1703


 -------------------------------------------------------------------------------
 -                                                                             -
 -                                T I M I N G                                  -
 -                                                                             -
 -------------------------------------------------------------------------------
 SUBROUTINE                       CALLS  ASD         SELF TIME        TOTAL TIME
                                MAXIMUM       AVERAGE  MAXIMUM  AVERAGE  MAXIMUM
 CP2K                                 1  1.0    0.015    0.015   85.409   85.409
 qs_energies                          1  2.0    0.000    0.000   84.698   84.698
 ls_scf                               1  3.0    0.000    0.000   84.486   84.486
 ls_scf_main                          8  4.0    0.002    0.002   57.886   57.886
 ls_scf_dm_to_ks                     17  5.0    0.001    0.001   57.728   57.728
 qs_ks_update_qs_env                 18  6.0    0.000    0.000   47.691   47.691
 rebuild_ks_matrix                   18  7.0    0.000    0.000   47.689   47.689
 qs_ks_build_kohn_sham_matrix        18  8.0    0.006    0.006   47.689   47.689
 qs_vxc_create                       18  9.0    0.001    0.001   29.516   29.516
 xc_vxc_pw_create                    18 10.0    0.507    0.507   29.515   29.515
 pw_transfer                        343 11.1    0.055    0.055   25.181   25.181
 fft_wrap_pw1pw2                    307 12.3    0.008    0.008   24.491   24.491
 fft_wrap_pw1pw2_200                199 13.7    2.485    2.485   23.611   23.611
 pao_update                           8  4.0    0.024    0.024   22.633   22.633
 pao_calc_energy                    971  5.0    0.009    0.009   20.420   20.420
 xc_pw_derive                       108 12.0    0.003    0.003   17.838   17.838
 xc_rho_set_and_dset_create          18 11.0    0.660    0.660   17.212   17.212
 dbcsr_multiply_generic           52030  8.4    0.977    0.977   16.145   16.145
 qs_rho_update_rho_low               18  6.0    0.000    0.000   13.879   13.879
 calculate_rho_elec                  18  7.0    0.106    0.106   13.879   13.879
 sum_up_and_integrate                18  9.0    0.401    0.401   13.648   13.648
 integrate_v_rspace                  18 10.0    0.002    0.002   13.247   13.247
 xc_pw_divergence                    18 11.0    0.001    0.001   11.418   11.418
 fft3d_s                            308 14.2   10.642   10.642   10.665   10.665
 pao_dm_trs4                        971  6.0    0.009    0.009   10.600   10.600
 grid_integrate_task_list            18 11.0   10.447   10.447   10.447   10.447
 density_matrix_trs4                988  7.0    0.367    0.367   10.118   10.118
 ls_scf_init_matrix_S               979  7.0    0.008    0.008    9.759    9.759
 pao_rebuild_S                      971  6.0    0.004    0.004    9.670    9.670
 matrix_sqrt_Newton_Schulz          979  8.0    0.232    0.232    8.801    8.801
 grid_collocate_task_list            18  8.0    8.470    8.470    8.470    8.470
 xc_functional_eval                  18 12.0    0.001    0.001    6.622    6.622
 pbe_lda_eval                        18 13.0    6.622    6.622    6.622    6.622
 multiply_cannon                  52030  9.4    2.534    2.534    6.155    6.155
 make_m2s                        104060  9.4    0.384    0.384    6.004    6.004
 pw_gather_s                        145 13.8    5.786    5.786    5.786    5.786
 pw_scatter_s                       162 14.7    5.450    5.450    5.450    5.450
 make_images                     104060 10.4    1.460    1.460    5.324    5.324
 density_rs2pw                       18  8.0    0.002    0.002    5.302    5.302
 pao_guess_initial_P                  1  4.0    0.000    0.000    3.852    3.852
 pao_read_preopt_dm                   1  5.0    0.000    0.000    3.852    3.852
 pw_derive                          108 13.0    3.520    3.520    3.520    3.520
 arnoldi_extremal                  1967  8.5    0.010    0.010    3.236    3.236
 arnoldi_normal_ev                 1967  9.5    0.029    0.029    3.226    3.226
 potential_pw2rs                     18 11.0    0.008    0.008    2.797    2.797
 build_subspace                    1967 10.5    0.148    0.148    2.537    2.537
 pw_copy                            216 11.8    2.465    2.465    2.465    2.465
 dbcsr_matrix_vector_mult         47198 11.5    0.273    0.273    2.329    2.329
 pao_calc_AB                       1276  5.8    0.003    0.003    2.201    2.201
 pao_calc_AB_equi                  1276  6.8    0.089    0.089    2.198    2.198
 pao_calc_grad_lnv_wrt_AB           304  7.0    0.015    0.015    1.962    1.962
 dbcsr_finalize                  124477  9.6    0.351    0.351    1.791    1.791
 dbcsr_create_new                399560 10.7    1.105    1.105    1.743    1.743
 -------------------------------------------------------------------------------

 The number of warnings for this run is : 0
 
 -------------------------------------------------------------------------------
  **** **** ******  **  PROGRAM ENDED AT                 2023-02-01 10:49:21.050
 ***** ** ***  *** **   PROGRAM RAN ON                                    moritz
 **    ****   ******    PROGRAM RAN BY                                       ole
 ***** **    ** ** **   PROGRAM PROCESS ID                                148693
  **** **  *******  **  PROGRAM STOPPED IN /home/ole/git/pao_ml_equivar/2H2O_MD/
                                           frame_0275
