       6
 i =      275, time =       55.000, E =       -34.4467220953
  O         2.3801594264        4.2564484062        4.1414725759
  H         2.8697555693        4.8581012171        3.5738287195
  H         2.0852292889        3.4963493202        3.5955058981
  O         5.4415278568        4.2392286282        3.8777976127
  H         6.0788093276        3.8849262976        4.5397188330
  H         4.5922010411        3.9798861968        4.2381609572
