 DBCSR| CPU Multiplication driver                                           BLAS
 DBCSR| Multrec recursion limit                                              512
 DBCSR| Multiplication stack size                                           1000
 DBCSR| Maximum elements for images                                    UNLIMITED
 DBCSR| Multiplicative factor virtual images                                   1
 DBCSR| Use multiplication densification                                       T
 DBCSR| Multiplication size stacks                                             3


  **** **** ******  **  PROGRAM STARTED AT               2019-03-28 17:32:55.707
 ***** ** ***  *** **   PROGRAM STARTED ON        oleschuett.zrh.corp.google.com
 **    ****   ******    PROGRAM STARTED BY                            oleschuett
 ***** **    ** ** **   PROGRAM PROCESS ID                                 32611
  **** **  *******  **  PROGRAM STARTED IN /usr/local/google/home/oleschuett/git
                                           /pao_ml_equivar/2H2O_rotations/phi_27

 CP2K| version string:                    CP2K version 7.0 (Development Version)
 CP2K| source code revision number:                                git:d9814d431
 CP2K| cp2kflags: libint fftw3 libxc libderiv_max_am1=5 libint_max_am=6         
 CP2K| is freely available from                            https://www.cp2k.org/
 CP2K| Program compiled at                          Mon Mar 25 16:50:07 CET 2019
 CP2K| Program compiled on                        oleschuett.zrh.corp.google.com
 CP2K| Program compiled for                                                local
 CP2K| Data directory path       /usr/local/google/home/oleschuett/git/cp2k/data
 CP2K| Input file name                                            2H2O_pao44.inp

 GLOBAL| Force Environment number                                              1
 GLOBAL| Basis set file name                                        BASIS_MOLOPT
 GLOBAL| Potential file name                                      GTH_POTENTIALS
 GLOBAL| MM Potential file name                                     MM_POTENTIAL
 GLOBAL| Coordinate file name                                         coords.xyz
 GLOBAL| Method name                                                        CP2K
 GLOBAL| Project name                                                 2H2O_pao44
 GLOBAL| Preferred FFT library                                             FFTW3
 GLOBAL| Preferred diagonalization lib.                                       SL
 GLOBAL| Run type                                                         ENERGY
 GLOBAL| All-to-all communication in single precision                          F
 GLOBAL| FFTs using library dependent lengths                                  F
 GLOBAL| Global print level                                                  LOW
 GLOBAL| MPI I/O enabled                                                       T
 GLOBAL| Total number of message passing processes                             1
 GLOBAL| Number of threads for this process                                    1
 GLOBAL| This output is from process                                           0
 GLOBAL| CPU model name :  Intel(R) Xeon(R) CPU E5-1650 v4 @ 3.60GHz

 MEMORY| system memory details [Kb]
 MEMORY|                        rank 0           min           max       average
 MEMORY| MemTotal             65953612      65953612      65953612      65953612
 MEMORY| MemFree               4249332       4249332       4249332       4249332
 MEMORY| Buffers               2545912       2545912       2545912       2545912
 MEMORY| Cached               25382072      25382072      25382072      25382072
 MEMORY| Slab                  3623476       3623476       3623476       3623476
 MEMORY| SReclaimable          2422248       2422248       2422248       2422248
 MEMORY| MemLikelyFree        34599564      34599564      34599564      34599564


 GENERATE|  Preliminary Number of Bonds generated:                             0
 GENERATE|  Achieved consistency in connectivity generation.

 *******************************************************************************
 *******************************************************************************
 **                                                                           **
 **     #####                         ##              ##                      **
 **    ##   ##            ##          ##              ##                      **
 **   ##     ##                       ##            ######                    **
 **   ##     ##  ##   ##  ##   #####  ##  ##   ####   ##    #####    #####    **
 **   ##     ##  ##   ##  ##  ##      ## ##   ##      ##   ##   ##  ##   ##   **
 **   ##  ## ##  ##   ##  ##  ##      ####     ###    ##   ######   ######    **
 **    ##  ###   ##   ##  ##  ##      ## ##      ##   ##   ##       ##        **
 **     #######   #####   ##   #####  ##  ##  ####    ##    #####   ##        **
 **           ##                                                    ##        **
 **                                                                           **
 **                                                ... make the atoms dance   **
 **                                                                           **
 **            Copyright (C) by CP2K developers group (2000 - 2018)           **
 **                                                                           **
 *******************************************************************************


 TOTAL NUMBERS AND MAXIMUM NUMBERS

  Total number of            - Atomic kinds:                                   2
                             - Atoms:                                          6
                             - Shell sets:                                     6
                             - Shells:                                        22
                             - Primitive Cartesian functions:                 42
                             - Cartesian basis functions:                     48
                             - Spherical basis functions:                     46

  Maximum angular momentum of- Orbital basis functions:                        2
                             - Local part of the GTH pseudopotential:          2
                             - Non-local part of the GTH pseudopotential:      0

 ------------------------------ Linear scaling SCF -----------------------------
 eps_scf:                                                              0.100E-07
 eps_filter:                                                           0.100E-07
 mixing_fraction:                                                      0.450E+00
 max_scf:                                                                     25
 fixed chemical potential (mu)                                                 F
 has unit metric:                                                              F
 Computing inv(S):                                                             T
 Computing sqrt(S):                                                            T
 Computing s preconditioner                                                    F
 sign sqrt order:                                                              3
 Extrapolation order:                                                          1
 Use single precision matrices                                                 F
 S preconditioner type                                                      NONE
 Polarized Atomic Orbitals (PAO)                                               T
 Purification method                                   Trace resetting 4th order
 Cluster type                                                             ATOMIC
 Computing Chebyshev                                                       FALSE
 Using PAO                                                                     T
 -------------------------------------------------------------------------------

 
 PAO|                                  EPS_PAO                           0.1E-04
 PAO|                                  MIXING                            0.5E+00
 PAO|                                  MAX_PAO                              1000
 PAO|                                  MAX_CYCLES                           1000
 PAO|                                  PARAMETERIZATION                   DIRECT
 PAO|                                  PRECONDITION                            F
 PAO|                                  REGULARIZATION                    0.0E+00
 PAO|                                  EPS_PGF                           0.1E-09
 PAO|                                  PENALTY_DISTANCE                  0.1E+00
 PAO|                                  PENALTY_STRENGTH                  0.5E-02
 PAO|                                  LINPOT_PRECONDITION_DELTA         0.0E+00
 PAO|                                  LINPOT_INITGUESS_DELT             0.0E+00
 PAO|                                  LINPOT_REGULARIZATION_DELTA       0.0E+00
 PAO|                                  LINPOT_REGULARIZATION_STRENGTH    0.0E+00
 PAO|                                  OPTIMIZER                              CG
 PAO|                                  CG_INIT_STEPS                           2
 PAO|                                  CG_RESET_LIMIT                    0.1E+00
 PAO|                                  CHECK_UNITARY_TOL                -0.1E+01
 PAO|                                  CHECK_GRADIENT_TOL               -0.1E+01
 PAO|                                  NUM_GRADIENT_ORDER                      2
 PAO|                                  NUM_GRADIENT_EPS                  0.1E-07
 PAO|                                  PRINT%RESTART%WRITE_CYCLES            100
 PAO|                                  RESTART_FILE 
 PAO|                                  PREOPT_DM_FILE 2H2O_ref_LS_DM_SPIN_1_RESTART.dm
 PAO|                                  MACHINE_LEARNING%METHOD        GAUSSIAN_P
 PAO|                                  MACHINE_LEARNING%PRIOR               ZERO
 PAO|                                  MACHINE_LEARNING%DESCRIPTOR     POTENTIAL
 PAO|                                  MACHINE_LEARNING%TOLERANCE        0.1E-01
 PAO|                                  MACHINE_LEARNING%GP_NOISE_VAR     0.1E+00
 PAO|                                  MACHINE_LEARNING%GP_SCALE         0.5E-01
 

 Calculating atomic Fock matrix for atomic kind: O

 Electronic structure
    Total number of core electrons                                          2.00
    Total number of valence electrons                                       6.00
    Total number of electrons                                               8.00
    Multiplicity                                                   not specified
    S   [  2.00] 2.00
    P      4.00


 *******************************************************************************
                  Iteration          Convergence                     Energy [au]
 *******************************************************************************
                          1        0.708315                     -15.576645311500
                          2        0.608879                     -15.587933561584
                          3        0.102828E-01                 -15.656849565404
                          4        0.113889E-02                 -15.656866888140
                          5        0.434197E-03                 -15.656867072159
                          6        0.263771E-03                 -15.656867091904
                          7        0.478536E-06                 -15.656867103452

 Energy components [Hartree]           Total Energy ::          -15.656867103452
                                        Band Energy ::           -3.000198112285
                                     Kinetic Energy ::           11.759971203220
                                   Potential Energy ::          -27.416838306672
                                      Virial (-V/T) ::            2.331369510426
                                        Core Energy ::          -26.140716385623
                                          XC Energy ::           -3.154051012914
                                     Coulomb Energy ::           13.637900295084
                       Total Pseudopotential Energy ::          -37.935781716540
                       Local Pseudopotential Energy ::          -39.218907440693
                    Nonlocal Pseudopotential Energy ::            1.283125724153
                                        Confinement ::            0.350941276976

 Orbital energies  State     L     Occupation   Energy[a.u.]          Energy[eV]

                       1     0          2.000      -0.864471          -23.523463

                       1     1          4.000      -0.317814           -8.648154


 Total Electron Density at R=0:                                         0.000068

 Calculating atomic Fock matrix for atomic kind: H

 Electronic structure
    Total number of core electrons                                          0.00
    Total number of valence electrons                                       1.00
    Total number of electrons                                               1.00
    Multiplicity                                                   not specified
    S      1.00


 *******************************************************************************
                  Iteration          Convergence                     Energy [au]
 *******************************************************************************
                          1        0.437545E-02                  -0.424159432110
                          2        0.531356E-03                  -0.424178438213
                          3        0.259176E-06                  -0.424178722480

 Energy components [Hartree]           Total Energy ::           -0.424178722480
                                        Band Energy ::           -0.199015229016
                                     Kinetic Energy ::            0.464007633961
                                   Potential Energy ::           -0.888186356441
                                      Virial (-V/T) ::            1.914163240935
                                        Core Energy ::           -0.479160803564
                                          XC Energy ::           -0.244352904054
                                     Coulomb Energy ::            0.299334985138
                       Total Pseudopotential Energy ::           -0.962295316385
                       Local Pseudopotential Energy ::           -0.962295316385
                    Nonlocal Pseudopotential Energy ::            0.000000000000
                                        Confinement ::            0.191268788606

 Orbital energies  State     L     Occupation   Energy[a.u.]          Energy[eV]

                       1     0          1.000      -0.199015           -5.415480


 Total Electron Density at R=0:                                         0.242907
 PAO| Made initial guess for matrix_X with norm:   4.8989794855663558     

     Lanczos converged:  T threshold:   0.100E-02
     Est. extremal eigenvalues:    0.335E+01   0.114E+00
     Est. condition number :    0.293E+02
     NS sqrt iter    1 1.00000000   0.819E+00       0.002       40.351
     NS sqrt iter    2 1.00000000   0.440E+00       0.002       63.658
     NS sqrt iter    3 1.00000000   0.170E+00       0.002       64.155
     NS sqrt iter    4 1.00000000   0.206E-01       0.002       64.071
     NS sqrt iter    5 1.00000000   0.533E-04       0.002       53.954
     Final NS sqrt iter    5 1.00000000   0.281E-08

 PAO| Read restart DM 2H2O_ref_LS_DM_SPIN_1_RESTART.dm with checksum:    57.450842207151695     
 PAO| Quickstep energy from restart density:  -34.450278034597886     
 PAO| ======================= Iteration:         1 =============================

     Lanczos converged:  T threshold:   0.100E-02
     Est. extremal eigenvalues:    0.335E+01   0.114E+00
     Est. condition number :    0.293E+02
     NS sqrt iter    1 1.00000000   0.819E+00       0.002       40.111
     NS sqrt iter    2 1.00000000   0.440E+00       0.002       64.507
     NS sqrt iter    3 1.00000000   0.170E+00       0.002       64.573
     NS sqrt iter    4 1.00000000   0.206E-01       0.002       64.569
     NS sqrt iter    5 1.00000000   0.533E-04       0.002       53.318
     Final NS sqrt iter    5 1.00000000   0.281E-08

     Est. extremal eigenvalues     -0.92061     1.88981  converged:  T
     TRS4 it   1 1.00000000   0.882E+00       0.001       16.128   0.100E-07
     TRS4 it   2 1.00000000   0.692E+00       0.001       32.256   0.100E-07
     TRS4 it   3 1.00000000   0.500E+00       0.001       32.256   0.100E-07
     TRS4 it   4 1.00000000   0.313E+00       0.001       32.256   0.100E-07
     TRS4 it   5 1.00000000   0.155E+00       0.001       32.256   0.100E-07
     TRS4 it   6 1.00000000   0.490E-01       0.001       32.256   0.100E-07
     TRS4 it   7 1.00000000   0.687E-02       0.001       32.256   0.100E-07
     TRS4 it   8 1.00000000   0.190E-03       0.001       32.256   0.100E-07
     TRS4 it   9 1.00000000   0.160E-06       0.001       32.256   0.100E-07
     TRS4 it  10 1.00000000   0.115E-12       0.001       32.256   0.100E-07
     Final TRS4 iteration   10 1.00000000   0.115E-12
     Chemical potential (mu):      -0.06631
 
 PAO| energy:  -7.6311660247562765      penalty:   3.7594152514438843E-033
 PAO|CG| warming up with steepest descent
 PAO|CG| beta:    0.0000000000000000     
 PAO| norm of gradient:  0.78328995461664808     
 PAO|LS| adapt:  T F F
 PAO|LS| adapt: scan_steps:    0.0000000000000000        0.0000000000000000        0.0000000000000000     
 PAO|LS| adapt: energies:   -7.6311660247562765        0.0000000000000000        0.0000000000000000     
 PAO| ======================= Iteration:         2 =============================

     Lanczos converged:  T threshold:   0.100E-02
     Est. extremal eigenvalues:    0.326E+01   0.127E+00
     Est. condition number :    0.257E+02
     NS sqrt iter    1 1.00000000   0.803E+00       0.002       41.016
     NS sqrt iter    2 1.00000000   0.425E+00       0.002       64.116
     NS sqrt iter    3 1.00000000   0.153E+00       0.002       64.080
     NS sqrt iter    4 1.00000000   0.142E-01       0.002       64.710
     NS sqrt iter    5 1.00000000   0.168E-04       0.002       50.943
     Final NS sqrt iter    5 1.00000000   0.426E-09

     Est. extremal eigenvalues     -0.92428     1.83406  converged:  T
     TRS4 it   1 1.00000000   0.878E+00       0.001       16.128   0.100E-07
     TRS4 it   2 1.00000000   0.674E+00       0.001       32.256   0.100E-07
     TRS4 it   3 1.00000000   0.484E+00       0.001       32.256   0.100E-07
     TRS4 it   4 1.00000000   0.293E+00       0.001       32.256   0.100E-07
     TRS4 it   5 1.00000000   0.136E+00       0.001       32.256   0.100E-07
     TRS4 it   6 1.00000000   0.377E-01       0.001       32.256   0.100E-07
     TRS4 it   7 1.00000000   0.412E-02       0.001       32.256   0.100E-07
     TRS4 it   8 1.00000000   0.687E-04       0.001       32.256   0.100E-07
     TRS4 it   9 1.00000000   0.210E-07       0.001       32.256   0.100E-07
     Final TRS4 iteration    9 1.00000000   0.210E-07
     Chemical potential (mu):      -0.05426
 
 PAO| energy:  -7.6866423632039833      penalty:   2.2469096845289686E-008
 PAO|LS| adapt:  T T F
 PAO|LS| adapt: scan_steps:    0.0000000000000000       0.10000000000000001        0.0000000000000000     
 PAO|LS| adapt: energies:   -7.6311660247562765       -7.6866423632039833        0.0000000000000000     
 PAO| ======================= Iteration:         3 =============================

     Lanczos converged:  T threshold:   0.100E-02
     Est. extremal eigenvalues:    0.317E+01   0.139E+00
     Est. condition number :    0.228E+02
     NS sqrt iter    1 1.00000000   0.786E+00       0.002       41.791
     NS sqrt iter    2 1.00000000   0.408E+00       0.002       63.521
     NS sqrt iter    3 1.00000000   0.136E+00       0.002       64.637
     NS sqrt iter    4 1.00000000   0.978E-02       0.002       63.756
     NS sqrt iter    5 1.00000000   0.550E-05       0.002       51.755
     Final NS sqrt iter    5 1.00000000   0.460E-10

     Est. extremal eigenvalues     -0.92771     1.78868  converged:  T
     TRS4 it   1 1.00000000   0.875E+00       0.001       16.128   0.100E-07
     TRS4 it   2 1.00000000   0.657E+00       0.001       32.256   0.100E-07
     TRS4 it   3 1.00000000   0.468E+00       0.001       32.256   0.100E-07
     TRS4 it   4 1.00000000   0.273E+00       0.001       32.256   0.100E-07
     TRS4 it   5 1.00000000   0.117E+00       0.001       32.256   0.100E-07
     TRS4 it   6 1.00000000   0.280E-01       0.001       32.256   0.100E-07
     TRS4 it   7 1.00000000   0.228E-02       0.001       32.256   0.100E-07
     TRS4 it   8 1.00000000   0.211E-04       0.001       32.256   0.100E-07
     TRS4 it   9 1.00000000   0.198E-08       0.001       32.256   0.100E-07
     Final TRS4 iteration    9 1.00000000   0.198E-08
     Chemical potential (mu):      -0.04122
 
 PAO| energy:  -7.7297044404286908      penalty:   3.5950554469680986E-007
 PAO|LS| adapt:  T T F
 PAO|LS| adapt: scan_steps:    0.0000000000000000       0.20000000000000001        0.0000000000000000     
 PAO|LS| adapt: energies:   -7.6311660247562765       -7.7297044404286908        0.0000000000000000     
 PAO| ======================= Iteration:         4 =============================

     Lanczos converged:  T threshold:   0.100E-02
     Est. extremal eigenvalues:    0.298E+01   0.157E+00
     Est. condition number :    0.190E+02
     NS sqrt iter    1 1.00000000   0.749E+00       0.002       41.286
     NS sqrt iter    2 1.00000000   0.374E+00       0.002       64.639
     NS sqrt iter    3 1.00000000   0.106E+00       0.002       64.778
     NS sqrt iter    4 1.00000000   0.475E-02       0.002       64.523
     NS sqrt iter    5 1.00000000   0.767E-06       0.002       51.730
     Final NS sqrt iter    5 1.00000000   0.973E-12

     Est. extremal eigenvalues     -0.93305     1.72188  converged:  T
     TRS4 it   1 1.00000000   0.869E+00       0.001       16.128   0.100E-07
     TRS4 it   2 1.00000000   0.629E+00       0.001       32.256   0.100E-07
     TRS4 it   3 1.00000000   0.438E+00       0.001       32.256   0.100E-07
     TRS4 it   4 1.00000000   0.236E+00       0.001       32.256   0.100E-07
     TRS4 it   5 1.00000000   0.855E-01       0.001       32.256   0.100E-07
     TRS4 it   6 1.00000000   0.143E-01       0.001       32.256   0.100E-07
     TRS4 it   7 1.00000000   0.567E-03       0.001       32.256   0.100E-07
     TRS4 it   8 1.00000000   0.127E-05       0.001       32.256   0.100E-07
     TRS4 it   9 1.00000000   0.722E-11       0.001       32.256   0.100E-07
     Final TRS4 iteration    9 1.00000000   0.722E-11
     Chemical potential (mu):      -0.01243
 
 PAO| energy:  -7.7769600912054617      penalty:   5.7520886765392300E-006
 PAO|LS| Need extra step
 PAO|LS| adapt:  T T F
 PAO|LS| adapt: scan_steps:    0.0000000000000000       0.40000000000000002        0.0000000000000000     
 PAO|LS| adapt: energies:   -7.6311660247562765       -7.7769600912054617        0.0000000000000000     
 PAO| ======================= Iteration:         5 =============================

     Lanczos converged:  T threshold:   0.100E-02
     Est. extremal eigenvalues:    0.263E+01   0.184E+00
     Est. condition number :    0.143E+02
     NS sqrt iter    1 1.00000000   0.687E+00       0.002       41.218
     NS sqrt iter    2 1.00000000   0.313E+00       0.002       64.341
     NS sqrt iter    3 1.00000000   0.655E-01       0.002       64.855
     NS sqrt iter    4 1.00000000   0.130E-02       0.002       64.425
     NS sqrt iter    5 1.00000000   0.212E-07       0.001       37.730
     Final NS sqrt iter    5 1.00000000   0.245E-08

     Est. extremal eigenvalues     -0.93431     1.64629  converged:  T
     TRS4 it   1 1.00000000   0.862E+00       0.001       16.128   0.100E-07
     TRS4 it   2 1.00000000   0.591E+00       0.001       32.256   0.100E-07
     TRS4 it   3 1.00000000   0.388E+00       0.001       32.256   0.100E-07
     TRS4 it   4 1.00000000   0.178E+00       0.001       32.256   0.100E-07
     TRS4 it   5 1.00000000   0.453E-01       0.001       32.256   0.100E-07
     TRS4 it   6 1.00000000   0.360E-02       0.001       32.256   0.100E-07
     TRS4 it   7 1.00000000   0.295E-04       0.001       32.256   0.100E-07
     TRS4 it   8 1.00000000   0.249E-08       0.001       32.256   0.100E-07
     Final TRS4 iteration    8 1.00000000   0.249E-08
     Chemical potential (mu):       0.03820
 
 PAO| energy:  -7.7221791027253124      penalty:   9.2033418515798167E-005
 PAO|LS| Need extra step
 PAO|LS| adapt:  T T T
 PAO|LS| adapt: scan_steps:    0.0000000000000000       0.40000000000000002       0.80000000000000004     
 PAO|LS| adapt: energies:   -7.6311660247562765       -7.7769600912054617       -7.7221791027253124     
 PAO|LS| adapt: suggested step_size:   0.49075214063992284     
 PAO|LS| adapt: predicted energy  -7.7821223609879109     
 PAO| ======================= Iteration:         6 =============================

     Lanczos converged:  T threshold:   0.100E-02
     Est. extremal eigenvalues:    0.289E+01   0.164E+00
     Est. condition number :    0.176E+02
     NS sqrt iter    1 1.00000000   0.733E+00       0.002       41.518
     NS sqrt iter    2 1.00000000   0.359E+00       0.002       64.139
     NS sqrt iter    3 1.00000000   0.947E-01       0.002       64.260
     NS sqrt iter    4 1.00000000   0.348E-02       0.002       64.517
     NS sqrt iter    5 1.00000000   0.335E-06       0.002       52.272
     Final NS sqrt iter    5 1.00000000   0.582E-11

     Est. extremal eigenvalues     -0.93454     1.69940  converged:  T
     TRS4 it   1 1.00000000   0.867E+00       0.001       16.128   0.100E-07
     TRS4 it   2 1.00000000   0.618E+00       0.001       32.256   0.100E-07
     TRS4 it   3 1.00000000   0.425E+00       0.001       32.256   0.100E-07
     TRS4 it   4 1.00000000   0.221E+00       0.001       32.256   0.100E-07
     TRS4 it   5 1.00000000   0.736E-01       0.001       32.256   0.100E-07
     TRS4 it   6 1.00000000   0.104E-01       0.001       32.256   0.100E-07
     TRS4 it   7 1.00000000   0.282E-03       0.001       32.256   0.100E-07
     TRS4 it   8 1.00000000   0.301E-06       0.001       32.256   0.100E-07
     TRS4 it   9 1.00000000   0.402E-12       0.001       32.256   0.100E-07
     Final TRS4 iteration    9 1.00000000   0.402E-12
     Chemical potential (mu):       0.00154
 
 PAO| energy:  -7.7814095245836690      penalty:   1.3032700573088484E-005
 PAO|CG| warming up with steepest descent
 PAO|CG| beta:    0.0000000000000000     
 PAO| norm of gradient:  0.41734389046060505     
 PAO| energy improvement: -0.15024349982739249     
 PAO| step      6                   -7.781409525  0.261E-01  0.491E+00     0.130
 PAO|LS| adapt:  T F F
 PAO|LS| adapt: scan_steps:    0.0000000000000000        0.0000000000000000        0.0000000000000000     
 PAO|LS| adapt: energies:   -7.7814095245836690        0.0000000000000000        0.0000000000000000     
 PAO| ======================= Iteration:         7 =============================

     Lanczos converged:  T threshold:   0.100E-02
     Est. extremal eigenvalues:    0.281E+01   0.178E+00
     Est. condition number :    0.158E+02
     NS sqrt iter    1 1.00000000   0.716E+00       0.002       41.409
     NS sqrt iter    2 1.00000000   0.338E+00       0.002       62.687
     NS sqrt iter    3 1.00000000   0.792E-01       0.002       64.207
     NS sqrt iter    4 1.00000000   0.212E-02       0.002       63.848
     NS sqrt iter    5 1.00000000   0.848E-07       0.002       48.220
     Final NS sqrt iter    5 1.00000000   0.941E-09

     Est. extremal eigenvalues     -0.93627     1.68694  converged:  T
     TRS4 it   1 1.00000000   0.866E+00       0.001       16.128   0.100E-07
     TRS4 it   2 1.00000000   0.617E+00       0.001       32.256   0.100E-07
     TRS4 it   3 1.00000000   0.425E+00       0.001       32.256   0.100E-07
     TRS4 it   4 1.00000000   0.221E+00       0.001       32.256   0.100E-07
     TRS4 it   5 1.00000000   0.742E-01       0.001       32.256   0.100E-07
     TRS4 it   6 1.00000000   0.103E-01       0.001       32.256   0.100E-07
     TRS4 it   7 1.00000000   0.262E-03       0.001       32.256   0.100E-07
     TRS4 it   8 1.00000000   0.247E-06       0.001       32.256   0.100E-07
     TRS4 it   9 1.00000000   0.267E-12       0.001       32.256   0.100E-07
     Final TRS4 iteration    9 1.00000000   0.267E-12
     Chemical potential (mu):       0.00367
 
 PAO| energy:  -7.7756018744328852      penalty:   1.9756674042642135E-005
 PAO|LS| adapt:  T F T
 PAO|LS| adapt: scan_steps:    0.0000000000000000        0.0000000000000000       0.49075214063992284     
 PAO|LS| adapt: energies:   -7.7814095245836690        0.0000000000000000       -7.7756018744328852     
 PAO| ======================= Iteration:         8 =============================

     Lanczos converged:  T threshold:   0.100E-02
     Est. extremal eigenvalues:    0.285E+01   0.171E+00
     Est. condition number :    0.167E+02
     NS sqrt iter    1 1.00000000   0.725E+00       0.002       41.047
     NS sqrt iter    2 1.00000000   0.349E+00       0.002       64.869
     NS sqrt iter    3 1.00000000   0.868E-01       0.002       64.034
     NS sqrt iter    4 1.00000000   0.273E-02       0.002       63.918
     NS sqrt iter    5 1.00000000   0.172E-06       0.002       49.149
     Final NS sqrt iter    5 1.00000000   0.116E-08

     Est. extremal eigenvalues     -0.93634     1.69252  converged:  T
     TRS4 it   1 1.00000000   0.866E+00       0.001       16.128   0.100E-07
     TRS4 it   2 1.00000000   0.617E+00       0.001       32.256   0.100E-07
     TRS4 it   3 1.00000000   0.425E+00       0.001       32.256   0.100E-07
     TRS4 it   4 1.00000000   0.220E+00       0.001       32.256   0.100E-07
     TRS4 it   5 1.00000000   0.737E-01       0.001       32.256   0.100E-07
     TRS4 it   6 1.00000000   0.104E-01       0.001       32.256   0.100E-07
     TRS4 it   7 1.00000000   0.279E-03       0.001       32.256   0.100E-07
     TRS4 it   8 1.00000000   0.290E-06       0.001       32.256   0.100E-07
     TRS4 it   9 1.00000000   0.371E-12       0.001       32.256   0.100E-07
     Final TRS4 iteration    9 1.00000000   0.371E-12
     Chemical potential (mu):       0.00211
 
 PAO| energy:  -7.8010871495729583      penalty:   1.4137940026284832E-005
 PAO|LS| adapt:  T T T
 PAO|LS| adapt: scan_steps:    0.0000000000000000       0.24537607031996142       0.49075214063992284     
 PAO|LS| adapt: energies:   -7.7814095245836690       -7.8010871495729583       -7.7756018744328852     
 PAO|LS| adapt: suggested step_size:   0.22959920072444626     
 PAO|LS| adapt: predicted energy  -7.8011805027460754     
 PAO| ======================= Iteration:         9 =============================

     Lanczos converged:  T threshold:   0.100E-02
     Est. extremal eigenvalues:    0.285E+01   0.170E+00
     Est. condition number :    0.168E+02
     NS sqrt iter    1 1.00000000   0.725E+00       0.002       41.103
     NS sqrt iter    2 1.00000000   0.349E+00       0.002       64.225
     NS sqrt iter    3 1.00000000   0.873E-01       0.002       64.036
     NS sqrt iter    4 1.00000000   0.278E-02       0.002       58.822
     NS sqrt iter    5 1.00000000   0.179E-06       0.002       51.030
     Final NS sqrt iter    5 1.00000000   0.121E-08

     Est. extremal eigenvalues     -0.93629     1.69292  converged:  T
     TRS4 it   1 1.00000000   0.866E+00       0.001       16.128   0.100E-07
     TRS4 it   2 1.00000000   0.617E+00       0.001       32.256   0.100E-07
     TRS4 it   3 1.00000000   0.425E+00       0.001       32.256   0.100E-07
     TRS4 it   4 1.00000000   0.220E+00       0.001       32.256   0.100E-07
     TRS4 it   5 1.00000000   0.737E-01       0.001       32.256   0.100E-07
     TRS4 it   6 1.00000000   0.104E-01       0.001       32.256   0.100E-07
     TRS4 it   7 1.00000000   0.280E-03       0.001       32.256   0.100E-07
     TRS4 it   8 1.00000000   0.292E-06       0.001       32.256   0.100E-07
     TRS4 it   9 1.00000000   0.376E-12       0.001       32.256   0.100E-07
     Final TRS4 iteration    9 1.00000000   0.376E-12
     Chemical potential (mu):       0.00204
 
 PAO| energy:  -7.8012040920770982      penalty:   1.3968748382043693E-005
 PAO|CG| trace_G_new    3.6938273231376571E-002
 PAO|CG| trace_G_prev   0.17417592290479350     
 PAO|CG| trace_G_mix   -1.4486340393388224E-003
 PAO|CG| trace_D   0.17417592290479350     
 PAO|CG| trace_D_Gnew   1.4486340393388224E-003
 PAO|CG| beta:   0.22039158243299853     
 PAO| norm of gradient:  0.19219332254627519     
 PAO| energy improvement:  -1.9794567493429227E-002
 PAO| step      9                   -7.801204092  0.120E-01  0.230E+00     0.082
 PAO|LS| adapt:  T F F
 PAO|LS| adapt: scan_steps:    0.0000000000000000        0.0000000000000000        0.0000000000000000     
 PAO|LS| adapt: energies:   -7.8012040920770982        0.0000000000000000        0.0000000000000000     
 PAO| ======================= Iteration:        10 =============================

     Lanczos converged:  T threshold:   0.100E-02
     Est. extremal eigenvalues:    0.282E+01   0.176E+00
     Est. condition number :    0.160E+02
     NS sqrt iter    1 1.00000000   0.717E+00       0.002       41.029
     NS sqrt iter    2 1.00000000   0.341E+00       0.002       64.082
     NS sqrt iter    3 1.00000000   0.817E-01       0.002       63.473
     NS sqrt iter    4 1.00000000   0.228E-02       0.002       64.012
     NS sqrt iter    5 1.00000000   0.999E-07       0.002       43.455
     Final NS sqrt iter    5 1.00000000   0.969E-09

     Est. extremal eigenvalues     -0.93718     1.68834  converged:  T
     TRS4 it   1 1.00000000   0.864E+00       0.001       16.128   0.100E-07
     TRS4 it   2 1.00000000   0.616E+00       0.001       32.256   0.100E-07
     TRS4 it   3 1.00000000   0.423E+00       0.001       32.256   0.100E-07
     TRS4 it   4 1.00000000   0.218E+00       0.001       32.256   0.100E-07
     TRS4 it   5 1.00000000   0.716E-01       0.001       32.256   0.100E-07
     TRS4 it   6 1.00000000   0.973E-02       0.001       32.256   0.100E-07
     TRS4 it   7 1.00000000   0.242E-03       0.001       32.256   0.100E-07
     TRS4 it   8 1.00000000   0.213E-06       0.001       32.256   0.100E-07
     TRS4 it   9 1.00000000   0.199E-12       0.001       32.256   0.100E-07
     Final TRS4 iteration    9 1.00000000   0.199E-12
     Chemical potential (mu):       0.00529
 
 PAO| energy:  -7.8062496660521221      penalty:   1.4512968611964745E-005
 PAO|LS| adapt:  T T F
 PAO|LS| adapt: scan_steps:    0.0000000000000000       0.22959920072444626        0.0000000000000000     
 PAO|LS| adapt: energies:   -7.8012040920770982       -7.8062496660521221        0.0000000000000000     
 PAO| ======================= Iteration:        11 =============================

     Lanczos converged:  T threshold:   0.100E-02
     Est. extremal eigenvalues:    0.278E+01   0.182E+00
     Est. condition number :    0.153E+02
     NS sqrt iter    1 1.00000000   0.710E+00       0.002       40.373
     NS sqrt iter    2 1.00000000   0.333E+00       0.002       62.494
     NS sqrt iter    3 1.00000000   0.763E-01       0.002       62.329
     NS sqrt iter    4 1.00000000   0.187E-02       0.002       62.802
     NS sqrt iter    5 1.00000000   0.549E-07       0.002       45.892
     Final NS sqrt iter    5 1.00000000   0.398E-09

     Est. extremal eigenvalues     -0.93708     1.68526  converged:  T
     TRS4 it   1 1.00000000   0.863E+00       0.001       16.128   0.100E-07
     TRS4 it   2 1.00000000   0.614E+00       0.001       32.256   0.100E-07
     TRS4 it   3 1.00000000   0.421E+00       0.001       32.256   0.100E-07
     TRS4 it   4 1.00000000   0.215E+00       0.001       32.256   0.100E-07
     TRS4 it   5 1.00000000   0.697E-01       0.001       32.256   0.100E-07
     TRS4 it   6 1.00000000   0.914E-02       0.001       32.256   0.100E-07
     TRS4 it   7 1.00000000   0.210E-03       0.001       32.256   0.100E-07
     TRS4 it   8 1.00000000   0.155E-06       0.001       32.256   0.100E-07
     TRS4 it   9 1.00000000   0.103E-12       0.001       32.256   0.100E-07
     Final TRS4 iteration    9 1.00000000   0.103E-12
     Chemical potential (mu):       0.00866
 
 PAO| energy:  -7.8048153146502788      penalty:   1.5730584759826915E-005
 PAO|LS| adapt:  T T T
 PAO|LS| adapt: scan_steps:    0.0000000000000000       0.22959920072444626       0.45919840144889251     
 PAO|LS| adapt: energies:   -7.8012040920770982       -7.8062496660521221       -7.8048153146502788     
 PAO|LS| adapt: suggested step_size:   0.29357631220479391     
 PAO|LS| adapt: predicted energy  -7.8065012300693484     
 PAO| ======================= Iteration:        12 =============================

     Lanczos converged:  T threshold:   0.100E-02
     Est. extremal eigenvalues:    0.280E+01   0.178E+00
     Est. condition number :    0.158E+02
     NS sqrt iter    1 1.00000000   0.715E+00       0.002       40.435
     NS sqrt iter    2 1.00000000   0.339E+00       0.002       61.870
     NS sqrt iter    3 1.00000000   0.802E-01       0.002       62.839
     NS sqrt iter    4 1.00000000   0.216E-02       0.002       62.932
     NS sqrt iter    5 1.00000000   0.846E-07       0.002       48.397
     Final NS sqrt iter    5 1.00000000   0.105E-08

     Est. extremal eigenvalues     -0.93725     1.68734  converged:  T
     TRS4 it   1 1.00000000   0.864E+00       0.001       16.128   0.100E-07
     TRS4 it   2 1.00000000   0.615E+00       0.001       32.256   0.100E-07
     TRS4 it   3 1.00000000   0.422E+00       0.001       32.256   0.100E-07
     TRS4 it   4 1.00000000   0.217E+00       0.001       32.256   0.100E-07
     TRS4 it   5 1.00000000   0.711E-01       0.001       32.256   0.100E-07
     TRS4 it   6 1.00000000   0.956E-02       0.001       32.256   0.100E-07
     TRS4 it   7 1.00000000   0.233E-03       0.001       32.256   0.100E-07
     TRS4 it   8 1.00000000   0.195E-06       0.001       32.256   0.100E-07
     TRS4 it   9 1.00000000   0.166E-12       0.001       32.256   0.100E-07
     Final TRS4 iteration    9 1.00000000   0.166E-12
     Chemical potential (mu):       0.00622
 
 PAO| energy:  -7.8064851142824807      penalty:   1.4776926557279873E-005
 PAO|CG| trace_G_new    1.1847720921154735E-002
 PAO|CG| trace_G_prev    3.6938273231376571E-002
 PAO|CG| trace_G_mix   -4.5858755557422410E-004
 PAO|CG| trace_D    4.4759890972885956E-002
 PAO|CG| trace_D_Gnew   2.1065726852061216E-004
 PAO|CG| beta:   0.33315873754151504     
 PAO| norm of gradient:  0.10884723662617593     
 PAO| energy improvement:  -5.2810222053825129E-003
 PAO| step     12                   -7.806485114  0.680E-02  0.294E+00     0.082
 PAO|LS| adapt:  T F F
 PAO|LS| adapt: scan_steps:    0.0000000000000000        0.0000000000000000        0.0000000000000000     
 PAO|LS| adapt: energies:   -7.8064851142824807        0.0000000000000000        0.0000000000000000     
 PAO| ======================= Iteration:        13 =============================

     Lanczos converged:  T threshold:   0.100E-02
     Est. extremal eigenvalues:    0.277E+01   0.182E+00
     Est. condition number :    0.152E+02
     NS sqrt iter    1 1.00000000   0.708E+00       0.002       40.487
     NS sqrt iter    2 1.00000000   0.332E+00       0.002       62.040
     NS sqrt iter    3 1.00000000   0.758E-01       0.002       62.926
     NS sqrt iter    4 1.00000000   0.184E-02       0.002       62.445
     NS sqrt iter    5 1.00000000   0.533E-07       0.002       46.825
     Final NS sqrt iter    5 1.00000000   0.385E-09

     Est. extremal eigenvalues     -0.93773     1.68114  converged:  T
     TRS4 it   1 1.00000000   0.863E+00       0.001       16.128   0.100E-07
     TRS4 it   2 1.00000000   0.612E+00       0.001       32.256   0.100E-07
     TRS4 it   3 1.00000000   0.418E+00       0.001       32.256   0.100E-07
     TRS4 it   4 1.00000000   0.212E+00       0.001       32.256   0.100E-07
     TRS4 it   5 1.00000000   0.676E-01       0.001       32.256   0.100E-07
     TRS4 it   6 1.00000000   0.858E-02       0.001       32.256   0.100E-07
     TRS4 it   7 1.00000000   0.184E-03       0.001       32.256   0.100E-07
     TRS4 it   8 1.00000000   0.119E-06       0.001       32.256   0.100E-07
     TRS4 it   9 1.00000000   0.607E-13       0.001       32.256   0.100E-07
     Final TRS4 iteration    9 1.00000000   0.607E-13
     Chemical potential (mu):       0.01086
 
 PAO| energy:  -7.8085545164379146      penalty:   1.5087469329821520E-005
 PAO|LS| adapt:  T T F
 PAO|LS| adapt: scan_steps:    0.0000000000000000       0.29357631220479391        0.0000000000000000     
 PAO|LS| adapt: energies:   -7.8064851142824807       -7.8085545164379146        0.0000000000000000     
 PAO| ======================= Iteration:        14 =============================

     Lanczos converged:  T threshold:   0.100E-02
     Est. extremal eigenvalues:    0.274E+01   0.186E+00
     Est. condition number :    0.147E+02
     NS sqrt iter    1 1.00000000   0.702E+00       0.002       40.577
     NS sqrt iter    2 1.00000000   0.325E+00       0.002       62.642
     NS sqrt iter    3 1.00000000   0.718E-01       0.002       62.888
     NS sqrt iter    4 1.00000000   0.157E-02       0.002       62.384
     NS sqrt iter    5 1.00000000   0.336E-07       0.002       44.330
     Final NS sqrt iter    5 1.00000000   0.337E-09

     Est. extremal eigenvalues     -0.93771     1.67531  converged:  T
     TRS4 it   1 1.00000000   0.863E+00       0.001       16.128   0.100E-07
     TRS4 it   2 1.00000000   0.609E+00       0.001       32.256   0.100E-07
     TRS4 it   3 1.00000000   0.414E+00       0.001       32.256   0.100E-07
     TRS4 it   4 1.00000000   0.207E+00       0.001       32.256   0.100E-07
     TRS4 it   5 1.00000000   0.642E-01       0.001       32.256   0.100E-07
     TRS4 it   6 1.00000000   0.770E-02       0.001       32.256   0.100E-07
     TRS4 it   7 1.00000000   0.146E-03       0.001       32.256   0.100E-07
     TRS4 it   8 1.00000000   0.726E-07       0.001       32.256   0.100E-07
     Final TRS4 iteration    8 1.00000000   0.726E-07
     Chemical potential (mu):       0.01289
 
 PAO| energy:  -7.8078970524189115      penalty:   1.5879339302555834E-005
 PAO|LS| adapt:  T T T
 PAO|LS| adapt: scan_steps:    0.0000000000000000       0.29357631220479391       0.58715262440958782     
 PAO|LS| adapt: energies:   -7.8064851142824807       -7.8085545164379146       -7.8078970524189115     
 PAO|LS| adapt: suggested step_size:   0.36958143395233217     
 PAO|LS| adapt: predicted energy  -7.8086459019870018     
 PAO| ======================= Iteration:        15 =============================

     Lanczos converged:  T threshold:   0.100E-02
     Est. extremal eigenvalues:    0.276E+01   0.183E+00
     Est. condition number :    0.151E+02
     NS sqrt iter    1 1.00000000   0.707E+00       0.002       40.595
     NS sqrt iter    2 1.00000000   0.330E+00       0.002       62.788
     NS sqrt iter    3 1.00000000   0.748E-01       0.002       64.064
     NS sqrt iter    4 1.00000000   0.177E-02       0.002       63.806
     NS sqrt iter    5 1.00000000   0.473E-07       0.002       45.400
     Final NS sqrt iter    5 1.00000000   0.347E-09

     Est. extremal eigenvalues     -0.93777     1.67960  converged:  T
     TRS4 it   1 1.00000000   0.863E+00       0.001       16.128   0.100E-07
     TRS4 it   2 1.00000000   0.611E+00       0.001       32.256   0.100E-07
     TRS4 it   3 1.00000000   0.417E+00       0.001       32.256   0.100E-07
     TRS4 it   4 1.00000000   0.211E+00       0.001       32.256   0.100E-07
     TRS4 it   5 1.00000000   0.667E-01       0.001       32.256   0.100E-07
     TRS4 it   6 1.00000000   0.834E-02       0.001       32.256   0.100E-07
     TRS4 it   7 1.00000000   0.173E-03       0.001       32.256   0.100E-07
     TRS4 it   8 1.00000000   0.105E-06       0.001       32.256   0.100E-07
     TRS4 it   9 1.00000000   0.467E-13       0.001       32.256   0.100E-07
     Final TRS4 iteration    9 1.00000000   0.467E-13
     Chemical potential (mu):       0.01204
 
 PAO| energy:  -7.8086428985935639      penalty:   1.5243276158931922E-005
 PAO|CG| trace_G_new    2.6155636209820553E-003
 PAO|CG| trace_G_prev    1.1847720921154735E-002
 PAO|CG| trace_G_mix    6.6481155458986493E-005
 PAO|CG| trace_D    1.6675468959804998E-002
 PAO|CG| trace_D_Gnew   3.3889277344973458E-005
 PAO|CG| beta:   0.21515382430823016     
 PAO| norm of gradient:   5.1142581289782933E-002
 PAO| energy improvement:  -2.1577843110831552E-003
 PAO| step     15                   -7.808642899  0.320E-02  0.370E+00     0.081
 PAO|LS| adapt:  T F F
 PAO|LS| adapt: scan_steps:    0.0000000000000000        0.0000000000000000        0.0000000000000000     
 PAO|LS| adapt: energies:   -7.8086428985935639        0.0000000000000000        0.0000000000000000     
 PAO| ======================= Iteration:        16 =============================

     Lanczos converged:  T threshold:   0.100E-02
     Est. extremal eigenvalues:    0.275E+01   0.183E+00
     Est. condition number :    0.150E+02
     NS sqrt iter    1 1.00000000   0.705E+00       0.002       41.076
     NS sqrt iter    2 1.00000000   0.329E+00       0.002       64.333
     NS sqrt iter    3 1.00000000   0.741E-01       0.002       65.168
     NS sqrt iter    4 1.00000000   0.172E-02       0.002       64.134
     NS sqrt iter    5 1.00000000   0.434E-07       0.002       44.813
     Final NS sqrt iter    5 1.00000000   0.346E-09

     Est. extremal eigenvalues     -0.93780     1.67949  converged:  T
     TRS4 it   1 1.00000000   0.864E+00       0.001       16.128   0.100E-07
     TRS4 it   2 1.00000000   0.611E+00       0.001       32.256   0.100E-07
     TRS4 it   3 1.00000000   0.416E+00       0.001       32.256   0.100E-07
     TRS4 it   4 1.00000000   0.209E+00       0.001       32.256   0.100E-07
     TRS4 it   5 1.00000000   0.656E-01       0.001       27.826   0.100E-07
     TRS4 it   6 1.00000000   0.808E-02       0.001       32.256   0.100E-07
     TRS4 it   7 1.00000000   0.164E-03       0.001       32.256   0.100E-07
     TRS4 it   8 1.00000000   0.941E-07       0.001       32.256   0.100E-07
     TRS4 it   9 1.00000000   0.387E-13       0.001       32.256   0.100E-07
     Final TRS4 iteration    9 1.00000000   0.387E-13
     Chemical potential (mu):       0.01288
 
 PAO| energy:  -7.8087709069579372      penalty:   1.5024616585874194E-005
 PAO|LS| adapt:  T T F
 PAO|LS| adapt: scan_steps:    0.0000000000000000       0.36958143395233217        0.0000000000000000     
 PAO|LS| adapt: energies:   -7.8086428985935639       -7.8087709069579372        0.0000000000000000     
 PAO| ======================= Iteration:        17 =============================

     Lanczos converged:  T threshold:   0.100E-02
     Est. extremal eigenvalues:    0.275E+01   0.184E+00
     Est. condition number :    0.149E+02
     NS sqrt iter    1 1.00000000   0.703E+00       0.002       40.719
     NS sqrt iter    2 1.00000000   0.328E+00       0.002       63.929
     NS sqrt iter    3 1.00000000   0.735E-01       0.002       64.294
     NS sqrt iter    4 1.00000000   0.167E-02       0.002       64.749
     NS sqrt iter    5 1.00000000   0.398E-07       0.002       44.302
     Final NS sqrt iter    5 1.00000000   0.299E-09

     Est. extremal eigenvalues     -0.93771     1.67946  converged:  T
     TRS4 it   1 1.00000000   0.864E+00       0.001       16.128   0.100E-07
     TRS4 it   2 1.00000000   0.610E+00       0.001       32.256   0.100E-07
     TRS4 it   3 1.00000000   0.415E+00       0.001       32.256   0.100E-07
     TRS4 it   4 1.00000000   0.208E+00       0.001       32.256   0.100E-07
     TRS4 it   5 1.00000000   0.646E-01       0.001       32.256   0.100E-07
     TRS4 it   6 1.00000000   0.783E-02       0.001       32.256   0.100E-07
     TRS4 it   7 1.00000000   0.155E-03       0.001       32.256   0.100E-07
     TRS4 it   8 1.00000000   0.847E-07       0.001       32.256   0.100E-07
     TRS4 it   9 1.00000000   0.313E-13       0.001       32.256   0.100E-07
     Final TRS4 iteration    9 1.00000000   0.313E-13
     Chemical potential (mu):       0.01369
 
 PAO| energy:  -7.8072212807713663      penalty:   1.4930673650092146E-005
 PAO|LS| adapt:  T T T
 PAO|LS| adapt: scan_steps:    0.0000000000000000       0.36958143395233217       0.73916286790466434     
 PAO|LS| adapt: energies:   -7.8086428985935639       -7.8087709069579372       -7.8072212807713663     
 PAO|LS| adapt: suggested step_size:   0.21299084842693969     
 PAO|LS| adapt: predicted energy  -7.8089214907986824     
 PAO| ======================= Iteration:        18 =============================

     Lanczos converged:  T threshold:   0.100E-02
     Est. extremal eigenvalues:    0.276E+01   0.183E+00
     Est. condition number :    0.151E+02
     NS sqrt iter    1 1.00000000   0.706E+00       0.002       40.351
     NS sqrt iter    2 1.00000000   0.329E+00       0.002       62.679
     NS sqrt iter    3 1.00000000   0.744E-01       0.002       62.224
     NS sqrt iter    4 1.00000000   0.174E-02       0.002       62.267
     NS sqrt iter    5 1.00000000   0.450E-07       0.002       44.802
     Final NS sqrt iter    5 1.00000000   0.357E-09

     Est. extremal eigenvalues     -0.93780     1.67953  converged:  T
     TRS4 it   1 1.00000000   0.864E+00       0.001       16.128   0.100E-07
     TRS4 it   2 1.00000000   0.611E+00       0.001       32.256   0.100E-07
     TRS4 it   3 1.00000000   0.416E+00       0.001       32.256   0.100E-07
     TRS4 it   4 1.00000000   0.210E+00       0.001       32.256   0.100E-07
     TRS4 it   5 1.00000000   0.661E-01       0.001       32.256   0.100E-07
     TRS4 it   6 1.00000000   0.819E-02       0.001       32.256   0.100E-07
     TRS4 it   7 1.00000000   0.168E-03       0.001       32.256   0.100E-07
     TRS4 it   8 1.00000000   0.984E-07       0.001       32.256   0.100E-07
     TRS4 it   9 1.00000000   0.415E-13       0.001       32.256   0.100E-07
     Final TRS4 iteration    9 1.00000000   0.415E-13
     Chemical potential (mu):       0.01253
 
 PAO| energy:  -7.8089210213822184      penalty:   1.5102302685503591E-005
 PAO|CG| trace_G_new    7.2808448331231339E-004
 PAO|CG| trace_G_prev    2.6155636209820553E-003
 PAO|CG| trace_G_mix    1.6345434394719709E-006
 PAO|CG| trace_D    3.3729077427401668E-003
 PAO|CG| trace_D_Gnew  -1.8033865732529239E-006
 PAO|CG| beta:   0.27774126159473200     
 PAO| norm of gradient:   2.6983040660983955E-002
 PAO| energy improvement:  -2.7812278865457785E-004
 PAO| step     18                   -7.808921021  0.169E-02  0.213E+00     0.082
 PAO|LS| adapt:  T F F
 PAO|LS| adapt: scan_steps:    0.0000000000000000        0.0000000000000000        0.0000000000000000     
 PAO|LS| adapt: energies:   -7.8089210213822184        0.0000000000000000        0.0000000000000000     
 PAO| ======================= Iteration:        19 =============================

     Lanczos converged:  T threshold:   0.100E-02
     Est. extremal eigenvalues:    0.276E+01   0.183E+00
     Est. condition number :    0.151E+02
     NS sqrt iter    1 1.00000000   0.706E+00       0.002       40.503
     NS sqrt iter    2 1.00000000   0.330E+00       0.002       62.149
     NS sqrt iter    3 1.00000000   0.746E-01       0.002       62.844
     NS sqrt iter    4 1.00000000   0.175E-02       0.002       62.070
     NS sqrt iter    5 1.00000000   0.455E-07       0.002       46.320
     Final NS sqrt iter    5 1.00000000   0.361E-09

     Est. extremal eigenvalues     -0.93780     1.67986  converged:  T
     TRS4 it   1 1.00000000   0.864E+00       0.001       16.128   0.100E-07
     TRS4 it   2 1.00000000   0.611E+00       0.001       32.256   0.100E-07
     TRS4 it   3 1.00000000   0.416E+00       0.001       32.256   0.100E-07
     TRS4 it   4 1.00000000   0.210E+00       0.001       32.256   0.100E-07
     TRS4 it   5 1.00000000   0.660E-01       0.001       32.256   0.100E-07
     TRS4 it   6 1.00000000   0.818E-02       0.001       32.256   0.100E-07
     TRS4 it   7 1.00000000   0.168E-03       0.001       32.256   0.100E-07
     TRS4 it   8 1.00000000   0.100E-06       0.001       32.256   0.100E-07
     TRS4 it   9 1.00000000   0.434E-13       0.001       32.256   0.100E-07
     Final TRS4 iteration    9 1.00000000   0.434E-13
     Chemical potential (mu):       0.01224
 
 PAO| energy:  -7.8090393588164977      penalty:   1.4812543693396915E-005
 PAO|LS| adapt:  T T F
 PAO|LS| adapt: scan_steps:    0.0000000000000000       0.21299084842693969        0.0000000000000000     
 PAO|LS| adapt: energies:   -7.8089210213822184       -7.8090393588164977        0.0000000000000000     
 PAO| ======================= Iteration:        20 =============================

     Lanczos converged:  T threshold:   0.100E-02
     Est. extremal eigenvalues:    0.276E+01   0.183E+00
     Est. condition number :    0.151E+02
     NS sqrt iter    1 1.00000000   0.705E+00       0.002       40.460
     NS sqrt iter    2 1.00000000   0.330E+00       0.002       62.376
     NS sqrt iter    3 1.00000000   0.748E-01       0.002       62.692
     NS sqrt iter    4 1.00000000   0.176E-02       0.002       62.261
     NS sqrt iter    5 1.00000000   0.460E-07       0.002       45.963
     Final NS sqrt iter    5 1.00000000   0.345E-09

     Est. extremal eigenvalues     -0.93780     1.68019  converged:  T
     TRS4 it   1 1.00000000   0.864E+00       0.001       16.128   0.100E-07
     TRS4 it   2 1.00000000   0.611E+00       0.001       32.256   0.100E-07
     TRS4 it   3 1.00000000   0.416E+00       0.001       32.256   0.100E-07
     TRS4 it   4 1.00000000   0.210E+00       0.001       32.256   0.100E-07
     TRS4 it   5 1.00000000   0.659E-01       0.001       32.256   0.100E-07
     TRS4 it   6 1.00000000   0.818E-02       0.001       32.256   0.100E-07
     TRS4 it   7 1.00000000   0.169E-03       0.001       32.256   0.100E-07
     TRS4 it   8 1.00000000   0.102E-06       0.001       32.256   0.100E-07
     TRS4 it   9 1.00000000   0.451E-13       0.001       32.256   0.100E-07
     Final TRS4 iteration    9 1.00000000   0.451E-13
     Chemical potential (mu):       0.01196
 
 PAO| energy:  -7.8090836025853960      penalty:   1.4535256409655527E-005
 PAO|LS| adapt:  T T F
 PAO|LS| adapt: scan_steps:    0.0000000000000000       0.42598169685387938        0.0000000000000000     
 PAO|LS| adapt: energies:   -7.8089210213822184       -7.8090836025853960        0.0000000000000000     
 PAO| ======================= Iteration:        21 =============================

     Lanczos converged:  T threshold:   0.100E-02
     Est. extremal eigenvalues:    0.276E+01   0.183E+00
     Est. condition number :    0.151E+02
     NS sqrt iter    1 1.00000000   0.705E+00       0.002       40.523
     NS sqrt iter    2 1.00000000   0.330E+00       0.002       62.054
     NS sqrt iter    3 1.00000000   0.753E-01       0.002       62.942
     NS sqrt iter    4 1.00000000   0.178E-02       0.002       62.473
     NS sqrt iter    5 1.00000000   0.472E-07       0.002       46.701
     Final NS sqrt iter    5 1.00000000   0.356E-09

     Est. extremal eigenvalues     -0.93779     1.68087  converged:  T
     TRS4 it   1 1.00000000   0.864E+00       0.001       16.128   0.100E-07
     TRS4 it   2 1.00000000   0.611E+00       0.001       32.256   0.100E-07
     TRS4 it   3 1.00000000   0.416E+00       0.001       32.256   0.100E-07
     TRS4 it   4 1.00000000   0.209E+00       0.001       32.256   0.100E-07
     TRS4 it   5 1.00000000   0.657E-01       0.001       32.256   0.100E-07
     TRS4 it   6 1.00000000   0.817E-02       0.001       32.256   0.100E-07
     TRS4 it   7 1.00000000   0.171E-03       0.001       32.256   0.100E-07
     TRS4 it   8 1.00000000   0.105E-06       0.001       32.256   0.100E-07
     TRS4 it   9 1.00000000   0.485E-13       0.001       32.256   0.100E-07
     Final TRS4 iteration    9 1.00000000   0.485E-13
     Chemical potential (mu):       0.01139
 
 PAO| energy:  -7.8089473885349232      penalty:   1.4017520793234445E-005
 PAO|LS| Need extra step
 PAO|LS| adapt:  T T T
 PAO|LS| adapt: scan_steps:    0.0000000000000000       0.42598169685387938       0.85196339370775875     
 PAO|LS| adapt: energies:   -7.8089210213822184       -7.8090836025853960       -7.8089473885349232     
 PAO|LS| adapt: suggested step_size:   0.44477704971367227     
 PAO|LS| adapt: predicted energy  -7.8090838934311897     
 PAO| ======================= Iteration:        22 =============================

     Lanczos converged:  T threshold:   0.100E-02
     Est. extremal eigenvalues:    0.276E+01   0.183E+00
     Est. condition number :    0.151E+02
     NS sqrt iter    1 1.00000000   0.705E+00       0.002       35.942
     NS sqrt iter    2 1.00000000   0.330E+00       0.002       63.989
     NS sqrt iter    3 1.00000000   0.748E-01       0.002       63.608
     NS sqrt iter    4 1.00000000   0.176E-02       0.002       64.365
     NS sqrt iter    5 1.00000000   0.461E-07       0.002       45.328
     Final NS sqrt iter    5 1.00000000   0.349E-09

     Est. extremal eigenvalues     -0.93780     1.68022  converged:  T
     TRS4 it   1 1.00000000   0.864E+00       0.001       16.128   0.100E-07
     TRS4 it   2 1.00000000   0.611E+00       0.001       32.256   0.100E-07
     TRS4 it   3 1.00000000   0.416E+00       0.001       32.256   0.100E-07
     TRS4 it   4 1.00000000   0.210E+00       0.001       32.256   0.100E-07
     TRS4 it   5 1.00000000   0.659E-01       0.001       32.256   0.100E-07
     TRS4 it   6 1.00000000   0.818E-02       0.001       32.256   0.100E-07
     TRS4 it   7 1.00000000   0.169E-03       0.001       32.256   0.100E-07
     TRS4 it   8 1.00000000   0.102E-06       0.001       32.256   0.100E-07
     TRS4 it   9 1.00000000   0.450E-13       0.001       32.256   0.100E-07
     Final TRS4 iteration    9 1.00000000   0.450E-13
     Chemical potential (mu):       0.01193
 
 PAO| energy:  -7.8090839291396597      penalty:   1.4511380154651016E-005
 PAO|CG| trace_G_new    2.2463861037606687E-004
 PAO|CG| trace_G_prev    7.2808448331231339E-004
 PAO|CG| trace_G_mix    3.0731049151223603E-006
 PAO|CG| trace_D    9.8927303919906341E-004
 PAO|CG| trace_D_Gnew  -1.8935095244892276E-006
 PAO|CG| beta:   0.30431290672885214     
 PAO| norm of gradient:   1.4987948838185527E-002
 PAO| energy improvement:  -1.6290775744121078E-004
 PAO| step     22                   -7.809083929  0.937E-03  0.445E+00     0.107
 PAO|LS| adapt:  T F F
 PAO|LS| adapt: scan_steps:    0.0000000000000000        0.0000000000000000        0.0000000000000000     
 PAO|LS| adapt: energies:   -7.8090839291396597        0.0000000000000000        0.0000000000000000     
 PAO| ======================= Iteration:        23 =============================

     Lanczos converged:  T threshold:   0.100E-02
     Est. extremal eigenvalues:    0.276E+01   0.183E+00
     Est. condition number :    0.151E+02
     NS sqrt iter    1 1.00000000   0.705E+00       0.002       41.208
     NS sqrt iter    2 1.00000000   0.330E+00       0.002       63.897
     NS sqrt iter    3 1.00000000   0.749E-01       0.002       63.825
     NS sqrt iter    4 1.00000000   0.176E-02       0.002       63.668
     NS sqrt iter    5 1.00000000   0.461E-07       0.002       45.146
     Final NS sqrt iter    5 1.00000000   0.354E-09

     Est. extremal eigenvalues     -0.93780     1.67995  converged:  T
     TRS4 it   1 1.00000000   0.864E+00       0.001       16.128   0.100E-07
     TRS4 it   2 1.00000000   0.611E+00       0.001       32.256   0.100E-07
     TRS4 it   3 1.00000000   0.416E+00       0.001       32.256   0.100E-07
     TRS4 it   4 1.00000000   0.210E+00       0.001       32.256   0.100E-07
     TRS4 it   5 1.00000000   0.660E-01       0.001       32.256   0.100E-07
     TRS4 it   6 1.00000000   0.821E-02       0.001       32.256   0.100E-07
     TRS4 it   7 1.00000000   0.171E-03       0.001       32.256   0.100E-07
     TRS4 it   8 1.00000000   0.104E-06       0.001       32.256   0.100E-07
     TRS4 it   9 1.00000000   0.470E-13       0.001       32.256   0.100E-07
     Final TRS4 iteration    9 1.00000000   0.470E-13
     Chemical potential (mu):       0.01163
 
 PAO| energy:  -7.8091340070499031      penalty:   1.3827734552350428E-005
 PAO|LS| adapt:  T T F
 PAO|LS| adapt: scan_steps:    0.0000000000000000       0.44477704971367227        0.0000000000000000     
 PAO|LS| adapt: energies:   -7.8090839291396597       -7.8091340070499031        0.0000000000000000     
 PAO| ======================= Iteration:        24 =============================

     Lanczos converged:  T threshold:   0.100E-02
     Est. extremal eigenvalues:    0.276E+01   0.183E+00
     Est. condition number :    0.151E+02
     NS sqrt iter    1 1.00000000   0.705E+00       0.002       40.887
     NS sqrt iter    2 1.00000000   0.330E+00       0.002       64.255
     NS sqrt iter    3 1.00000000   0.749E-01       0.002       65.288
     NS sqrt iter    4 1.00000000   0.176E-02       0.002       65.048
     NS sqrt iter    5 1.00000000   0.462E-07       0.002       40.135
     Final NS sqrt iter    5 1.00000000   0.357E-09

     Est. extremal eigenvalues     -0.93780     1.67968  converged:  T
     TRS4 it   1 1.00000000   0.863E+00       0.001       16.128   0.100E-07
     TRS4 it   2 1.00000000   0.611E+00       0.001       32.256   0.100E-07
     TRS4 it   3 1.00000000   0.416E+00       0.001       32.256   0.100E-07
     TRS4 it   4 1.00000000   0.210E+00       0.001       32.256   0.100E-07
     TRS4 it   5 1.00000000   0.660E-01       0.001       32.256   0.100E-07
     TRS4 it   6 1.00000000   0.824E-02       0.001       32.256   0.100E-07
     TRS4 it   7 1.00000000   0.173E-03       0.001       32.256   0.100E-07
     TRS4 it   8 1.00000000   0.107E-06       0.001       32.256   0.100E-07
     TRS4 it   9 1.00000000   0.492E-13       0.001       32.256   0.100E-07
     Final TRS4 iteration    9 1.00000000   0.492E-13
     Chemical potential (mu):       0.01133
 
 PAO| energy:  -7.8090832494401203      penalty:   1.3172675632238368E-005
 PAO|LS| adapt:  T T T
 PAO|LS| adapt: scan_steps:    0.0000000000000000       0.44477704971367227       0.88955409942734454     
 PAO|LS| adapt: energies:   -7.8090839291396597       -7.8091340070499031       -7.8090832494401203     
 PAO|LS| adapt: suggested step_size:   0.44327800078869423     
 PAO|LS| adapt: predicted energy  -7.8091340076226068     
 PAO| ======================= Iteration:        25 =============================

     Lanczos converged:  T threshold:   0.100E-02
     Est. extremal eigenvalues:    0.276E+01   0.183E+00
     Est. condition number :    0.151E+02
     NS sqrt iter    1 1.00000000   0.705E+00       0.002       41.568
     NS sqrt iter    2 1.00000000   0.330E+00       0.002       63.915
     NS sqrt iter    3 1.00000000   0.749E-01       0.002       64.376
     NS sqrt iter    4 1.00000000   0.176E-02       0.002       64.926
     NS sqrt iter    5 1.00000000   0.461E-07       0.002       45.841
     Final NS sqrt iter    5 1.00000000   0.354E-09

     Est. extremal eigenvalues     -0.93780     1.67995  converged:  T
     TRS4 it   1 1.00000000   0.864E+00       0.001       16.128   0.100E-07
     TRS4 it   2 1.00000000   0.611E+00       0.001       32.256   0.100E-07
     TRS4 it   3 1.00000000   0.416E+00       0.001       32.256   0.100E-07
     TRS4 it   4 1.00000000   0.210E+00       0.001       32.256   0.100E-07
     TRS4 it   5 1.00000000   0.660E-01       0.001       32.256   0.100E-07
     TRS4 it   6 1.00000000   0.821E-02       0.001       32.256   0.100E-07
     TRS4 it   7 1.00000000   0.171E-03       0.001       32.256   0.100E-07
     TRS4 it   8 1.00000000   0.104E-06       0.001       32.256   0.100E-07
     TRS4 it   9 1.00000000   0.471E-13       0.001       32.256   0.100E-07
     Final TRS4 iteration    9 1.00000000   0.471E-13
     Chemical potential (mu):       0.01163
 
 PAO| energy:  -7.8091340070743085      penalty:   1.3829990311576674E-005
 PAO|CG| trace_G_new    8.1145084686717338E-005
 PAO|CG| trace_G_prev    2.2463861037606687E-004
 PAO|CG| trace_G_mix    7.3300358628090376E-007
 PAO|CG| trace_D    3.1740400971756478E-004
 PAO|CG| trace_D_Gnew  -3.6583657490519601E-007
 PAO|CG| beta:   0.35796197708763777     
 PAO| norm of gradient:   9.0080566542799535E-003
 PAO| energy improvement:  -5.0077934648840028E-005
 PAO| step     25                   -7.809134007  0.563E-03  0.443E+00     0.082
 PAO|LS| adapt:  T F F
 PAO|LS| adapt: scan_steps:    0.0000000000000000        0.0000000000000000        0.0000000000000000     
 PAO|LS| adapt: energies:   -7.8091340070743085        0.0000000000000000        0.0000000000000000     
 PAO| ======================= Iteration:        26 =============================

     Lanczos converged:  T threshold:   0.100E-02
     Est. extremal eigenvalues:    0.276E+01   0.183E+00
     Est. condition number :    0.151E+02
     NS sqrt iter    1 1.00000000   0.705E+00       0.002       41.235
     NS sqrt iter    2 1.00000000   0.330E+00       0.002       63.144
     NS sqrt iter    3 1.00000000   0.748E-01       0.002       63.982
     NS sqrt iter    4 1.00000000   0.175E-02       0.002       64.014
     NS sqrt iter    5 1.00000000   0.458E-07       0.002       45.893
     Final NS sqrt iter    5 1.00000000   0.345E-09

     Est. extremal eigenvalues     -0.93781     1.67955  converged:  T
     TRS4 it   1 1.00000000   0.863E+00       0.001       16.128   0.100E-07
     TRS4 it   2 1.00000000   0.611E+00       0.001       32.256   0.100E-07
     TRS4 it   3 1.00000000   0.416E+00       0.001       32.256   0.100E-07
     TRS4 it   4 1.00000000   0.210E+00       0.001       32.256   0.100E-07
     TRS4 it   5 1.00000000   0.659E-01       0.001       32.256   0.100E-07
     TRS4 it   6 1.00000000   0.819E-02       0.001       32.256   0.100E-07
     TRS4 it   7 1.00000000   0.170E-03       0.001       32.256   0.100E-07
     TRS4 it   8 1.00000000   0.103E-06       0.001       32.256   0.100E-07
     TRS4 it   9 1.00000000   0.454E-13       0.001       32.256   0.100E-07
     Final TRS4 iteration    9 1.00000000   0.454E-13
     Chemical potential (mu):       0.01177
 
 PAO| energy:  -7.8091383323816839      penalty:   1.3103440796607871E-005
 PAO|LS| adapt:  T T F
 PAO|LS| adapt: scan_steps:    0.0000000000000000       0.44327800078869423        0.0000000000000000     
 PAO|LS| adapt: energies:   -7.8091340070743085       -7.8091383323816839        0.0000000000000000     
 PAO| ======================= Iteration:        27 =============================

     Lanczos converged:  T threshold:   0.100E-02
     Est. extremal eigenvalues:    0.276E+01   0.183E+00
     Est. condition number :    0.151E+02
     NS sqrt iter    1 1.00000000   0.705E+00       0.002       39.977
     NS sqrt iter    2 1.00000000   0.330E+00       0.002       63.773
     NS sqrt iter    3 1.00000000   0.746E-01       0.002       63.468
     NS sqrt iter    4 1.00000000   0.175E-02       0.002       64.349
     NS sqrt iter    5 1.00000000   0.454E-07       0.002       46.499
     Final NS sqrt iter    5 1.00000000   0.342E-09

     Est. extremal eigenvalues     -0.93781     1.67915  converged:  T
     TRS4 it   1 1.00000000   0.863E+00       0.001       16.128   0.100E-07
     TRS4 it   2 1.00000000   0.611E+00       0.001       32.256   0.100E-07
     TRS4 it   3 1.00000000   0.416E+00       0.001       32.256   0.100E-07
     TRS4 it   4 1.00000000   0.209E+00       0.001       32.256   0.100E-07
     TRS4 it   5 1.00000000   0.658E-01       0.001       32.256   0.100E-07
     TRS4 it   6 1.00000000   0.816E-02       0.001       32.256   0.100E-07
     TRS4 it   7 1.00000000   0.169E-03       0.001       32.256   0.100E-07
     TRS4 it   8 1.00000000   0.101E-06       0.001       32.256   0.100E-07
     TRS4 it   9 1.00000000   0.443E-13       0.001       32.256   0.100E-07
     Final TRS4 iteration    9 1.00000000   0.443E-13
     Chemical potential (mu):       0.01191
 
 PAO| energy:  -7.8090791433832836      penalty:   1.2400951625941611E-005
 PAO|LS| adapt:  T T T
 PAO|LS| adapt: scan_steps:    0.0000000000000000       0.44327800078869423       0.88655600157738845     
 PAO|LS| adapt: energies:   -7.8091340070743085       -7.8091383323816839       -7.8090791433832836     
 PAO|LS| adapt: suggested step_size:   0.25182611466313176     
 PAO|LS| adapt: predicted energy  -7.8091442562923605     
 PAO| ======================= Iteration:        28 =============================

     Lanczos converged:  T threshold:   0.100E-02
     Est. extremal eigenvalues:    0.276E+01   0.183E+00
     Est. condition number :    0.151E+02
     NS sqrt iter    1 1.00000000   0.705E+00       0.002       40.670
     NS sqrt iter    2 1.00000000   0.330E+00       0.002       64.164
     NS sqrt iter    3 1.00000000   0.748E-01       0.002       64.000
     NS sqrt iter    4 1.00000000   0.176E-02       0.002       65.548
     NS sqrt iter    5 1.00000000   0.459E-07       0.002       44.936
     Final NS sqrt iter    5 1.00000000   0.349E-09

     Est. extremal eigenvalues     -0.93780     1.67973  converged:  T
     TRS4 it   1 1.00000000   0.864E+00       0.001       16.128   0.100E-07
     TRS4 it   2 1.00000000   0.611E+00       0.001       32.256   0.100E-07
     TRS4 it   3 1.00000000   0.416E+00       0.001       32.256   0.100E-07
     TRS4 it   4 1.00000000   0.210E+00       0.001       32.256   0.100E-07
     TRS4 it   5 1.00000000   0.659E-01       0.001       32.256   0.100E-07
     TRS4 it   6 1.00000000   0.820E-02       0.001       32.256   0.100E-07
     TRS4 it   7 1.00000000   0.170E-03       0.001       32.256   0.100E-07
     TRS4 it   8 1.00000000   0.103E-06       0.001       32.256   0.100E-07
     TRS4 it   9 1.00000000   0.465E-13       0.001       32.256   0.100E-07
     Final TRS4 iteration    9 1.00000000   0.465E-13
     Chemical potential (mu):       0.01171
 
 PAO| energy:  -7.8091442467492138      penalty:   1.3414266177497668E-005
 PAO|CG| trace_G_new    3.3021747559896392E-005
 PAO|CG| trace_G_prev    8.1145084686717338E-005
 PAO|CG| trace_G_mix    5.5358488785094201E-008
 PAO|CG| trace_D    1.2207812267894268E-004
 PAO|CG| trace_D_Gnew  -2.6751393654110680E-008
 PAO|CG| beta:   0.40626476881978746     
 PAO| norm of gradient:   5.7464552169051485E-003
 PAO| energy improvement:  -1.0239674905321294E-005
 PAO| step     28                   -7.809144247  0.359E-03  0.252E+00     0.081
 PAO|LS| adapt:  T F F
 PAO|LS| adapt: scan_steps:    0.0000000000000000        0.0000000000000000        0.0000000000000000     
 PAO|LS| adapt: energies:   -7.8091442467492138        0.0000000000000000        0.0000000000000000     
 PAO| ======================= Iteration:        29 =============================

     Lanczos converged:  T threshold:   0.100E-02
     Est. extremal eigenvalues:    0.276E+01   0.183E+00
     Est. condition number :    0.151E+02
     NS sqrt iter    1 1.00000000   0.705E+00       0.002       40.719
     NS sqrt iter    2 1.00000000   0.330E+00       0.002       64.732
     NS sqrt iter    3 1.00000000   0.747E-01       0.002       64.585
     NS sqrt iter    4 1.00000000   0.175E-02       0.002       64.874
     NS sqrt iter    5 1.00000000   0.458E-07       0.002       45.316
     Final NS sqrt iter    5 1.00000000   0.345E-09

     Est. extremal eigenvalues     -0.93781     1.67961  converged:  T
     TRS4 it   1 1.00000000   0.864E+00       0.001       16.128   0.100E-07
     TRS4 it   2 1.00000000   0.611E+00       0.001       32.256   0.100E-07
     TRS4 it   3 1.00000000   0.416E+00       0.001       32.256   0.100E-07
     TRS4 it   4 1.00000000   0.209E+00       0.001       32.256   0.100E-07
     TRS4 it   5 1.00000000   0.658E-01       0.001       32.256   0.100E-07
     TRS4 it   6 1.00000000   0.817E-02       0.001       32.256   0.100E-07
     TRS4 it   7 1.00000000   0.169E-03       0.001       32.256   0.100E-07
     TRS4 it   8 1.00000000   0.102E-06       0.001       32.256   0.100E-07
     TRS4 it   9 1.00000000   0.452E-13       0.001       32.256   0.100E-07
     Final TRS4 iteration    9 1.00000000   0.452E-13
     Chemical potential (mu):       0.01186
 
 PAO| energy:  -7.8091515587529114      penalty:   1.2975684925186924E-005
 PAO|LS| adapt:  T T F
 PAO|LS| adapt: scan_steps:    0.0000000000000000       0.25182611466313176        0.0000000000000000     
 PAO|LS| adapt: energies:   -7.8091442467492138       -7.8091515587529114        0.0000000000000000     
 PAO| ======================= Iteration:        30 =============================

     Lanczos converged:  T threshold:   0.100E-02
     Est. extremal eigenvalues:    0.276E+01   0.183E+00
     Est. condition number :    0.151E+02
     NS sqrt iter    1 1.00000000   0.705E+00       0.002       40.550
     NS sqrt iter    2 1.00000000   0.330E+00       0.002       63.530
     NS sqrt iter    3 1.00000000   0.747E-01       0.002       63.266
     NS sqrt iter    4 1.00000000   0.175E-02       0.002       64.415
     NS sqrt iter    5 1.00000000   0.457E-07       0.002       45.905
     Final NS sqrt iter    5 1.00000000   0.344E-09

     Est. extremal eigenvalues     -0.93781     1.67950  converged:  T
     TRS4 it   1 1.00000000   0.864E+00       0.001       16.128   0.100E-07
     TRS4 it   2 1.00000000   0.611E+00       0.001       32.256   0.100E-07
     TRS4 it   3 1.00000000   0.416E+00       0.001       32.256   0.100E-07
     TRS4 it   4 1.00000000   0.209E+00       0.001       32.256   0.100E-07
     TRS4 it   5 1.00000000   0.657E-01       0.001       32.256   0.100E-07
     TRS4 it   6 1.00000000   0.815E-02       0.001       32.256   0.100E-07
     TRS4 it   7 1.00000000   0.168E-03       0.001       32.256   0.100E-07
     TRS4 it   8 1.00000000   0.100E-06       0.001       32.256   0.100E-07
     TRS4 it   9 1.00000000   0.444E-13       0.001       32.256   0.100E-07
     Final TRS4 iteration    9 1.00000000   0.444E-13
     Chemical potential (mu):       0.01200
 
 PAO| energy:  -7.8091568581931758      penalty:   1.2545268322946943E-005
 PAO|LS| adapt:  T T F
 PAO|LS| adapt: scan_steps:    0.0000000000000000       0.50365222932626352        0.0000000000000000     
 PAO|LS| adapt: energies:   -7.8091442467492138       -7.8091568581931758        0.0000000000000000     
 PAO| ======================= Iteration:        31 =============================

     Lanczos converged:  T threshold:   0.100E-02
     Est. extremal eigenvalues:    0.276E+01   0.183E+00
     Est. condition number :    0.151E+02
     NS sqrt iter    1 1.00000000   0.704E+00       0.002       41.034
     NS sqrt iter    2 1.00000000   0.329E+00       0.002       64.174
     NS sqrt iter    3 1.00000000   0.745E-01       0.002       64.155
     NS sqrt iter    4 1.00000000   0.175E-02       0.002       64.941
     NS sqrt iter    5 1.00000000   0.455E-07       0.002       39.821
     Final NS sqrt iter    5 1.00000000   0.345E-09

     Est. extremal eigenvalues     -0.93781     1.67926  converged:  T
     TRS4 it   1 1.00000000   0.864E+00       0.001       16.128   0.100E-07
     TRS4 it   2 1.00000000   0.611E+00       0.001       32.256   0.100E-07
     TRS4 it   3 1.00000000   0.416E+00       0.001       32.256   0.100E-07
     TRS4 it   4 1.00000000   0.209E+00       0.001       32.256   0.100E-07
     TRS4 it   5 1.00000000   0.655E-01       0.001       32.256   0.100E-07
     TRS4 it   6 1.00000000   0.810E-02       0.001       32.256   0.100E-07
     TRS4 it   7 1.00000000   0.166E-03       0.001       32.256   0.100E-07
     TRS4 it   8 1.00000000   0.976E-07       0.001       32.256   0.100E-07
     TRS4 it   9 1.00000000   0.411E-13       0.001       32.256   0.100E-07
     Final TRS4 iteration    9 1.00000000   0.411E-13
     Chemical potential (mu):       0.01229
 
 PAO| energy:  -7.8091614219592946      penalty:   1.1708753898874754E-005
 PAO|LS| Need extra step
 PAO|LS| adapt:  T T F
 PAO|LS| adapt: scan_steps:    0.0000000000000000        1.0073044586525270        0.0000000000000000     
 PAO|LS| adapt: energies:   -7.8091442467492138       -7.8091614219592946        0.0000000000000000     
 PAO| ======================= Iteration:        32 =============================

     Lanczos converged:  T threshold:   0.100E-02
     Est. extremal eigenvalues:    0.275E+01   0.183E+00
     Est. condition number :    0.151E+02
     NS sqrt iter    1 1.00000000   0.704E+00       0.002       41.234
     NS sqrt iter    2 1.00000000   0.329E+00       0.002       63.854
     NS sqrt iter    3 1.00000000   0.742E-01       0.002       64.639
     NS sqrt iter    4 1.00000000   0.174E-02       0.002       64.321
     NS sqrt iter    5 1.00000000   0.452E-07       0.002       44.674
     Final NS sqrt iter    5 1.00000000   0.345E-09

     Est. extremal eigenvalues     -0.93782     1.67876  converged:  T
     TRS4 it   1 1.00000000   0.864E+00       0.001       16.128   0.100E-07
     TRS4 it   2 1.00000000   0.610E+00       0.001       32.256   0.100E-07
     TRS4 it   3 1.00000000   0.415E+00       0.001       32.256   0.100E-07
     TRS4 it   4 1.00000000   0.208E+00       0.001       32.256   0.100E-07
     TRS4 it   5 1.00000000   0.652E-01       0.001       32.256   0.100E-07
     TRS4 it   6 1.00000000   0.801E-02       0.001       32.256   0.100E-07
     TRS4 it   7 1.00000000   0.162E-03       0.001       32.256   0.100E-07
     TRS4 it   8 1.00000000   0.921E-07       0.001       32.256   0.100E-07
     TRS4 it   9 1.00000000   0.369E-13       0.001       32.256   0.100E-07
     Final TRS4 iteration    9 1.00000000   0.369E-13
     Chemical potential (mu):       0.01288
 
 PAO| energy:  -7.8091464189097541      penalty:   1.0131786221960664E-005
 PAO|LS| Need extra step
 PAO|LS| adapt:  T T T
 PAO|LS| adapt: scan_steps:    0.0000000000000000        1.0073044586525270        2.0146089173050541     
 PAO|LS| adapt: energies:   -7.8091442467492138       -7.8091614219592946       -7.8091464189097541     
 PAO|LS| adapt: suggested step_size:    1.0413029878291897     
 PAO|LS| adapt: predicted energy  -7.8091614402879790     
 PAO| ======================= Iteration:        33 =============================

     Lanczos converged:  T threshold:   0.100E-02
     Est. extremal eigenvalues:    0.276E+01   0.183E+00
     Est. condition number :    0.151E+02
     NS sqrt iter    1 1.00000000   0.704E+00       0.002       41.334
     NS sqrt iter    2 1.00000000   0.329E+00       0.002       63.927
     NS sqrt iter    3 1.00000000   0.745E-01       0.002       65.064
     NS sqrt iter    4 1.00000000   0.175E-02       0.002       64.084
     NS sqrt iter    5 1.00000000   0.455E-07       0.002       45.309
     Final NS sqrt iter    5 1.00000000   0.345E-09

     Est. extremal eigenvalues     -0.93781     1.67924  converged:  T
     TRS4 it   1 1.00000000   0.864E+00       0.001       16.128   0.100E-07
     TRS4 it   2 1.00000000   0.611E+00       0.001       32.256   0.100E-07
     TRS4 it   3 1.00000000   0.416E+00       0.001       32.256   0.100E-07
     TRS4 it   4 1.00000000   0.209E+00       0.001       32.256   0.100E-07
     TRS4 it   5 1.00000000   0.655E-01       0.001       32.256   0.100E-07
     TRS4 it   6 1.00000000   0.810E-02       0.001       32.256   0.100E-07
     TRS4 it   7 1.00000000   0.166E-03       0.001       32.256   0.100E-07
[...]
     NS sqrt iter    3 1.00000000   0.491E-01       0.002       70.571
     NS sqrt iter    4 1.00000000   0.803E-03       0.002       71.805
     NS sqrt iter    5 1.00000000   0.685E-08       0.008        4.585
     Final NS sqrt iter    5 1.00000000   0.397E-09

     Est. extremal eigenvalues     -0.93750     1.62562  converged:  T
     TRS4 it   1 1.00000000   0.876E+00       0.001       16.128   0.100E-07
     TRS4 it   2 1.00000000   0.631E+00       0.001       32.256   0.100E-07
     TRS4 it   3 1.00000000   0.455E+00       0.001       32.256   0.100E-07
     TRS4 it   4 1.00000000   0.278E+00       0.001       32.256   0.100E-07
     TRS4 it   5 1.00000000   0.138E+00       0.001       32.256   0.100E-07
     TRS4 it   6 1.00000000   0.436E-01       0.001       32.256   0.100E-07
     TRS4 it   7 1.00000000   0.616E-02       0.001       32.256   0.100E-07
     TRS4 it   8 1.00000000   0.162E-03       0.001       32.256   0.100E-07
     TRS4 it   9 1.00000000   0.119E-06       0.001       32.256   0.100E-07
     TRS4 it  10 1.00000000   0.637E-13       0.001       32.256   0.100E-07
     Final TRS4 iteration   10 1.00000000   0.637E-13
     Chemical potential (mu):      -0.07733
 
 PAO| energy:  -7.8085225410821186      penalty:   2.6356668352093159E-008
 PAO|LS| Need extra step
 PAO|LS| adapt:  T T T
 PAO|LS| adapt: scan_steps:    0.0000000000000000       0.20000000000000001       0.40000000000000002     
 PAO|LS| adapt: energies:   -7.8085225374080780       -7.8085225424980100       -7.8085225410821186     
 PAO|LS| adapt: suggested step_size:   0.25647310695864223     
 PAO|LS| adapt: predicted energy  -7.8085225427573652     
 PAO| ======================= Iteration:       429 =============================

     Lanczos converged:  T threshold:   0.100E-02
     Est. extremal eigenvalues:    0.252E+01   0.190E+00
     Est. condition number :    0.132E+02
     NS sqrt iter    1 1.00000000   0.639E+00       0.002       39.384
     NS sqrt iter    2 1.00000000   0.278E+00       0.002       64.924
     NS sqrt iter    3 1.00000000   0.491E-01       0.002       65.117
     NS sqrt iter    4 1.00000000   0.803E-03       0.002       68.048
     NS sqrt iter    5 1.00000000   0.685E-08       0.001       28.179
     Final NS sqrt iter    5 1.00000000   0.397E-09

     Est. extremal eigenvalues     -0.93750     1.62562  converged:  T
     TRS4 it   1 1.00000000   0.876E+00       0.001       16.128   0.100E-07
     TRS4 it   2 1.00000000   0.631E+00       0.001       32.256   0.100E-07
     TRS4 it   3 1.00000000   0.455E+00       0.001       32.256   0.100E-07
     TRS4 it   4 1.00000000   0.278E+00       0.001       32.256   0.100E-07
     TRS4 it   5 1.00000000   0.138E+00       0.001       32.256   0.100E-07
     TRS4 it   6 1.00000000   0.436E-01       0.001       32.256   0.100E-07
     TRS4 it   7 1.00000000   0.616E-02       0.001       32.256   0.100E-07
     TRS4 it   8 1.00000000   0.162E-03       0.001       32.256   0.100E-07
     TRS4 it   9 1.00000000   0.119E-06       0.001       32.256   0.100E-07
     TRS4 it  10 1.00000000   0.625E-13       0.001       32.256   0.100E-07
     Final TRS4 iteration   10 1.00000000   0.625E-13
     Chemical potential (mu):      -0.07732
 
 PAO| energy:  -7.8085225427573732      penalty:   2.6664913292329132E-008
 PAO|CG| warming up with steepest descent
 PAO|CG| beta:    0.0000000000000000     
 PAO| norm of gradient:   1.2357689818037897E-004
 PAO| energy improvement:  -5.3492952289957429E-009
 PAO| step    429                   -7.808522543  0.772E-05  0.256E+00     0.115
 PAO| converged after          429  steps :-)
 PAO| Recalculating energy after mixing.

     Lanczos converged:  T threshold:   0.100E-02
     Est. extremal eigenvalues:    0.252E+01   0.190E+00
     Est. condition number :    0.132E+02
     NS sqrt iter    1 1.00000000   0.639E+00       0.002       31.216
     NS sqrt iter    2 1.00000000   0.278E+00       0.002       66.329
     NS sqrt iter    3 1.00000000   0.491E-01       0.002       70.343
     NS sqrt iter    4 1.00000000   0.803E-03       0.002       69.118
     NS sqrt iter    5 1.00000000   0.685E-08       0.001       28.860
     Final NS sqrt iter    5 1.00000000   0.397E-09

     Est. extremal eigenvalues     -0.93750     1.62562  converged:  T
     TRS4 it   1 1.00000000   0.876E+00       0.001       16.128   0.100E-07
     TRS4 it   2 1.00000000   0.631E+00       0.001       32.256   0.100E-07
     TRS4 it   3 1.00000000   0.455E+00       0.001       32.256   0.100E-07
     TRS4 it   4 1.00000000   0.278E+00       0.001       32.256   0.100E-07
     TRS4 it   5 1.00000000   0.138E+00       0.001       32.256   0.100E-07
     TRS4 it   6 1.00000000   0.436E-01       0.001       32.256   0.100E-07
     TRS4 it   7 1.00000000   0.616E-02       0.001       32.256   0.100E-07
     TRS4 it   8 1.00000000   0.162E-03       0.001       32.256   0.100E-07
     TRS4 it   9 1.00000000   0.119E-06       0.001       32.256   0.100E-07
     TRS4 it  10 1.00000000   0.630E-13       0.001       31.567   0.100E-07
     Final TRS4 iteration   10 1.00000000   0.630E-13
     Chemical potential (mu):      -0.07732
 
 PAO| energy:  -7.8085225414200323      penalty:   2.6941830922837614E-008
 PAO| Writing restart file.
     Est. extremal eigenvalues     -0.93750     1.62562  converged:  T
     TRS4 it   1 1.00000000   0.876E+00       0.001       16.128   0.100E-07
     TRS4 it   2 1.00000000   0.631E+00       0.001       32.256   0.100E-07
     TRS4 it   3 1.00000000   0.455E+00       0.001       32.256   0.100E-07
     TRS4 it   4 1.00000000   0.278E+00       0.001       32.256   0.100E-07
     TRS4 it   5 1.00000000   0.138E+00       0.001       32.256   0.100E-07
     TRS4 it   6 1.00000000   0.436E-01       0.001       32.256   0.100E-07
     TRS4 it   7 1.00000000   0.616E-02       0.001       32.256   0.100E-07
     TRS4 it   8 1.00000000   0.162E-03       0.001       32.256   0.100E-07
     TRS4 it   9 1.00000000   0.119E-06       0.001       32.256   0.100E-07
     TRS4 it  10 1.00000000   0.630E-13       0.001       32.256   0.100E-07
     Final TRS4 iteration   10 1.00000000   0.630E-13
     Chemical potential (mu):      -0.07732

 SCF     1       -34.449729949       -34.449729949    2.173861

*********************************************************
 Using MIXING_FRACTION=0.450 to mix KS matrix:  iscf=  2
 KS_nw=0.450*KS + 0.550*KS_old
*********************************************************
     Est. extremal eigenvalues     -0.93751     1.62562  converged:  T
     TRS4 it   1 1.00000000   0.876E+00       0.001       16.128   0.100E-07
     TRS4 it   2 1.00000000   0.631E+00       0.001       29.254   0.100E-07
     TRS4 it   3 1.00000000   0.455E+00       0.001       29.467   0.100E-07
     TRS4 it   4 1.00000000   0.278E+00       0.001       31.981   0.100E-07
     TRS4 it   5 1.00000000   0.138E+00       0.001       32.256   0.100E-07
     TRS4 it   6 1.00000000   0.436E-01       0.001       31.157   0.100E-07
     TRS4 it   7 1.00000000   0.616E-02       0.001       30.421   0.100E-07
     TRS4 it   8 1.00000000   0.162E-03       0.001       30.358   0.100E-07
     TRS4 it   9 1.00000000   0.119E-06       0.001       27.416   0.100E-07
     TRS4 it  10 1.00000000   0.632E-13       0.001       26.455   0.100E-07
     Final TRS4 iteration   10 1.00000000   0.632E-13
     Chemical potential (mu):      -0.07732

 SCF     2       -34.449729949        -0.000000000    2.269030

 PAO| Storing density matrix for ASPC guess in slot:           1

 ENERGY| Total FORCE_EVAL ( QS ) energy (a.u.):              -34.449729949238915


 -------------------------------------------------------------------------------
 -                                                                             -
 -                                DBCSR STATISTICS                             -
 -                                                                             -
 -------------------------------------------------------------------------------
 COUNTER                                    TOTAL       BLAS       SMM       ACC
 flops     5 x     5 x     4                20000     100.0%      0.0%      0.0%
 flops    13 x     5 x     4                20800     100.0%      0.0%      0.0%
 flops     5 x    13 x     4                20800     100.0%      0.0%      0.0%
 flops    13 x    13 x     4                40560     100.0%      0.0%      0.0%
 flops     4 x     4 x     5              3367680     100.0%      0.0%      0.0%
 flops     5 x     4 x     5              4112000     100.0%      0.0%      0.0%
 flops     4 x     4 x    13              4377984     100.0%      0.0%      0.0%
 flops    13 x     4 x     5              5345600     100.0%      0.0%      0.0%
 flops     5 x     4 x    13              5345600     100.0%      0.0%      0.0%
 flops     5 x     4 x     4              6500000     100.0%      0.0%      0.0%
 flops    13 x     4 x    13              6949280     100.0%      0.0%      0.0%
 flops    13 x     4 x     4              8614528     100.0%      0.0%      0.0%
 flops     4 x     4 x     4            435890048     100.0%      0.0%      0.0%
 flops inhomo. stacks                           0       0.0%      0.0%      0.0%
 flops total                       480.604880E+06     100.0%      0.0%      0.0%
 flops max/rank                    480.604880E+06     100.0%      0.0%      0.0%
 matmuls inhomo. stacks                         0       0.0%      0.0%      0.0%
 matmuls total                            3544766     100.0%      0.0%      0.0%
 number of processed stacks                 28249     100.0%      0.0%      0.0%
 average stack size                                   125.5       0.0       0.0
 marketing flops                   782.117952E+06
 -------------------------------------------------------------------------------
 # multiplications                          23639
 max memory usage/rank             329.760768E+06
 # max total images/rank                        1
 # max 3D layers                                1
 # MPI messages exchanged                       0
 MPI messages size (bytes):
  total size                         0.000000E+00
  min size                           0.000000E+00
  max size                           0.000000E+00
  average size                       0.000000E+00
 MPI breakdown and total messages size (bytes):
             size <=      128                   0                        0
       128 < size <=     8192                   0                        0
      8192 < size <=    32768                   0                        0
     32768 < size <=   131072                   0                        0
    131072 < size <=  4194304                   0                        0
   4194304 < size <= 16777216                   0                        0
  16777216 < size                               0                        0
 -------------------------------------------------------------------------------

 MEMORY| Estimated peak process memory [MiB]                                 315

 -------------------------------------------------------------------------------
 -                                                                             -
 -                           R E F E R E N C E S                               -
 -                                                                             -
 -------------------------------------------------------------------------------
 
 CP2K version 7.0 (Development Version), the CP2K developers group (2018).
 CP2K is freely available from https://www.cp2k.org/ .

 Schuett, O; VandeVondele, J. 
 Journal of Chemical Theory and Computation, 14, (2018). 
 Machine Learning Adaptive Basis Sets for Efficient Large Scale Density Functional Theory Simulation.
 https://dx.doi.org/10.1021/acs.jctc.8b00378


 Schuett, Ole; Messmer, Peter; Hutter, Juerg; VandeVondele, Joost. 
 Electronic Structure Calculations on Graphics Processing Units, John Wiley & Sons, Ltd, 173-190 (2016). 
 GPU-Accelerated Sparse Matrix-Matrix Multiplication for Linear Scaling Density Functional Theory.
 https://dx.doi.org/10.1002/9781118670712.ch8


 Borstnik, U; VandeVondele, J; Weber, V; Hutter, J. 
 PARALLEL COMPUTING, 40 (5-6), 47-58 (2014). 
 Sparse matrix multiplication: The distributed block-compressed sparse
 row library.
 https://dx.doi.org/10.1016/j.parco.2014.03.012


 Hutter, J; Iannuzzi, M; Schiffmann, F; VandeVondele, J. 
 WILEY INTERDISCIPLINARY REVIEWS-COMPUTATIONAL MOLECULAR SCIENCE, 4 (1), 15-25 (2014). 
 CP2K: atomistic simulations of condensed matter systems.
 https://dx.doi.org/10.1002/wcms.1159


 VandeVondele, J; Borstnik, U; Hutter, J. 
 JOURNAL OF CHEMICAL THEORY AND COMPUTATION, 8 (10), 3565-3573 (2012). 
 Linear Scaling Self-Consistent Field Calculations with Millions of Atoms
 in the Condensed Phase.
 https://dx.doi.org/10.1021/ct200897x


 VandeVondele, J; Hutter, J. 
 JOURNAL OF CHEMICAL PHYSICS, 127 (11), 114105 (2007). 
 Gaussian basis sets for accurate calculations on molecular systems in
 gas and condensed phases.
 https://dx.doi.org/10.1063/1.2770708


 Krack, M. 
 THEORETICAL CHEMISTRY ACCOUNTS, 114 (1-3), 145-152 (2005). 
 Pseudopotentials for H to Kr optimized for gradient-corrected
 exchange-correlation functionals.
 https://dx.doi.org/10.1007/s00214-005-0655-y


 VandeVondele, J; Krack, M; Mohamed, F; Parrinello, M; Chassaing, T;
 Hutter, J. COMPUTER PHYSICS COMMUNICATIONS, 167 (2), 103-128 (2005). 
 QUICKSTEP: Fast and accurate density functional calculations using a
 mixed Gaussian and plane waves approach.
 https://dx.doi.org/10.1016/j.cpc.2004.12.014


 Frigo, M; Johnson, SG. 
 PROCEEDINGS OF THE IEEE, 93 (2), 216-231 (2005). 
 The design and implementation of FFTW3.
 https://dx.doi.org/10.1109/JPROC.2004.840301


 Niklasson, AMN; Tymczak, CJ; Challacombe, M. 
 JOURNAL OF CHEMICAL PHYSICS, 118 (19), 8611-8620 (2003). 
 Trace resetting density matrix purification in O(N)
 self-consistent-field theory.
 https://dx.doi.org/10.1063/1.1559913


 Hartwigsen, C; Goedecker, S; Hutter, J. 
 PHYSICAL REVIEW B, 58 (7), 3641-3662 (1998). 
 Relativistic separable dual-space Gaussian pseudopotentials from H to Rn.
 https://dx.doi.org/10.1103/PhysRevB.58.3641


 Lippert, G; Hutter, J; Parrinello, M. 
 MOLECULAR PHYSICS, 92 (3), 477-487 (1997). 
 A hybrid Gaussian and plane wave density functional scheme.
 https://dx.doi.org/10.1080/002689797170220


 Perdew, JP; Burke, K; Ernzerhof, M. 
 PHYSICAL REVIEW LETTERS, 77 (18), 3865-3868 (1996). 
 Generalized gradient approximation made simple.
 https://dx.doi.org/10.1103/PhysRevLett.77.3865


 Goedecker, S; Teter, M; Hutter, J. 
 PHYSICAL REVIEW B, 54 (3), 1703-1710 (1996). 
 Separable dual-space Gaussian pseudopotentials.
 https://dx.doi.org/10.1103/PhysRevB.54.1703


 -------------------------------------------------------------------------------
 -                                                                             -
 -                                T I M I N G                                  -
 -                                                                             -
 -------------------------------------------------------------------------------
 SUBROUTINE                       CALLS  ASD         SELF TIME        TOTAL TIME
                                MAXIMUM       AVERAGE  MAXIMUM  AVERAGE  MAXIMUM
 CP2K                                 1  1.0    0.037    0.037   35.537   35.537
 qs_energies                          1  2.0    0.000    0.000   34.986   34.986
 ls_scf                               1  3.0    0.000    0.000   34.844   34.844
 ls_scf_main                          4  4.0    0.001    0.001   20.571   20.571
 ls_scf_dm_to_ks                      9  5.0    0.000    0.000   20.447   20.447
 qs_ks_update_qs_env                 10  6.0    0.000    0.000   15.997   15.997
 rebuild_ks_matrix                   10  7.0    0.000    0.000   15.997   15.997
 qs_ks_build_kohn_sham_matrix        10  8.0    0.001    0.001   15.997   15.997
 pao_update                           4  4.0    0.012    0.012   11.935   11.935
 pao_calc_energy                    432  5.0    0.005    0.005   10.754   10.754
 qs_vxc_create                       10  9.0    0.000    0.000    9.631    9.631
 xc_vxc_pw_create                    10 10.0    0.126    0.126    9.631    9.631
 dbcsr_multiply_generic           23639  8.4    0.556    0.556    9.188    9.188
 xc_rho_set_and_dset_create          10 11.0    0.030    0.030    6.837    6.837
 qs_rho_update_rho                   10  6.0    0.000    0.000    6.707    6.707
 calculate_rho_elec                  10  7.0    5.257    5.257    6.707    6.707
 pw_transfer                        191 10.6    0.013    0.013    6.650    6.650
 fft_wrap_pw1pw2                    171 11.7    0.002    0.002    6.556    6.556
 fft_wrap_pw1pw2_200                111 12.8    0.327    0.327    6.251    6.251
 pao_dm_trs4                        432  6.0    0.004    0.004    5.590    5.590
 sum_up_and_integrate                10  9.0    0.018    0.018    5.452    5.452
 integrate_v_rspace                  10 10.0    4.682    4.682    5.434    5.434
 density_matrix_trs4                441  7.0    0.210    0.210    5.396    5.396
 ls_scf_init_matrix_S               436  7.0    0.004    0.004    5.159    5.159
 pao_rebuild_S                      432  6.0    0.003    0.003    5.114    5.114
 xc_functional_eval                  10 12.0    0.000    0.000    4.889    4.889
 pbe_lda_eval                        10 13.0    4.889    4.889    4.889    4.889
 matrix_sqrt_Newton_Schulz          436  8.0    0.131    0.131    4.659    4.659
 multiply_cannon                  23639  9.4    1.444    1.444    4.328    4.328
 fft3d_s                            172 13.6    3.420    3.420    3.436    3.436
 make_m2s                         47278  9.4    0.209    0.209    2.931    2.931
 make_images                      47278 10.4    0.703    0.703    2.586    2.586
 pao_guess_initial_P                  1  4.0    0.000    0.000    2.264    2.264
 pao_read_preopt_dm                   1  5.0    0.000    0.000    2.264    2.264
 pw_gather_s                         81 13.1    1.728    1.728    1.728    1.728
 multiply_cannon_multrec          23639 10.4    1.550    1.550    1.691    1.691
 density_rs2pw                       10  8.0    0.001    0.001    1.436    1.436
 arnoldi_extremal                   877  8.5    0.006    0.006    1.302    1.302
 arnoldi_normal_ev                  877  9.5    0.015    0.015    1.296    1.296
 pao_calc_AB                        569  5.8    0.001    0.001    1.156    1.156
 pao_calc_AB_direct                 569  6.8    0.033    0.033    1.155    1.155
 pao_calc_grad_lnv_wrt_AB           136  7.0    0.009    0.009    1.089    1.089
 pw_scatter_s                        90 14.2    1.050    1.050    1.050    1.050
 build_subspace                     877 10.5    0.066    0.066    0.960    0.960
 dbcsr_matrix_vector_mult         21015 11.5    0.131    0.131    0.865    0.865
 dbcsr_finalize                   56372  9.6    0.136    0.136    0.849    0.849
 dbcsr_create_new                180774 10.7    0.408    0.408    0.787    0.787
 potential_pw2rs                     10 11.0    0.002    0.002    0.751    0.751
 -------------------------------------------------------------------------------

 The number of warnings for this run is : 0
 
 -------------------------------------------------------------------------------
  **** **** ******  **  PROGRAM ENDED AT                 2019-03-28 17:33:31.314
 ***** ** ***  *** **   PROGRAM RAN ON            oleschuett.zrh.corp.google.com
 **    ****   ******    PROGRAM RAN BY                                oleschuett
 ***** **    ** ** **   PROGRAM PROCESS ID                                 32611
  **** **  *******  **  PROGRAM STOPPED IN /usr/local/google/home/oleschuett/git
                                           /pao_ml_equivar/2H2O_rotations/phi_27
