 DBCSR| CPU Multiplication driver                                           BLAS
 DBCSR| Multrec recursion limit                                              512
 DBCSR| Multiplication stack size                                           1000
 DBCSR| Maximum elements for images                                    UNLIMITED
 DBCSR| Multiplicative factor virtual images                                   1
 DBCSR| Use multiplication densification                                       T
 DBCSR| Multiplication size stacks                                             3


  **** **** ******  **  PROGRAM STARTED AT               2019-03-28 17:32:18.956
 ***** ** ***  *** **   PROGRAM STARTED ON        oleschuett.zrh.corp.google.com
 **    ****   ******    PROGRAM STARTED BY                            oleschuett
 ***** **    ** ** **   PROGRAM PROCESS ID                                 30767
  **** **  *******  **  PROGRAM STARTED IN /usr/local/google/home/oleschuett/git
                                           /pao_ml_equivar/2H2O_rotations/phi_14

 CP2K| version string:                    CP2K version 7.0 (Development Version)
 CP2K| source code revision number:                                git:d9814d431
 CP2K| cp2kflags: libint fftw3 libxc libderiv_max_am1=5 libint_max_am=6         
 CP2K| is freely available from                            https://www.cp2k.org/
 CP2K| Program compiled at                          Mon Mar 25 16:50:07 CET 2019
 CP2K| Program compiled on                        oleschuett.zrh.corp.google.com
 CP2K| Program compiled for                                                local
 CP2K| Data directory path       /usr/local/google/home/oleschuett/git/cp2k/data
 CP2K| Input file name                                            2H2O_pao44.inp

 GLOBAL| Force Environment number                                              1
 GLOBAL| Basis set file name                                        BASIS_MOLOPT
 GLOBAL| Potential file name                                      GTH_POTENTIALS
 GLOBAL| MM Potential file name                                     MM_POTENTIAL
 GLOBAL| Coordinate file name                                         coords.xyz
 GLOBAL| Method name                                                        CP2K
 GLOBAL| Project name                                                 2H2O_pao44
 GLOBAL| Preferred FFT library                                             FFTW3
 GLOBAL| Preferred diagonalization lib.                                       SL
 GLOBAL| Run type                                                         ENERGY
 GLOBAL| All-to-all communication in single precision                          F
 GLOBAL| FFTs using library dependent lengths                                  F
 GLOBAL| Global print level                                                  LOW
 GLOBAL| MPI I/O enabled                                                       T
 GLOBAL| Total number of message passing processes                             1
 GLOBAL| Number of threads for this process                                    1
 GLOBAL| This output is from process                                           0
 GLOBAL| CPU model name :  Intel(R) Xeon(R) CPU E5-1650 v4 @ 3.60GHz

 MEMORY| system memory details [Kb]
 MEMORY|                        rank 0           min           max       average
 MEMORY| MemTotal             65953612      65953612      65953612      65953612
 MEMORY| MemFree               4910644       4910644       4910644       4910644
 MEMORY| Buffers               2548000       2548000       2548000       2548000
 MEMORY| Cached               25390016      25390016      25390016      25390016
 MEMORY| Slab                  3623568       3623568       3623568       3623568
 MEMORY| SReclaimable          2422904       2422904       2422904       2422904
 MEMORY| MemLikelyFree        35271564      35271564      35271564      35271564


 GENERATE|  Preliminary Number of Bonds generated:                             0
 GENERATE|  Achieved consistency in connectivity generation.

 *******************************************************************************
 *******************************************************************************
 **                                                                           **
 **     #####                         ##              ##                      **
 **    ##   ##            ##          ##              ##                      **
 **   ##     ##                       ##            ######                    **
 **   ##     ##  ##   ##  ##   #####  ##  ##   ####   ##    #####    #####    **
 **   ##     ##  ##   ##  ##  ##      ## ##   ##      ##   ##   ##  ##   ##   **
 **   ##  ## ##  ##   ##  ##  ##      ####     ###    ##   ######   ######    **
 **    ##  ###   ##   ##  ##  ##      ## ##      ##   ##   ##       ##        **
 **     #######   #####   ##   #####  ##  ##  ####    ##    #####   ##        **
 **           ##                                                    ##        **
 **                                                                           **
 **                                                ... make the atoms dance   **
 **                                                                           **
 **            Copyright (C) by CP2K developers group (2000 - 2018)           **
 **                                                                           **
 *******************************************************************************


 TOTAL NUMBERS AND MAXIMUM NUMBERS

  Total number of            - Atomic kinds:                                   2
                             - Atoms:                                          6
                             - Shell sets:                                     6
                             - Shells:                                        22
                             - Primitive Cartesian functions:                 42
                             - Cartesian basis functions:                     48
                             - Spherical basis functions:                     46

  Maximum angular momentum of- Orbital basis functions:                        2
                             - Local part of the GTH pseudopotential:          2
                             - Non-local part of the GTH pseudopotential:      0

 ------------------------------ Linear scaling SCF -----------------------------
 eps_scf:                                                              0.100E-07
 eps_filter:                                                           0.100E-07
 mixing_fraction:                                                      0.450E+00
 max_scf:                                                                     25
 fixed chemical potential (mu)                                                 F
 has unit metric:                                                              F
 Computing inv(S):                                                             T
 Computing sqrt(S):                                                            T
 Computing s preconditioner                                                    F
 sign sqrt order:                                                              3
 Extrapolation order:                                                          1
 Use single precision matrices                                                 F
 S preconditioner type                                                      NONE
 Polarized Atomic Orbitals (PAO)                                               T
 Purification method                                   Trace resetting 4th order
 Cluster type                                                             ATOMIC
 Computing Chebyshev                                                       FALSE
 Using PAO                                                                     T
 -------------------------------------------------------------------------------

 
 PAO|                                  EPS_PAO                           0.1E-04
 PAO|                                  MIXING                            0.5E+00
 PAO|                                  MAX_PAO                              1000
 PAO|                                  MAX_CYCLES                           1000
 PAO|                                  PARAMETERIZATION                   DIRECT
 PAO|                                  PRECONDITION                            F
 PAO|                                  REGULARIZATION                    0.0E+00
 PAO|                                  EPS_PGF                           0.1E-09
 PAO|                                  PENALTY_DISTANCE                  0.1E+00
 PAO|                                  PENALTY_STRENGTH                  0.5E-02
 PAO|                                  LINPOT_PRECONDITION_DELTA         0.0E+00
 PAO|                                  LINPOT_INITGUESS_DELT             0.0E+00
 PAO|                                  LINPOT_REGULARIZATION_DELTA       0.0E+00
 PAO|                                  LINPOT_REGULARIZATION_STRENGTH    0.0E+00
 PAO|                                  OPTIMIZER                              CG
 PAO|                                  CG_INIT_STEPS                           2
 PAO|                                  CG_RESET_LIMIT                    0.1E+00
 PAO|                                  CHECK_UNITARY_TOL                -0.1E+01
 PAO|                                  CHECK_GRADIENT_TOL               -0.1E+01
 PAO|                                  NUM_GRADIENT_ORDER                      2
 PAO|                                  NUM_GRADIENT_EPS                  0.1E-07
 PAO|                                  PRINT%RESTART%WRITE_CYCLES            100
 PAO|                                  RESTART_FILE 
 PAO|                                  PREOPT_DM_FILE 2H2O_ref_LS_DM_SPIN_1_RESTART.dm
 PAO|                                  MACHINE_LEARNING%METHOD        GAUSSIAN_P
 PAO|                                  MACHINE_LEARNING%PRIOR               ZERO
 PAO|                                  MACHINE_LEARNING%DESCRIPTOR     POTENTIAL
 PAO|                                  MACHINE_LEARNING%TOLERANCE        0.1E-01
 PAO|                                  MACHINE_LEARNING%GP_NOISE_VAR     0.1E+00
 PAO|                                  MACHINE_LEARNING%GP_SCALE         0.5E-01
 

 Calculating atomic Fock matrix for atomic kind: O

 Electronic structure
    Total number of core electrons                                          2.00
    Total number of valence electrons                                       6.00
    Total number of electrons                                               8.00
    Multiplicity                                                   not specified
    S   [  2.00] 2.00
    P      4.00


 *******************************************************************************
                  Iteration          Convergence                     Energy [au]
 *******************************************************************************
                          1        0.708315                     -15.576645311500
                          2        0.608879                     -15.587933561584
                          3        0.102828E-01                 -15.656849565404
                          4        0.113889E-02                 -15.656866888140
                          5        0.434197E-03                 -15.656867072159
                          6        0.263771E-03                 -15.656867091904
                          7        0.478536E-06                 -15.656867103452

 Energy components [Hartree]           Total Energy ::          -15.656867103452
                                        Band Energy ::           -3.000198112285
                                     Kinetic Energy ::           11.759971203220
                                   Potential Energy ::          -27.416838306672
                                      Virial (-V/T) ::            2.331369510426
                                        Core Energy ::          -26.140716385623
                                          XC Energy ::           -3.154051012914
                                     Coulomb Energy ::           13.637900295084
                       Total Pseudopotential Energy ::          -37.935781716540
                       Local Pseudopotential Energy ::          -39.218907440693
                    Nonlocal Pseudopotential Energy ::            1.283125724153
                                        Confinement ::            0.350941276976

 Orbital energies  State     L     Occupation   Energy[a.u.]          Energy[eV]

                       1     0          2.000      -0.864471          -23.523463

                       1     1          4.000      -0.317814           -8.648154


 Total Electron Density at R=0:                                         0.000068

 Calculating atomic Fock matrix for atomic kind: H

 Electronic structure
    Total number of core electrons                                          0.00
    Total number of valence electrons                                       1.00
    Total number of electrons                                               1.00
    Multiplicity                                                   not specified
    S      1.00


 *******************************************************************************
                  Iteration          Convergence                     Energy [au]
 *******************************************************************************
                          1        0.437545E-02                  -0.424159432110
                          2        0.531356E-03                  -0.424178438213
                          3        0.259176E-06                  -0.424178722480

 Energy components [Hartree]           Total Energy ::           -0.424178722480
                                        Band Energy ::           -0.199015229016
                                     Kinetic Energy ::            0.464007633961
                                   Potential Energy ::           -0.888186356441
                                      Virial (-V/T) ::            1.914163240935
                                        Core Energy ::           -0.479160803564
                                          XC Energy ::           -0.244352904054
                                     Coulomb Energy ::            0.299334985138
                       Total Pseudopotential Energy ::           -0.962295316385
                       Local Pseudopotential Energy ::           -0.962295316385
                    Nonlocal Pseudopotential Energy ::            0.000000000000
                                        Confinement ::            0.191268788606

 Orbital energies  State     L     Occupation   Energy[a.u.]          Energy[eV]

                       1     0          1.000      -0.199015           -5.415480


 Total Electron Density at R=0:                                         0.242907
 PAO| Made initial guess for matrix_X with norm:   4.8989794855663558     

     Lanczos converged:  T threshold:   0.100E-02
     Est. extremal eigenvalues:    0.337E+01   0.113E+00
     Est. condition number :    0.297E+02
     NS sqrt iter    1 1.00000000   0.822E+00       0.002       41.986
     NS sqrt iter    2 1.00000000   0.440E+00       0.002       63.885
     NS sqrt iter    3 1.00000000   0.171E+00       0.002       65.548
     NS sqrt iter    4 1.00000000   0.208E-01       0.002       64.487
     NS sqrt iter    5 1.00000000   0.560E-04       0.002       56.006
     Final NS sqrt iter    5 1.00000000   0.273E-08

 PAO| Read restart DM 2H2O_ref_LS_DM_SPIN_1_RESTART.dm with checksum:    72.048184080969477     
 PAO| Quickstep energy from restart density:  -34.450801614694313     
 PAO| ======================= Iteration:         1 =============================

     Lanczos converged:  T threshold:   0.100E-02
     Est. extremal eigenvalues:    0.337E+01   0.113E+00
     Est. condition number :    0.297E+02
     NS sqrt iter    1 1.00000000   0.822E+00       0.001       44.544
     NS sqrt iter    2 1.00000000   0.440E+00       0.001       73.756
     NS sqrt iter    3 1.00000000   0.171E+00       0.001       74.947
     NS sqrt iter    4 1.00000000   0.208E-01       0.001       74.049
     NS sqrt iter    5 1.00000000   0.560E-04       0.001       63.741
     Final NS sqrt iter    5 1.00000000   0.273E-08

     Est. extremal eigenvalues     -0.91932     1.90520  converged:  T
     TRS4 it   1 1.00000000   0.892E+00       0.001       16.128   0.100E-07
     TRS4 it   2 1.00000000   0.697E+00       0.001       32.256   0.100E-07
     TRS4 it   3 1.00000000   0.500E+00       0.001       32.256   0.100E-07
     TRS4 it   4 1.00000000   0.313E+00       0.001       32.256   0.100E-07
     TRS4 it   5 1.00000000   0.155E+00       0.001       32.256   0.100E-07
     TRS4 it   6 1.00000000   0.486E-01       0.001       32.256   0.100E-07
     TRS4 it   7 1.00000000   0.656E-02       0.001       32.256   0.100E-07
     TRS4 it   8 1.00000000   0.169E-03       0.001       32.256   0.100E-07
     TRS4 it   9 1.00000000   0.127E-06       0.001       32.256   0.100E-07
     TRS4 it  10 1.00000000   0.723E-13       0.001       28.135   0.100E-07
     Final TRS4 iteration   10 1.00000000   0.723E-13
     Chemical potential (mu):      -0.06364
 
 PAO| energy:  -7.6162978808006514      penalty:   4.0059342843254507E-033
 PAO|CG| warming up with steepest descent
 PAO|CG| beta:    0.0000000000000000     
 PAO| norm of gradient:  0.78387654830920117     
 PAO|LS| adapt:  T F F
 PAO|LS| adapt: scan_steps:    0.0000000000000000        0.0000000000000000        0.0000000000000000     
 PAO|LS| adapt: energies:   -7.6162978808006514        0.0000000000000000        0.0000000000000000     
 PAO| ======================= Iteration:         2 =============================

     Lanczos converged:  T threshold:   0.100E-02
     Est. extremal eigenvalues:    0.328E+01   0.126E+00
     Est. condition number :    0.261E+02
     NS sqrt iter    1 1.00000000   0.805E+00       0.002       38.782
     NS sqrt iter    2 1.00000000   0.425E+00       0.002       63.096
     NS sqrt iter    3 1.00000000   0.153E+00       0.002       64.184
     NS sqrt iter    4 1.00000000   0.145E-01       0.002       64.196
     NS sqrt iter    5 1.00000000   0.184E-04       0.002       51.418
     Final NS sqrt iter    5 1.00000000   0.513E-09

     Est. extremal eigenvalues     -0.92299     1.85307  converged:  T
     TRS4 it   1 1.00000000   0.890E+00       0.001       16.128   0.100E-07
     TRS4 it   2 1.00000000   0.680E+00       0.001       32.256   0.100E-07
     TRS4 it   3 1.00000000   0.485E+00       0.001       32.256   0.100E-07
     TRS4 it   4 1.00000000   0.294E+00       0.001       32.256   0.100E-07
     TRS4 it   5 1.00000000   0.137E+00       0.001       32.256   0.100E-07
     TRS4 it   6 1.00000000   0.377E-01       0.001       27.793   0.100E-07
     TRS4 it   7 1.00000000   0.398E-02       0.001       26.063   0.100E-07
     TRS4 it   8 1.00000000   0.627E-04       0.001       32.256   0.100E-07
     TRS4 it   9 1.00000000   0.175E-07       0.001       32.256   0.100E-07
     Final TRS4 iteration    9 1.00000000   0.175E-07
     Chemical potential (mu):      -0.05173
 
 PAO| energy:  -7.6718521547848413      penalty:   2.2549421664019913E-008
 PAO|LS| adapt:  T T F
 PAO|LS| adapt: scan_steps:    0.0000000000000000       0.10000000000000001        0.0000000000000000     
 PAO|LS| adapt: energies:   -7.6162978808006514       -7.6718521547848413        0.0000000000000000     
 PAO| ======================= Iteration:         3 =============================

     Lanczos converged:  T threshold:   0.100E-02
     Est. extremal eigenvalues:    0.319E+01   0.137E+00
     Est. condition number :    0.233E+02
     NS sqrt iter    1 1.00000000   0.787E+00       0.001       43.948
     NS sqrt iter    2 1.00000000   0.408E+00       0.002       71.247
     NS sqrt iter    3 1.00000000   0.136E+00       0.002       70.224
     NS sqrt iter    4 1.00000000   0.100E-01       0.001       74.134
     NS sqrt iter    5 1.00000000   0.643E-05       0.001       59.923
     Final NS sqrt iter    5 1.00000000   0.634E-10

     Est. extremal eigenvalues     -0.92642     1.81121  converged:  T
     TRS4 it   1 1.00000000   0.889E+00       0.001       16.128   0.100E-07
     TRS4 it   2 1.00000000   0.664E+00       0.001       32.256   0.100E-07
     TRS4 it   3 1.00000000   0.470E+00       0.001       32.256   0.100E-07
     TRS4 it   4 1.00000000   0.275E+00       0.001       32.256   0.100E-07
     TRS4 it   5 1.00000000   0.119E+00       0.001       32.256   0.100E-07
     TRS4 it   6 1.00000000   0.283E-01       0.001       32.256   0.100E-07
     TRS4 it   7 1.00000000   0.225E-02       0.001       32.256   0.100E-07
     TRS4 it   8 1.00000000   0.200E-04       0.001       32.256   0.100E-07
     TRS4 it   9 1.00000000   0.179E-08       0.001       32.256   0.100E-07
     Final TRS4 iteration    9 1.00000000   0.179E-08
     Chemical potential (mu):      -0.03887
 
 PAO| energy:  -7.7149597164854260      penalty:   3.6079085317783575E-007
 PAO|LS| adapt:  T T F
 PAO|LS| adapt: scan_steps:    0.0000000000000000       0.20000000000000001        0.0000000000000000     
 PAO|LS| adapt: energies:   -7.6162978808006514       -7.7149597164854260        0.0000000000000000     
 PAO| ======================= Iteration:         4 =============================

     Lanczos converged:  T threshold:   0.100E-02
     Est. extremal eigenvalues:    0.299E+01   0.154E+00
     Est. condition number :    0.194E+02
     NS sqrt iter    1 1.00000000   0.750E+00       0.001       43.910
     NS sqrt iter    2 1.00000000   0.373E+00       0.001       73.859
     NS sqrt iter    3 1.00000000   0.106E+00       0.002       60.782
     NS sqrt iter    4 1.00000000   0.496E-02       0.002       59.155
     NS sqrt iter    5 1.00000000   0.971E-06       0.002       49.336
     Final NS sqrt iter    5 1.00000000   0.159E-11

     Est. extremal eigenvalues     -0.93174     1.75040  converged:  T
     TRS4 it   1 1.00000000   0.886E+00       0.001       16.128   0.100E-07
     TRS4 it   2 1.00000000   0.638E+00       0.001       29.236   0.100E-07
     TRS4 it   3 1.00000000   0.442E+00       0.001       28.653   0.100E-07
     TRS4 it   4 1.00000000   0.239E+00       0.001       30.670   0.100E-07
     TRS4 it   5 1.00000000   0.878E-01       0.001       32.256   0.100E-07
     TRS4 it   6 1.00000000   0.150E-01       0.001       32.256   0.100E-07
     TRS4 it   7 1.00000000   0.599E-03       0.001       32.256   0.100E-07
     TRS4 it   8 1.00000000   0.138E-05       0.001       32.256   0.100E-07
     TRS4 it   9 1.00000000   0.848E-11       0.001       32.256   0.100E-07
     Final TRS4 iteration    9 1.00000000   0.848E-11
     Chemical potential (mu):      -0.01057
 
 PAO| energy:  -7.7622234160005297      penalty:   5.7726545032862917E-006
 PAO|LS| Need extra step
 PAO|LS| adapt:  T T F
 PAO|LS| adapt: scan_steps:    0.0000000000000000       0.40000000000000002        0.0000000000000000     
 PAO|LS| adapt: energies:   -7.6162978808006514       -7.7622234160005297        0.0000000000000000     
 PAO| ======================= Iteration:         5 =============================

     Lanczos converged:  T threshold:   0.100E-02
     Est. extremal eigenvalues:    0.263E+01   0.181E+00
     Est. condition number :    0.145E+02
     NS sqrt iter    1 1.00000000   0.684E+00       0.002       41.235
     NS sqrt iter    2 1.00000000   0.311E+00       0.002       65.528
     NS sqrt iter    3 1.00000000   0.656E-01       0.002       66.919
     NS sqrt iter    4 1.00000000   0.138E-02       0.002       67.168
     NS sqrt iter    5 1.00000000   0.272E-07       0.001       39.294
     Final NS sqrt iter    5 1.00000000   0.312E-08

     Est. extremal eigenvalues     -0.93297     1.68202  converged:  T
     TRS4 it   1 1.00000000   0.884E+00       0.001       16.128   0.100E-07
     TRS4 it   2 1.00000000   0.603E+00       0.001       32.256   0.100E-07
     TRS4 it   3 1.00000000   0.397E+00       0.001       32.256   0.100E-07
     TRS4 it   4 1.00000000   0.184E+00       0.001       25.033   0.100E-07
     TRS4 it   5 1.00000000   0.484E-01       0.001       32.256   0.100E-07
     TRS4 it   6 1.00000000   0.415E-02       0.001       32.256   0.100E-07
     TRS4 it   7 1.00000000   0.391E-04       0.001       32.256   0.100E-07
     TRS4 it   8 1.00000000   0.441E-08       0.001       32.256   0.100E-07
     Final TRS4 iteration    8 1.00000000   0.441E-08
     Chemical potential (mu):       0.03768
 
 PAO| energy:  -7.7074377272165044      penalty:   9.2362478872157918E-005
 PAO|LS| Need extra step
 PAO|LS| adapt:  T T T
 PAO|LS| adapt: scan_steps:    0.0000000000000000       0.40000000000000002       0.80000000000000004     
 PAO|LS| adapt: energies:   -7.6162978808006514       -7.7622234160005297       -7.7074377272165044     
 PAO|LS| adapt: suggested step_size:   0.49081689066194156     
 PAO|LS| adapt: predicted energy  -7.7673965644173393     
 PAO| ======================= Iteration:         6 =============================

     Lanczos converged:  T threshold:   0.100E-02
     Est. extremal eigenvalues:    0.290E+01   0.161E+00
     Est. condition number :    0.180E+02
     NS sqrt iter    1 1.00000000   0.733E+00       0.001       46.557
     NS sqrt iter    2 1.00000000   0.358E+00       0.001       76.350
     NS sqrt iter    3 1.00000000   0.950E-01       0.001       77.614
     NS sqrt iter    4 1.00000000   0.366E-02       0.001       77.256
     NS sqrt iter    5 1.00000000   0.428E-06       0.001       62.680
     Final NS sqrt iter    5 1.00000000   0.812E-11

     Est. extremal eigenvalues     -0.93323     1.73005  converged:  T
     TRS4 it   1 1.00000000   0.885E+00       0.001       16.128   0.100E-07
     TRS4 it   2 1.00000000   0.628E+00       0.001       32.256   0.100E-07
     TRS4 it   3 1.00000000   0.431E+00       0.001       32.256   0.100E-07
     TRS4 it   4 1.00000000   0.225E+00       0.001       32.256   0.100E-07
     TRS4 it   5 1.00000000   0.763E-01       0.001       32.256   0.100E-07
     TRS4 it   6 1.00000000   0.110E-01       0.001       32.256   0.100E-07
     TRS4 it   7 1.00000000   0.311E-03       0.001       32.256   0.100E-07
     TRS4 it   8 1.00000000   0.356E-06       0.001       32.256   0.100E-07
     TRS4 it   9 1.00000000   0.559E-12       0.001       32.256   0.100E-07
     Final TRS4 iteration    9 1.00000000   0.559E-12
     Chemical potential (mu):       0.00306
 
 PAO| energy:  -7.7666579262767881      penalty:   1.3086201747369441E-005
 PAO|CG| warming up with steepest descent
 PAO|CG| beta:    0.0000000000000000     
 PAO| norm of gradient:  0.41744411789653807     
 PAO| energy improvement: -0.15036004547613668     
 PAO| step      6                   -7.766657926  0.261E-01  0.491E+00     0.123
 PAO|LS| adapt:  T F F
 PAO|LS| adapt: scan_steps:    0.0000000000000000        0.0000000000000000        0.0000000000000000     
 PAO|LS| adapt: energies:   -7.7666579262767881        0.0000000000000000        0.0000000000000000     
 PAO| ======================= Iteration:         7 =============================

     Lanczos converged:  T threshold:   0.100E-02
     Est. extremal eigenvalues:    0.281E+01   0.175E+00
     Est. condition number :    0.161E+02
     NS sqrt iter    1 1.00000000   0.716E+00       0.002       34.555
     NS sqrt iter    2 1.00000000   0.337E+00       0.002       59.450
     NS sqrt iter    3 1.00000000   0.794E-01       0.002       61.270
     NS sqrt iter    4 1.00000000   0.222E-02       0.002       57.852
     NS sqrt iter    5 1.00000000   0.105E-06       0.002       39.288
     Final NS sqrt iter    5 1.00000000   0.130E-08

     Est. extremal eigenvalues     -0.93492     1.71624  converged:  T
     TRS4 it   1 1.00000000   0.885E+00       0.001       16.128   0.100E-07
     TRS4 it   2 1.00000000   0.626E+00       0.001       32.256   0.100E-07
     TRS4 it   3 1.00000000   0.431E+00       0.001       32.256   0.100E-07
     TRS4 it   4 1.00000000   0.225E+00       0.001       32.256   0.100E-07
     TRS4 it   5 1.00000000   0.769E-01       0.001       32.256   0.100E-07
     TRS4 it   6 1.00000000   0.110E-01       0.001       32.256   0.100E-07
     TRS4 it   7 1.00000000   0.292E-03       0.001       32.256   0.100E-07
     TRS4 it   8 1.00000000   0.296E-06       0.001       32.256   0.100E-07
     TRS4 it   9 1.00000000   0.379E-12       0.001       32.256   0.100E-07
     Final TRS4 iteration    9 1.00000000   0.379E-12
     Chemical potential (mu):       0.00502
 
 PAO| energy:  -7.7605351979019783      penalty:   1.9799498201476860E-005
 PAO|LS| adapt:  T F T
 PAO|LS| adapt: scan_steps:    0.0000000000000000        0.0000000000000000       0.49081689066194156     
 PAO|LS| adapt: energies:   -7.7666579262767881        0.0000000000000000       -7.7605351979019783     
 PAO| ======================= Iteration:         8 =============================

     Lanczos converged:  T threshold:   0.100E-02
     Est. extremal eigenvalues:    0.286E+01   0.168E+00
     Est. condition number :    0.170E+02
     NS sqrt iter    1 1.00000000   0.724E+00       0.002       39.580
     NS sqrt iter    2 1.00000000   0.348E+00       0.002       63.811
     NS sqrt iter    3 1.00000000   0.870E-01       0.002       64.480
     NS sqrt iter    4 1.00000000   0.287E-02       0.002       62.656
     NS sqrt iter    5 1.00000000   0.216E-06       0.002       50.879
     Final NS sqrt iter    5 1.00000000   0.750E-09

     Est. extremal eigenvalues     -0.93504     1.72258  converged:  T
     TRS4 it   1 1.00000000   0.884E+00       0.001       16.128   0.100E-07
     TRS4 it   2 1.00000000   0.627E+00       0.001       32.256   0.100E-07
     TRS4 it   3 1.00000000   0.430E+00       0.001       32.256   0.100E-07
     TRS4 it   4 1.00000000   0.224E+00       0.001       32.256   0.100E-07
     TRS4 it   5 1.00000000   0.764E-01       0.001       32.256   0.100E-07
     TRS4 it   6 1.00000000   0.111E-01       0.001       32.256   0.100E-07
     TRS4 it   7 1.00000000   0.309E-03       0.001       32.256   0.100E-07
     TRS4 it   8 1.00000000   0.345E-06       0.001       32.256   0.100E-07
     TRS4 it   9 1.00000000   0.519E-12       0.001       32.256   0.100E-07
     Final TRS4 iteration    9 1.00000000   0.519E-12
     Chemical potential (mu):       0.00359
 
 PAO| energy:  -7.7862694813081399      penalty:   1.4187516597723902E-005
 PAO|LS| adapt:  T T T
 PAO|LS| adapt: scan_steps:    0.0000000000000000       0.24540844533097078       0.49081689066194156     
 PAO|LS| adapt: energies:   -7.7666579262767881       -7.7862694813081399       -7.7605351979019783     
 PAO|LS| adapt: suggested step_size:   0.22884056056557578     
 PAO|LS| adapt: predicted energy  -7.7863728199055817     
 PAO| ======================= Iteration:         9 =============================

     Lanczos converged:  T threshold:   0.100E-02
     Est. extremal eigenvalues:    0.286E+01   0.168E+00
     Est. condition number :    0.171E+02
     NS sqrt iter    1 1.00000000   0.725E+00       0.002       39.284
     NS sqrt iter    2 1.00000000   0.348E+00       0.002       62.770
     NS sqrt iter    3 1.00000000   0.875E-01       0.002       63.508
     NS sqrt iter    4 1.00000000   0.292E-02       0.002       63.356
     NS sqrt iter    5 1.00000000   0.227E-06       0.002       50.579
     Final NS sqrt iter    5 1.00000000   0.337E-09

     Est. extremal eigenvalues     -0.93498     1.72305  converged:  T
     TRS4 it   1 1.00000000   0.884E+00       0.001       16.128   0.100E-07
     TRS4 it   2 1.00000000   0.627E+00       0.001       32.256   0.100E-07
     TRS4 it   3 1.00000000   0.430E+00       0.001       32.256   0.100E-07
     TRS4 it   4 1.00000000   0.224E+00       0.001       32.256   0.100E-07
     TRS4 it   5 1.00000000   0.763E-01       0.001       32.256   0.100E-07
     TRS4 it   6 1.00000000   0.111E-01       0.001       30.000   0.100E-07
     TRS4 it   7 1.00000000   0.310E-03       0.001       29.555   0.100E-07
     TRS4 it   8 1.00000000   0.347E-06       0.001       28.184   0.100E-07
     TRS4 it   9 1.00000000   0.527E-12       0.001       29.601   0.100E-07
     Final TRS4 iteration    9 1.00000000   0.527E-12
     Chemical potential (mu):       0.00352
 
 PAO| energy:  -7.7863975783867394      penalty:   1.4010720153976235E-005
 PAO|CG| trace_G_new    3.6811347690420604E-002
 PAO|CG| trace_G_prev   0.17425959156641879     
 PAO|CG| trace_G_mix   -1.4448206173674713E-003
 PAO|CG| trace_D   0.17425959156641879     
 PAO|CG| trace_D_Gnew   1.4448206173674713E-003
 PAO|CG| beta:   0.21953551000495022     
 PAO| norm of gradient:  0.19186283561550060     
 PAO| energy improvement:  -1.9739652109951322E-002
 PAO| step      9                   -7.786397578  0.120E-01  0.229E+00     0.085
 PAO|LS| adapt:  T F F
 PAO|LS| adapt: scan_steps:    0.0000000000000000        0.0000000000000000        0.0000000000000000     
 PAO|LS| adapt: energies:   -7.7863975783867394        0.0000000000000000        0.0000000000000000     
 PAO| ======================= Iteration:        10 =============================

     Lanczos converged:  T threshold:   0.100E-02
     Est. extremal eigenvalues:    0.282E+01   0.173E+00
     Est. condition number :    0.163E+02
     NS sqrt iter    1 1.00000000   0.717E+00       0.002       40.716
     NS sqrt iter    2 1.00000000   0.340E+00       0.002       66.966
     NS sqrt iter    3 1.00000000   0.819E-01       0.002       67.230
     NS sqrt iter    4 1.00000000   0.240E-02       0.002       66.889
     NS sqrt iter    5 1.00000000   0.127E-06       0.002       50.303
     Final NS sqrt iter    5 1.00000000   0.122E-08

     Est. extremal eigenvalues     -0.93587     1.71980  converged:  T
     TRS4 it   1 1.00000000   0.883E+00       0.001       16.128   0.100E-07
     TRS4 it   2 1.00000000   0.626E+00       0.001       32.256   0.100E-07
     TRS4 it   3 1.00000000   0.429E+00       0.001       32.256   0.100E-07
     TRS4 it   4 1.00000000   0.222E+00       0.001       32.256   0.100E-07
     TRS4 it   5 1.00000000   0.745E-01       0.001       32.256   0.100E-07
     TRS4 it   6 1.00000000   0.105E-01       0.001       32.256   0.100E-07
     TRS4 it   7 1.00000000   0.274E-03       0.001       32.256   0.100E-07
     TRS4 it   8 1.00000000   0.263E-06       0.001       32.256   0.100E-07
     TRS4 it   9 1.00000000   0.301E-12       0.001       32.256   0.100E-07
     Final TRS4 iteration    9 1.00000000   0.301E-12
     Chemical potential (mu):       0.00657
 
 PAO| energy:  -7.7914250376045890      penalty:   1.4543844985298221E-005
 PAO|LS| adapt:  T T F
 PAO|LS| adapt: scan_steps:    0.0000000000000000       0.22884056056557578        0.0000000000000000     
 PAO|LS| adapt: energies:   -7.7863975783867394       -7.7914250376045890        0.0000000000000000     
 PAO| ======================= Iteration:        11 =============================

     Lanczos converged:  T threshold:   0.100E-02
     Est. extremal eigenvalues:    0.279E+01   0.179E+00
     Est. condition number :    0.156E+02
     NS sqrt iter    1 1.00000000   0.709E+00       0.001       45.072
     NS sqrt iter    2 1.00000000   0.332E+00       0.002       73.142
     NS sqrt iter    3 1.00000000   0.765E-01       0.002       73.219
     NS sqrt iter    4 1.00000000   0.197E-02       0.001       74.672
     NS sqrt iter    5 1.00000000   0.698E-07       0.001       53.400
     Final NS sqrt iter    5 1.00000000   0.516E-09

     Est. extremal eigenvalues     -0.93579     1.71772  converged:  T
     TRS4 it   1 1.00000000   0.882E+00       0.001       16.128   0.100E-07
     TRS4 it   2 1.00000000   0.625E+00       0.001       32.256   0.100E-07
     TRS4 it   3 1.00000000   0.427E+00       0.001       32.256   0.100E-07
     TRS4 it   4 1.00000000   0.220E+00       0.001       32.256   0.100E-07
     TRS4 it   5 1.00000000   0.727E-01       0.001       30.145   0.100E-07
     TRS4 it   6 1.00000000   0.991E-02       0.001       31.245   0.100E-07
     TRS4 it   7 1.00000000   0.241E-03       0.001       30.848   0.100E-07
     TRS4 it   8 1.00000000   0.198E-06       0.001       32.256   0.100E-07
     TRS4 it   9 1.00000000   0.168E-12       0.001       32.256   0.100E-07
     Final TRS4 iteration    9 1.00000000   0.168E-12
     Chemical potential (mu):       0.00971
 
 PAO| energy:  -7.7900465437418172      penalty:   1.5741630078640664E-005
 PAO|LS| adapt:  T T T
 PAO|LS| adapt: scan_steps:    0.0000000000000000       0.22884056056557578       0.45768112113115156     
 PAO|LS| adapt: energies:   -7.7863975783867394       -7.7914250376045890       -7.7900465437418172     
 PAO|LS| adapt: suggested step_size:   0.29401675424285917     
 PAO|LS| adapt: predicted energy  -7.7916848535132246     
 PAO| ======================= Iteration:        12 =============================

     Lanczos converged:  T threshold:   0.100E-02
     Est. extremal eigenvalues:    0.281E+01   0.175E+00
     Est. condition number :    0.161E+02
     NS sqrt iter    1 1.00000000   0.715E+00       0.002       40.929
     NS sqrt iter    2 1.00000000   0.338E+00       0.002       64.049
     NS sqrt iter    3 1.00000000   0.804E-01       0.002       62.715
     NS sqrt iter    4 1.00000000   0.227E-02       0.002       64.606
     NS sqrt iter    5 1.00000000   0.107E-06       0.002       42.255
     Final NS sqrt iter    5 1.00000000   0.126E-08

     Est. extremal eigenvalues     -0.93595     1.71909  converged:  T
     TRS4 it   1 1.00000000   0.883E+00       0.001       16.128   0.100E-07
     TRS4 it   2 1.00000000   0.625E+00       0.001       32.256   0.100E-07
     TRS4 it   3 1.00000000   0.428E+00       0.001       32.256   0.100E-07
     TRS4 it   4 1.00000000   0.221E+00       0.001       32.256   0.100E-07
     TRS4 it   5 1.00000000   0.740E-01       0.001       32.256   0.100E-07
     TRS4 it   6 1.00000000   0.103E-01       0.001       32.256   0.100E-07
     TRS4 it   7 1.00000000   0.264E-03       0.001       32.256   0.100E-07
     TRS4 it   8 1.00000000   0.243E-06       0.001       32.256   0.100E-07
     TRS4 it   9 1.00000000   0.255E-12       0.001       32.256   0.100E-07
     Final TRS4 iteration    9 1.00000000   0.255E-12
     Chemical potential (mu):       0.00745
 
 PAO| energy:  -7.7916686070044259      penalty:   1.4809637574621438E-005
 PAO|CG| trace_G_new    1.1791937731974110E-002
 PAO|CG| trace_G_prev    3.6811347690420604E-002
 PAO|CG| trace_G_mix   -4.5500569414451777E-004
 PAO|CG| trace_D    4.4575556248507196E-002
 PAO|CG| trace_D_Gnew   2.0642272219700678E-004
 PAO|CG| beta:   0.33269478556216087     
 PAO| norm of gradient:  0.10859068897458064     
 PAO| energy improvement:  -5.2710286176864685E-003
 PAO| step     12                   -7.791668607  0.679E-02  0.294E+00     0.080
 PAO|LS| adapt:  T F F
 PAO|LS| adapt: scan_steps:    0.0000000000000000        0.0000000000000000        0.0000000000000000     
 PAO|LS| adapt: energies:   -7.7916686070044259        0.0000000000000000        0.0000000000000000     
 PAO| ======================= Iteration:        13 =============================

     Lanczos converged:  T threshold:   0.100E-02
     Est. extremal eigenvalues:    0.278E+01   0.179E+00
     Est. condition number :    0.155E+02
     NS sqrt iter    1 1.00000000   0.707E+00       0.002       38.759
     NS sqrt iter    2 1.00000000   0.330E+00       0.002       63.286
     NS sqrt iter    3 1.00000000   0.760E-01       0.002       64.967
     NS sqrt iter    4 1.00000000   0.193E-02       0.002       64.317
     NS sqrt iter    5 1.00000000   0.669E-07       0.002       46.409
     Final NS sqrt iter    5 1.00000000   0.492E-09

     Est. extremal eigenvalues     -0.93643     1.71296  converged:  T
     TRS4 it   1 1.00000000   0.883E+00       0.001       16.128   0.100E-07
     TRS4 it   2 1.00000000   0.623E+00       0.001       32.256   0.100E-07
     TRS4 it   3 1.00000000   0.424E+00       0.001       32.256   0.100E-07
     TRS4 it   4 1.00000000   0.217E+00       0.001       32.256   0.100E-07
     TRS4 it   5 1.00000000   0.705E-01       0.001       32.256   0.100E-07
     TRS4 it   6 1.00000000   0.931E-02       0.001       32.256   0.100E-07
     TRS4 it   7 1.00000000   0.212E-03       0.001       32.256   0.100E-07
     TRS4 it   8 1.00000000   0.153E-06       0.001       32.256   0.100E-07
     TRS4 it   9 1.00000000   0.101E-12       0.001       32.256   0.100E-07
     Final TRS4 iteration    9 1.00000000   0.101E-12
     Chemical potential (mu):       0.01190
 
 PAO| energy:  -7.7937364820577351      penalty:   1.5114171513109689E-005
 PAO|LS| adapt:  T T F
 PAO|LS| adapt: scan_steps:    0.0000000000000000       0.29401675424285917        0.0000000000000000     
 PAO|LS| adapt: energies:   -7.7916686070044259       -7.7937364820577351        0.0000000000000000     
 PAO| ======================= Iteration:        14 =============================

     Lanczos converged:  T threshold:   0.100E-02
     Est. extremal eigenvalues:    0.274E+01   0.183E+00
     Est. condition number :    0.150E+02
     NS sqrt iter    1 1.00000000   0.700E+00       0.002       40.491
     NS sqrt iter    2 1.00000000   0.323E+00       0.002       62.659
     NS sqrt iter    3 1.00000000   0.719E-01       0.002       63.572
     NS sqrt iter    4 1.00000000   0.165E-02       0.002       64.246
     NS sqrt iter    5 1.00000000   0.417E-07       0.002       45.143
     Final NS sqrt iter    5 1.00000000   0.376E-09

     Est. extremal eigenvalues     -0.93641     1.70708  converged:  T
     TRS4 it   1 1.00000000   0.882E+00       0.001       16.128   0.100E-07
     TRS4 it   2 1.00000000   0.620E+00       0.001       32.256   0.100E-07
     TRS4 it   3 1.00000000   0.421E+00       0.001       32.256   0.100E-07
     TRS4 it   4 1.00000000   0.212E+00       0.001       32.256   0.100E-07
     TRS4 it   5 1.00000000   0.672E-01       0.001       32.256   0.100E-07
     TRS4 it   6 1.00000000   0.840E-02       0.001       32.256   0.100E-07
     TRS4 it   7 1.00000000   0.171E-03       0.001       32.256   0.100E-07
     TRS4 it   8 1.00000000   0.969E-07       0.001       32.256   0.100E-07
     TRS4 it   9 1.00000000   0.390E-13       0.001       32.256   0.100E-07
     Final TRS4 iteration    9 1.00000000   0.390E-13
     Chemical potential (mu):       0.01623
 
 PAO| energy:  -7.7930964779989624      penalty:   1.5898685628086128E-005
 PAO|LS| adapt:  T T T
 PAO|LS| adapt: scan_steps:    0.0000000000000000       0.29401675424285917       0.58803350848571834     
 PAO|LS| adapt: energies:   -7.7916686070044259       -7.7937364820577351       -7.7930964779989624     
 PAO|LS| adapt: suggested step_size:   0.37153461562338586     
 PAO|LS| adapt: predicted energy  -7.7938305970224659     
 PAO| ======================= Iteration:        15 =============================

     Lanczos converged:  T threshold:   0.100E-02
     Est. extremal eigenvalues:    0.277E+01   0.180E+00
     Est. condition number :    0.154E+02
     NS sqrt iter    1 1.00000000   0.706E+00       0.002       39.912
     NS sqrt iter    2 1.00000000   0.329E+00       0.002       64.106
     NS sqrt iter    3 1.00000000   0.749E-01       0.002       64.757
     NS sqrt iter    4 1.00000000   0.185E-02       0.002       67.685
     NS sqrt iter    5 1.00000000   0.591E-07       0.002       44.740
     Final NS sqrt iter    5 1.00000000   0.476E-09

     Est. extremal eigenvalues     -0.93647     1.71139  converged:  T
     TRS4 it   1 1.00000000   0.882E+00       0.001       16.128   0.100E-07
     TRS4 it   2 1.00000000   0.622E+00       0.001       32.199   0.100E-07
     TRS4 it   3 1.00000000   0.423E+00       0.001       32.256   0.100E-07
     TRS4 it   4 1.00000000   0.215E+00       0.001       32.256   0.100E-07
     TRS4 it   5 1.00000000   0.696E-01       0.001       32.256   0.100E-07
     TRS4 it   6 1.00000000   0.906E-02       0.001       32.256   0.100E-07
     TRS4 it   7 1.00000000   0.201E-03       0.001       32.256   0.100E-07
     TRS4 it   8 1.00000000   0.136E-06       0.001       32.256   0.100E-07
     TRS4 it   9 1.00000000   0.785E-13       0.001       32.256   0.100E-07
     Final TRS4 iteration    9 1.00000000   0.785E-13
     Chemical potential (mu):       0.01305
 
 PAO| energy:  -7.7938274983844487      penalty:   1.5271351280742525E-005
 PAO|CG| trace_G_new    2.6298030339716176E-003
 PAO|CG| trace_G_prev    1.1791937731974110E-002
 PAO|CG| trace_G_mix    6.1777478238489474E-005
 PAO|CG| trace_D    1.6588468215870202E-002
 PAO|CG| trace_D_Gnew   3.4062364067155112E-005
 PAO|CG| beta:   0.21777807974425339     
 PAO| norm of gradient:   5.1281605220308946E-002
 PAO| energy improvement:  -2.1588913800227871E-003
 PAO| step     15                   -7.793827498  0.321E-02  0.372E+00     0.083
 PAO|LS| adapt:  T F F
 PAO|LS| adapt: scan_steps:    0.0000000000000000        0.0000000000000000        0.0000000000000000     
 PAO|LS| adapt: energies:   -7.7938274983844487        0.0000000000000000        0.0000000000000000     
 PAO| ======================= Iteration:        16 =============================

     Lanczos converged:  T threshold:   0.100E-02
     Est. extremal eigenvalues:    0.276E+01   0.181E+00
     Est. condition number :    0.152E+02
     NS sqrt iter    1 1.00000000   0.704E+00       0.002       40.413
     NS sqrt iter    2 1.00000000   0.327E+00       0.002       64.890
     NS sqrt iter    3 1.00000000   0.742E-01       0.002       64.645
     NS sqrt iter    4 1.00000000   0.179E-02       0.002       63.767
     NS sqrt iter    5 1.00000000   0.533E-07       0.002       44.547
     Final NS sqrt iter    5 1.00000000   0.420E-09

     Est. extremal eigenvalues     -0.93650     1.71048  converged:  T
     TRS4 it   1 1.00000000   0.883E+00       0.001       16.128   0.100E-07
     TRS4 it   2 1.00000000   0.621E+00       0.001       32.256   0.100E-07
     TRS4 it   3 1.00000000   0.422E+00       0.001       32.256   0.100E-07
     TRS4 it   4 1.00000000   0.214E+00       0.001       32.256   0.100E-07
     TRS4 it   5 1.00000000   0.684E-01       0.001       32.256   0.100E-07
     TRS4 it   6 1.00000000   0.876E-02       0.001       32.256   0.100E-07
     TRS4 it   7 1.00000000   0.189E-03       0.001       32.256   0.100E-07
     TRS4 it   8 1.00000000   0.122E-06       0.001       32.256   0.100E-07
     TRS4 it   9 1.00000000   0.632E-13       0.001       32.256   0.100E-07
     Final TRS4 iteration    9 1.00000000   0.632E-13
     Chemical potential (mu):       0.01388
 
 PAO| energy:  -7.7939507152294318      penalty:   1.5052322351517445E-005
 PAO|LS| adapt:  T T F
 PAO|LS| adapt: scan_steps:    0.0000000000000000       0.37153461562338586        0.0000000000000000     
 PAO|LS| adapt: energies:   -7.7938274983844487       -7.7939507152294318        0.0000000000000000     
 PAO| ======================= Iteration:        17 =============================

     Lanczos converged:  T threshold:   0.100E-02
     Est. extremal eigenvalues:    0.275E+01   0.182E+00
     Est. condition number :    0.151E+02
     NS sqrt iter    1 1.00000000   0.702E+00       0.002       40.189
     NS sqrt iter    2 1.00000000   0.326E+00       0.002       63.613
     NS sqrt iter    3 1.00000000   0.735E-01       0.002       63.877
     NS sqrt iter    4 1.00000000   0.174E-02       0.002       64.439
     NS sqrt iter    5 1.00000000   0.482E-07       0.002       44.417
     Final NS sqrt iter    5 1.00000000   0.385E-09

     Est. extremal eigenvalues     -0.93640     1.70966  converged:  T
     TRS4 it   1 1.00000000   0.883E+00       0.001       16.128   0.100E-07
     TRS4 it   2 1.00000000   0.620E+00       0.001       32.256   0.100E-07
     TRS4 it   3 1.00000000   0.421E+00       0.001       32.256   0.100E-07
     TRS4 it   4 1.00000000   0.212E+00       0.001       32.256   0.100E-07
     TRS4 it   5 1.00000000   0.673E-01       0.001       28.251   0.100E-07
     TRS4 it   6 1.00000000   0.848E-02       0.001       32.256   0.100E-07
     TRS4 it   7 1.00000000   0.178E-03       0.001       32.256   0.100E-07
     TRS4 it   8 1.00000000   0.109E-06       0.001       32.256   0.100E-07
     TRS4 it   9 1.00000000   0.508E-13       0.001       32.256   0.100E-07
     Final TRS4 iteration    9 1.00000000   0.508E-13
     Chemical potential (mu):       0.01468
 
 PAO| energy:  -7.7923661742828418      penalty:   1.4960791975324093E-005
 PAO|LS| adapt:  T T T
 PAO|LS| adapt: scan_steps:    0.0000000000000000       0.37153461562338586       0.74306923124677171     
 PAO|LS| adapt: energies:   -7.7938274983844487       -7.7939507152294318       -7.7923661742828418     
 PAO|LS| adapt: suggested step_size:   0.21257399161957594     
 PAO|LS| adapt: predicted energy  -7.7941070216550603     
 PAO| ======================= Iteration:        18 =============================

     Lanczos converged:  T threshold:   0.100E-02
     Est. extremal eigenvalues:    0.276E+01   0.181E+00
     Est. condition number :    0.153E+02
     NS sqrt iter    1 1.00000000   0.704E+00       0.002       41.346
     NS sqrt iter    2 1.00000000   0.328E+00       0.002       65.253
     NS sqrt iter    3 1.00000000   0.745E-01       0.002       65.417
     NS sqrt iter    4 1.00000000   0.182E-02       0.002       65.394
     NS sqrt iter    5 1.00000000   0.557E-07       0.002       46.200
     Final NS sqrt iter    5 1.00000000   0.440E-09

     Est. extremal eigenvalues     -0.93650     1.71086  converged:  T
     TRS4 it   1 1.00000000   0.882E+00       0.001       16.128   0.100E-07
     TRS4 it   2 1.00000000   0.621E+00       0.001       32.256   0.100E-07
     TRS4 it   3 1.00000000   0.423E+00       0.001       32.256   0.100E-07
     TRS4 it   4 1.00000000   0.214E+00       0.001       32.256   0.100E-07
     TRS4 it   5 1.00000000   0.689E-01       0.001       32.256   0.100E-07
     TRS4 it   6 1.00000000   0.889E-02       0.001       32.256   0.100E-07
     TRS4 it   7 1.00000000   0.194E-03       0.001       32.256   0.100E-07
     TRS4 it   8 1.00000000   0.128E-06       0.001       32.256   0.100E-07
     TRS4 it   9 1.00000000   0.685E-13       0.001       32.256   0.100E-07
     Final TRS4 iteration    9 1.00000000   0.685E-13
     Chemical potential (mu):       0.01353
 
 PAO| energy:  -7.7941065597605341      penalty:   1.5130712281361711E-005
 PAO|CG| trace_G_new    7.2748217363472769E-004
 PAO|CG| trace_G_prev    2.6298030339716176E-003
 PAO|CG| trace_G_mix    1.5265017002511109E-006
 PAO|CG| trace_D    3.4017130876857942E-003
 PAO|CG| trace_D_Gnew  -1.7279070363323653E-006
 PAO|CG| beta:   0.27604944650098517     
 PAO| norm of gradient:   2.6971877458470104E-002
 PAO| energy improvement:  -2.7906137608546544E-004
 PAO| step     18                   -7.794106560  0.169E-02  0.213E+00     0.081
 PAO|LS| adapt:  T F F
 PAO|LS| adapt: scan_steps:    0.0000000000000000        0.0000000000000000        0.0000000000000000     
 PAO|LS| adapt: energies:   -7.7941065597605341        0.0000000000000000        0.0000000000000000     
 PAO| ======================= Iteration:        19 =============================

     Lanczos converged:  T threshold:   0.100E-02
     Est. extremal eigenvalues:    0.276E+01   0.181E+00
     Est. condition number :    0.153E+02
     NS sqrt iter    1 1.00000000   0.704E+00       0.002       41.436
     NS sqrt iter    2 1.00000000   0.328E+00       0.002       65.161
     NS sqrt iter    3 1.00000000   0.747E-01       0.002       65.758
     NS sqrt iter    4 1.00000000   0.183E-02       0.002       66.268
     NS sqrt iter    5 1.00000000   0.562E-07       0.002       46.537
     Final NS sqrt iter    5 1.00000000   0.433E-09

     Est. extremal eigenvalues     -0.93650     1.71111  converged:  T
     TRS4 it   1 1.00000000   0.883E+00       0.001       16.128   0.100E-07
     TRS4 it   2 1.00000000   0.621E+00       0.001       32.256   0.100E-07
     TRS4 it   3 1.00000000   0.422E+00       0.001       32.256   0.100E-07
     TRS4 it   4 1.00000000   0.214E+00       0.001       32.256   0.100E-07
     TRS4 it   5 1.00000000   0.688E-01       0.001       32.256   0.100E-07
     TRS4 it   6 1.00000000   0.888E-02       0.001       32.256   0.100E-07
     TRS4 it   7 1.00000000   0.194E-03       0.001       32.256   0.100E-07
     TRS4 it   8 1.00000000   0.129E-06       0.001       32.256   0.100E-07
     TRS4 it   9 1.00000000   0.711E-13       0.001       32.256   0.100E-07
     Final TRS4 iteration    9 1.00000000   0.711E-13
     Chemical potential (mu):       0.01325
 
 PAO| energy:  -7.7942246145496954      penalty:   1.4841286537744399E-005
 PAO|LS| adapt:  T T F
 PAO|LS| adapt: scan_steps:    0.0000000000000000       0.21257399161957594        0.0000000000000000     
 PAO|LS| adapt: energies:   -7.7941065597605341       -7.7942246145496954        0.0000000000000000     
 PAO| ======================= Iteration:        20 =============================

     Lanczos converged:  T threshold:   0.100E-02
     Est. extremal eigenvalues:    0.276E+01   0.181E+00
     Est. condition number :    0.153E+02
     NS sqrt iter    1 1.00000000   0.704E+00       0.002       42.371
     NS sqrt iter    2 1.00000000   0.328E+00       0.002       65.726
     NS sqrt iter    3 1.00000000   0.749E-01       0.002       65.878
     NS sqrt iter    4 1.00000000   0.184E-02       0.002       66.122
     NS sqrt iter    5 1.00000000   0.567E-07       0.001       48.049
     Final NS sqrt iter    5 1.00000000   0.468E-09

     Est. extremal eigenvalues     -0.93650     1.71136  converged:  T
     TRS4 it   1 1.00000000   0.883E+00       0.001       16.128   0.100E-07
     TRS4 it   2 1.00000000   0.621E+00       0.001       32.256   0.100E-07
     TRS4 it   3 1.00000000   0.422E+00       0.001       32.256   0.100E-07
     TRS4 it   4 1.00000000   0.214E+00       0.001       32.256   0.100E-07
     TRS4 it   5 1.00000000   0.687E-01       0.001       32.256   0.100E-07
     TRS4 it   6 1.00000000   0.887E-02       0.001       32.256   0.100E-07
     TRS4 it   7 1.00000000   0.195E-03       0.001       32.256   0.100E-07
     TRS4 it   8 1.00000000   0.131E-06       0.001       32.256   0.100E-07
     TRS4 it   9 1.00000000   0.744E-13       0.001       32.256   0.100E-07
     Final TRS4 iteration    9 1.00000000   0.744E-13
     Chemical potential (mu):       0.01297
 
 PAO| energy:  -7.7942689033337702      penalty:   1.4564299242116260E-005
 PAO|LS| adapt:  T T F
 PAO|LS| adapt: scan_steps:    0.0000000000000000       0.42514798323915187        0.0000000000000000     
 PAO|LS| adapt: energies:   -7.7941065597605341       -7.7942689033337702        0.0000000000000000     
 PAO| ======================= Iteration:        21 =============================

     Lanczos converged:  T threshold:   0.100E-02
     Est. extremal eigenvalues:    0.277E+01   0.180E+00
     Est. condition number :    0.153E+02
     NS sqrt iter    1 1.00000000   0.704E+00       0.002       41.790
     NS sqrt iter    2 1.00000000   0.329E+00       0.002       65.326
     NS sqrt iter    3 1.00000000   0.753E-01       0.002       63.976
     NS sqrt iter    4 1.00000000   0.186E-02       0.002       65.659
     NS sqrt iter    5 1.00000000   0.578E-07       0.002       46.710
     Final NS sqrt iter    5 1.00000000   0.462E-09

     Est. extremal eigenvalues     -0.93649     1.71187  converged:  T
     TRS4 it   1 1.00000000   0.883E+00       0.001       16.128   0.100E-07
     TRS4 it   2 1.00000000   0.621E+00       0.001       32.256   0.100E-07
     TRS4 it   3 1.00000000   0.422E+00       0.001       32.256   0.100E-07
     TRS4 it   4 1.00000000   0.214E+00       0.001       32.256   0.100E-07
     TRS4 it   5 1.00000000   0.685E-01       0.001       32.256   0.100E-07
     TRS4 it   6 1.00000000   0.886E-02       0.001       32.256   0.100E-07
     TRS4 it   7 1.00000000   0.196E-03       0.001       32.256   0.100E-07
     TRS4 it   8 1.00000000   0.136E-06       0.001       32.256   0.100E-07
     TRS4 it   9 1.00000000   0.793E-13       0.001       32.256   0.100E-07
     Final TRS4 iteration    9 1.00000000   0.793E-13
     Chemical potential (mu):       0.01240
 
 PAO| energy:  -7.7941337865168610      penalty:   1.4047063108845196E-005
 PAO|LS| Need extra step
 PAO|LS| adapt:  T T T
 PAO|LS| adapt: scan_steps:    0.0000000000000000       0.42514798323915187       0.85029596647830374     
 PAO|LS| adapt: energies:   -7.7941065597605341       -7.7942689033337702       -7.7941337865168610     
 PAO|LS| adapt: suggested step_size:   0.44460502848950989     
 PAO|LS| adapt: predicted energy  -7.7942692148442623     
 PAO| ======================= Iteration:        22 =============================

     Lanczos converged:  T threshold:   0.100E-02
     Est. extremal eigenvalues:    0.276E+01   0.181E+00
     Est. condition number :    0.153E+02
     NS sqrt iter    1 1.00000000   0.704E+00       0.002       42.556
     NS sqrt iter    2 1.00000000   0.328E+00       0.002       67.065
     NS sqrt iter    3 1.00000000   0.749E-01       0.002       66.869
     NS sqrt iter    4 1.00000000   0.184E-02       0.002       67.740
     NS sqrt iter    5 1.00000000   0.567E-07       0.001       47.680
     Final NS sqrt iter    5 1.00000000   0.469E-09

     Est. extremal eigenvalues     -0.93650     1.71138  converged:  T
     TRS4 it   1 1.00000000   0.883E+00       0.001       16.128   0.100E-07
     TRS4 it   2 1.00000000   0.621E+00       0.001       32.256   0.100E-07
     TRS4 it   3 1.00000000   0.422E+00       0.001       32.256   0.100E-07
     TRS4 it   4 1.00000000   0.214E+00       0.001       32.256   0.100E-07
     TRS4 it   5 1.00000000   0.687E-01       0.001       32.256   0.100E-07
     TRS4 it   6 1.00000000   0.887E-02       0.001       32.256   0.100E-07
     TRS4 it   7 1.00000000   0.195E-03       0.001       32.256   0.100E-07
     TRS4 it   8 1.00000000   0.132E-06       0.001       32.256   0.100E-07
     TRS4 it   9 1.00000000   0.743E-13       0.001       32.256   0.100E-07
     Final TRS4 iteration    9 1.00000000   0.743E-13
     Chemical potential (mu):       0.01294
 
 PAO| energy:  -7.7942692508774991      penalty:   1.4539561608096868E-005
 PAO|CG| trace_G_new    2.2146295882561351E-004
 PAO|CG| trace_G_prev    7.2748217363472769E-004
 PAO|CG| trace_G_mix    2.9876346245920517E-006
 PAO|CG| trace_D    9.8765790163215746E-004
 PAO|CG| trace_D_Gnew  -1.8452715954470050E-006
 PAO|CG| beta:   0.30031708283579051     
 PAO| norm of gradient:   1.4881631591516217E-002
 PAO| energy improvement:  -1.6269111696498584E-004
 PAO| step     22                   -7.794269251  0.930E-03  0.445E+00     0.103
 PAO|LS| adapt:  T F F
 PAO|LS| adapt: scan_steps:    0.0000000000000000        0.0000000000000000        0.0000000000000000     
 PAO|LS| adapt: energies:   -7.7942692508774991        0.0000000000000000        0.0000000000000000     
 PAO| ======================= Iteration:        23 =============================

     Lanczos converged:  T threshold:   0.100E-02
     Est. extremal eigenvalues:    0.277E+01   0.181E+00
     Est. condition number :    0.153E+02
     NS sqrt iter    1 1.00000000   0.704E+00       0.002       42.051
     NS sqrt iter    2 1.00000000   0.328E+00       0.002       66.744
     NS sqrt iter    3 1.00000000   0.750E-01       0.002       67.059
     NS sqrt iter    4 1.00000000   0.184E-02       0.002       67.773
     NS sqrt iter    5 1.00000000   0.568E-07       0.001       47.959
     Final NS sqrt iter    5 1.00000000   0.469E-09

     Est. extremal eigenvalues     -0.93650     1.71135  converged:  T
     TRS4 it   1 1.00000000   0.883E+00       0.001       16.128   0.100E-07
     TRS4 it   2 1.00000000   0.621E+00       0.001       32.256   0.100E-07
     TRS4 it   3 1.00000000   0.422E+00       0.001       32.256   0.100E-07
     TRS4 it   4 1.00000000   0.214E+00       0.001       32.256   0.100E-07
     TRS4 it   5 1.00000000   0.688E-01       0.001       32.256   0.100E-07
     TRS4 it   6 1.00000000   0.891E-02       0.001       32.256   0.100E-07
     TRS4 it   7 1.00000000   0.197E-03       0.001       32.256   0.100E-07
     TRS4 it   8 1.00000000   0.135E-06       0.001       32.256   0.100E-07
     TRS4 it   9 1.00000000   0.788E-13       0.001       32.256   0.100E-07
     Final TRS4 iteration    9 1.00000000   0.788E-13
     Chemical potential (mu):       0.01262
 
 PAO| energy:  -7.7943183101750861      penalty:   1.3857122067974303E-005
 PAO|LS| adapt:  T T F
 PAO|LS| adapt: scan_steps:    0.0000000000000000       0.44460502848950989        0.0000000000000000     
 PAO|LS| adapt: energies:   -7.7942692508774991       -7.7943183101750861        0.0000000000000000     
 PAO| ======================= Iteration:        24 =============================

     Lanczos converged:  T threshold:   0.100E-02
     Est. extremal eigenvalues:    0.277E+01   0.181E+00
     Est. condition number :    0.153E+02
     NS sqrt iter    1 1.00000000   0.704E+00       0.002       42.000
     NS sqrt iter    2 1.00000000   0.329E+00       0.002       66.124
     NS sqrt iter    3 1.00000000   0.750E-01       0.002       66.355
     NS sqrt iter    4 1.00000000   0.184E-02       0.002       65.607
     NS sqrt iter    5 1.00000000   0.569E-07       0.002       44.383
     Final NS sqrt iter    5 1.00000000   0.473E-09

     Est. extremal eigenvalues     -0.93650     1.71132  converged:  T
     TRS4 it   1 1.00000000   0.882E+00       0.001       16.128   0.100E-07
     TRS4 it   2 1.00000000   0.621E+00       0.001       32.256   0.100E-07
     TRS4 it   3 1.00000000   0.422E+00       0.001       32.256   0.100E-07
     TRS4 it   4 1.00000000   0.214E+00       0.001       32.256   0.100E-07
     TRS4 it   5 1.00000000   0.690E-01       0.001       32.256   0.100E-07
     TRS4 it   6 1.00000000   0.896E-02       0.001       32.256   0.100E-07
     TRS4 it   7 1.00000000   0.200E-03       0.001       32.256   0.100E-07
     TRS4 it   8 1.00000000   0.139E-06       0.001       32.256   0.100E-07
     TRS4 it   9 1.00000000   0.839E-13       0.001       32.256   0.100E-07
     Final TRS4 iteration    9 1.00000000   0.839E-13
     Chemical potential (mu):       0.01229
 
 PAO| energy:  -7.7942674405941821      penalty:   1.3202968631474446E-005
 PAO|LS| adapt:  T T T
 PAO|LS| adapt: scan_steps:    0.0000000000000000       0.44460502848950989       0.88921005697901978     
 PAO|LS| adapt: energies:   -7.7942692508774991       -7.7943183101750861       -7.7942674405941821     
 PAO|LS| adapt: suggested step_size:   0.44057785897708063     
 PAO|LS| adapt: predicted energy  -7.7943183142744088     
 PAO| ======================= Iteration:        25 =============================

     Lanczos converged:  T threshold:   0.100E-02
     Est. extremal eigenvalues:    0.277E+01   0.181E+00
     Est. condition number :    0.153E+02
     NS sqrt iter    1 1.00000000   0.704E+00       0.002       41.910
     NS sqrt iter    2 1.00000000   0.328E+00       0.002       64.156
     NS sqrt iter    3 1.00000000   0.750E-01       0.002       64.005
     NS sqrt iter    4 1.00000000   0.184E-02       0.002       65.203
     NS sqrt iter    5 1.00000000   0.568E-07       0.002       46.780
     Final NS sqrt iter    5 1.00000000   0.469E-09

     Est. extremal eigenvalues     -0.93650     1.71135  converged:  T
     TRS4 it   1 1.00000000   0.883E+00       0.001       16.128   0.100E-07
     TRS4 it   2 1.00000000   0.621E+00       0.001       32.256   0.100E-07
     TRS4 it   3 1.00000000   0.422E+00       0.001       32.256   0.100E-07
     TRS4 it   4 1.00000000   0.214E+00       0.001       32.256   0.100E-07
     TRS4 it   5 1.00000000   0.688E-01       0.001       32.256   0.100E-07
     TRS4 it   6 1.00000000   0.891E-02       0.001       32.256   0.100E-07
     TRS4 it   7 1.00000000   0.197E-03       0.001       32.256   0.100E-07
     TRS4 it   8 1.00000000   0.135E-06       0.001       32.256   0.100E-07
     TRS4 it   9 1.00000000   0.786E-13       0.001       29.180   0.100E-07
     Final TRS4 iteration    9 1.00000000   0.786E-13
     Chemical potential (mu):       0.01262
 
 PAO| energy:  -7.7943183128516091      penalty:   1.3863175644926029E-005
 PAO|CG| trace_G_new    7.8597362856644450E-005
 PAO|CG| trace_G_prev    2.2146295882561351E-004
 PAO|CG| trace_G_mix    6.9166010458888758E-007
 PAO|CG| trace_D    3.1164850405925189E-004
 PAO|CG| trace_D_Gnew  -3.5333550960960837E-007
 PAO|CG| beta:   0.35177757565047624     
 PAO| norm of gradient:   8.8655153745647777E-003
 PAO| energy improvement:  -4.9061974110031770E-005
 PAO| step     25                   -7.794318313  0.554E-03  0.441E+00     0.080
 PAO|LS| adapt:  T F F
 PAO|LS| adapt: scan_steps:    0.0000000000000000        0.0000000000000000        0.0000000000000000     
 PAO|LS| adapt: energies:   -7.7943183128516091        0.0000000000000000        0.0000000000000000     
 PAO| ======================= Iteration:        26 =============================

     Lanczos converged:  T threshold:   0.100E-02
     Est. extremal eigenvalues:    0.276E+01   0.181E+00
     Est. condition number :    0.153E+02
     NS sqrt iter    1 1.00000000   0.704E+00       0.002       41.373
     NS sqrt iter    2 1.00000000   0.328E+00       0.002       64.620
     NS sqrt iter    3 1.00000000   0.749E-01       0.002       64.259
     NS sqrt iter    4 1.00000000   0.183E-02       0.002       64.615
     NS sqrt iter    5 1.00000000   0.564E-07       0.002       45.894
     Final NS sqrt iter    5 1.00000000   0.470E-09

     Est. extremal eigenvalues     -0.93650     1.71116  converged:  T
     TRS4 it   1 1.00000000   0.883E+00       0.001       16.128   0.100E-07
     TRS4 it   2 1.00000000   0.621E+00       0.001       32.256   0.100E-07
     TRS4 it   3 1.00000000   0.422E+00       0.001       31.475   0.100E-07
     TRS4 it   4 1.00000000   0.214E+00       0.001       32.256   0.100E-07
     TRS4 it   5 1.00000000   0.688E-01       0.001       32.256   0.100E-07
     TRS4 it   6 1.00000000   0.890E-02       0.001       32.256   0.100E-07
     TRS4 it   7 1.00000000   0.196E-03       0.001       32.256   0.100E-07
     TRS4 it   8 1.00000000   0.134E-06       0.001       32.256   0.100E-07
     TRS4 it   9 1.00000000   0.767E-13       0.001       32.256   0.100E-07
     Final TRS4 iteration    9 1.00000000   0.767E-13
     Chemical potential (mu):       0.01272
 
 PAO| energy:  -7.7943221200724517      penalty:   1.3143872026288423E-005
 PAO|LS| adapt:  T T F
 PAO|LS| adapt: scan_steps:    0.0000000000000000       0.44057785897708063        0.0000000000000000     
 PAO|LS| adapt: energies:   -7.7943183128516091       -7.7943221200724517        0.0000000000000000     
 PAO| ======================= Iteration:        27 =============================

     Lanczos converged:  T threshold:   0.100E-02
     Est. extremal eigenvalues:    0.276E+01   0.181E+00
     Est. condition number :    0.153E+02
     NS sqrt iter    1 1.00000000   0.704E+00       0.002       40.888
     NS sqrt iter    2 1.00000000   0.328E+00       0.002       63.794
     NS sqrt iter    3 1.00000000   0.748E-01       0.002       64.583
     NS sqrt iter    4 1.00000000   0.183E-02       0.002       65.174
     NS sqrt iter    5 1.00000000   0.561E-07       0.002       41.765
     Final NS sqrt iter    5 1.00000000   0.467E-09

     Est. extremal eigenvalues     -0.93650     1.71096  converged:  T
     TRS4 it   1 1.00000000   0.883E+00       0.001       16.128   0.100E-07
     TRS4 it   2 1.00000000   0.621E+00       0.001       32.256   0.100E-07
     TRS4 it   3 1.00000000   0.422E+00       0.001       32.256   0.100E-07
     TRS4 it   4 1.00000000   0.214E+00       0.001       32.256   0.100E-07
     TRS4 it   5 1.00000000   0.687E-01       0.001       32.256   0.100E-07
     TRS4 it   6 1.00000000   0.889E-02       0.001       32.256   0.100E-07
     TRS4 it   7 1.00000000   0.196E-03       0.001       32.256   0.100E-07
     TRS4 it   8 1.00000000   0.133E-06       0.001       32.256   0.100E-07
     TRS4 it   9 1.00000000   0.760E-13       0.001       32.256   0.100E-07
     Final TRS4 iteration    9 1.00000000   0.760E-13
     Chemical potential (mu):       0.01282
 
 PAO| energy:  -7.7942640728241699      penalty:   1.2447902195244734E-005
 PAO|LS| adapt:  T T T
 PAO|LS| adapt: scan_steps:    0.0000000000000000       0.44057785897708063       0.88115571795416126     
 PAO|LS| adapt: energies:   -7.7943183128516091       -7.7943221200724517       -7.7942640728241699     
 PAO|LS| adapt: suggested step_size:   0.24740705419681755     
 PAO|LS| adapt: predicted energy  -7.7943280654403013     
 PAO| ======================= Iteration:        28 =============================

     Lanczos converged:  T threshold:   0.100E-02
     Est. extremal eigenvalues:    0.277E+01   0.181E+00
     Est. condition number :    0.153E+02
     NS sqrt iter    1 1.00000000   0.704E+00       0.002       41.017
     NS sqrt iter    2 1.00000000   0.328E+00       0.002       64.207
     NS sqrt iter    3 1.00000000   0.749E-01       0.002       64.346
     NS sqrt iter    4 1.00000000   0.184E-02       0.002       65.728
     NS sqrt iter    5 1.00000000   0.566E-07       0.002       46.550
     Final NS sqrt iter    5 1.00000000   0.471E-09

     Est. extremal eigenvalues     -0.93650     1.71124  converged:  T
     TRS4 it   1 1.00000000   0.883E+00       0.001       16.128   0.100E-07
     TRS4 it   2 1.00000000   0.621E+00       0.001       32.256   0.100E-07
     TRS4 it   3 1.00000000   0.422E+00       0.001       32.256   0.100E-07
     TRS4 it   4 1.00000000   0.214E+00       0.001       32.256   0.100E-07
     TRS4 it   5 1.00000000   0.688E-01       0.001       32.256   0.100E-07
     TRS4 it   6 1.00000000   0.891E-02       0.001       32.256   0.100E-07
     TRS4 it   7 1.00000000   0.197E-03       0.001       32.256   0.100E-07
     TRS4 it   8 1.00000000   0.134E-06       0.001       32.256   0.100E-07
     TRS4 it   9 1.00000000   0.774E-13       0.001       32.256   0.100E-07
     Final TRS4 iteration    9 1.00000000   0.774E-13
     Chemical potential (mu):       0.01267
 
 PAO| energy:  -7.7943280564622466      penalty:   1.3456358814558135E-005
 PAO|CG| trace_G_new    3.0643562302275588E-005
 PAO|CG| trace_G_prev    7.8597362856644450E-005
 PAO|CG| trace_G_mix    4.5373683548626583E-008
 PAO|CG| trace_D    1.1741166551566446E-004
 PAO|CG| trace_D_Gnew  -2.3846856588395906E-008
 PAO|CG| beta:   0.38930299321283474     
 PAO| norm of gradient:   5.5356627699197488E-003
 PAO| energy improvement:  -9.7436106374360065E-006
 PAO| step     28                   -7.794328056  0.346E-03  0.247E+00     0.081
 PAO|LS| adapt:  T F F
 PAO|LS| adapt: scan_steps:    0.0000000000000000        0.0000000000000000        0.0000000000000000     
 PAO|LS| adapt: energies:   -7.7943280564622466        0.0000000000000000        0.0000000000000000     
 PAO| ======================= Iteration:        29 =============================

     Lanczos converged:  T threshold:   0.100E-02
     Est. extremal eigenvalues:    0.276E+01   0.181E+00
     Est. condition number :    0.153E+02
     NS sqrt iter    1 1.00000000   0.704E+00       0.002       41.089
     NS sqrt iter    2 1.00000000   0.328E+00       0.002       65.071
     NS sqrt iter    3 1.00000000   0.748E-01       0.002       65.422
     NS sqrt iter    4 1.00000000   0.183E-02       0.002       64.753
     NS sqrt iter    5 1.00000000   0.565E-07       0.002       45.982
     Final NS sqrt iter    5 1.00000000   0.470E-09

     Est. extremal eigenvalues     -0.93650     1.71121  converged:  T
     TRS4 it   1 1.00000000   0.883E+00       0.001       16.128   0.100E-07
     TRS4 it   2 1.00000000   0.621E+00       0.001       32.256   0.100E-07
     TRS4 it   3 1.00000000   0.422E+00       0.001       32.256   0.100E-07
     TRS4 it   4 1.00000000   0.214E+00       0.001       32.256   0.100E-07
     TRS4 it   5 1.00000000   0.687E-01       0.001       32.256   0.100E-07
     TRS4 it   6 1.00000000   0.889E-02       0.001       32.256   0.100E-07
     TRS4 it   7 1.00000000   0.196E-03       0.001       32.256   0.100E-07
     TRS4 it   8 1.00000000   0.133E-06       0.001       32.256   0.100E-07
     TRS4 it   9 1.00000000   0.759E-13       0.001       32.256   0.100E-07
     Final TRS4 iteration    9 1.00000000   0.759E-13
     Chemical potential (mu):       0.01279
 
 PAO| energy:  -7.7943347430959227      penalty:   1.3031822724088441E-005
 PAO|LS| adapt:  T T F
 PAO|LS| adapt: scan_steps:    0.0000000000000000       0.24740705419681755        0.0000000000000000     
 PAO|LS| adapt: energies:   -7.7943280564622466       -7.7943347430959227        0.0000000000000000     
 PAO| ======================= Iteration:        30 =============================

     Lanczos converged:  T threshold:   0.100E-02
     Est. extremal eigenvalues:    0.276E+01   0.181E+00
     Est. condition number :    0.153E+02
     NS sqrt iter    1 1.00000000   0.704E+00       0.002       42.432
     NS sqrt iter    2 1.00000000   0.328E+00       0.002       66.928
     NS sqrt iter    3 1.00000000   0.748E-01       0.002       66.457
     NS sqrt iter    4 1.00000000   0.183E-02       0.002       66.058
     NS sqrt iter    5 1.00000000   0.564E-07       0.005       14.109
     Final NS sqrt iter    5 1.00000000   0.469E-09

     Est. extremal eigenvalues     -0.93651     1.71119  converged:  T
     TRS4 it   1 1.00000000   0.883E+00       0.001       16.128   0.100E-07
     TRS4 it   2 1.00000000   0.621E+00       0.001       32.256   0.100E-07
     TRS4 it   3 1.00000000   0.422E+00       0.001       32.256   0.100E-07
     TRS4 it   4 1.00000000   0.214E+00       0.001       32.256   0.100E-07
     TRS4 it   5 1.00000000   0.687E-01       0.001       32.256   0.100E-07
     TRS4 it   6 1.00000000   0.887E-02       0.001       32.256   0.100E-07
     TRS4 it   7 1.00000000   0.195E-03       0.001       32.256   0.100E-07
     TRS4 it   8 1.00000000   0.132E-06       0.001       32.256   0.100E-07
     TRS4 it   9 1.00000000   0.741E-13       0.001       32.256   0.100E-07
     Final TRS4 iteration    9 1.00000000   0.741E-13
     Chemical potential (mu):       0.01291
 
 PAO| energy:  -7.7943396354852972      penalty:   1.2614851656992999E-005
 PAO|LS| adapt:  T T F
 PAO|LS| adapt: scan_steps:    0.0000000000000000       0.49481410839363510        0.0000000000000000     
 PAO|LS| adapt: energies:   -7.7943280564622466       -7.7943396354852972        0.0000000000000000     
 PAO| ======================= Iteration:        31 =============================

     Lanczos converged:  T threshold:   0.100E-02
     Est. extremal eigenvalues:    0.276E+01   0.181E+00
     Est. condition number :    0.153E+02
     NS sqrt iter    1 1.00000000   0.703E+00       0.002       42.743
     NS sqrt iter    2 1.00000000   0.328E+00       0.002       70.204
     NS sqrt iter    3 1.00000000   0.747E-01       0.002       71.224
     NS sqrt iter    4 1.00000000   0.183E-02       0.002       69.543
     NS sqrt iter    5 1.00000000   0.562E-07       0.002       46.528
     Final NS sqrt iter    5 1.00000000   0.475E-09

     Est. extremal eigenvalues     -0.93651     1.71112  converged:  T
     TRS4 it   1 1.00000000   0.883E+00       0.001       16.128   0.100E-07
     TRS4 it   2 1.00000000   0.621E+00       0.001       32.256   0.100E-07
     TRS4 it   3 1.00000000   0.422E+00       0.001       32.256   0.100E-07
     TRS4 it   4 1.00000000   0.214E+00       0.001       32.256   0.100E-07
     TRS4 it   5 1.00000000   0.685E-01       0.001       32.256   0.100E-07
     TRS4 it   6 1.00000000   0.883E-02       0.001       32.256   0.100E-07
     TRS4 it   7 1.00000000   0.193E-03       0.001       32.256   0.100E-07
     TRS4 it   8 1.00000000   0.129E-06       0.001       32.256   0.100E-07
     TRS4 it   9 1.00000000   0.704E-13       0.001       32.256   0.100E-07
     Final TRS4 iteration    9 1.00000000   0.704E-13
     Chemical potential (mu):       0.01315
 
 PAO| energy:  -7.7943440391314143      penalty:   1.1803457791388536E-005
 PAO|LS| Need extra step
 PAO|LS| adapt:  T T F
 PAO|LS| adapt: scan_steps:    0.0000000000000000       0.98962821678727020        0.0000000000000000     
 PAO|LS| adapt: energies:   -7.7943280564622466       -7.7943440391314143        0.0000000000000000     
 PAO| ======================= Iteration:        32 =============================

     Lanczos converged:  T threshold:   0.100E-02
     Est. extremal eigenvalues:    0.276E+01   0.180E+00
     Est. condition number :    0.153E+02
     NS sqrt iter    1 1.00000000   0.703E+00       0.002       41.867
     NS sqrt iter    2 1.00000000   0.327E+00       0.002       65.094
     NS sqrt iter    3 1.00000000   0.744E-01       0.002       66.381
     NS sqrt iter    4 1.00000000   0.182E-02       0.002       65.193
     NS sqrt iter    5 1.00000000   0.559E-07       0.002       46.771
     Final NS sqrt iter    5 1.00000000   0.468E-09

     Est. extremal eigenvalues     -0.93651     1.71098  converged:  T
     TRS4 it   1 1.00000000   0.883E+00       0.001       16.128   0.100E-07
     TRS4 it   2 1.00000000   0.621E+00       0.001       32.256   0.100E-07
     TRS4 it   3 1.00000000   0.422E+00       0.001       32.212   0.100E-07
     TRS4 it   4 1.00000000   0.213E+00       0.001       32.256   0.100E-07
     TRS4 it   5 1.00000000   0.682E-01       0.001       32.256   0.100E-07
     TRS4 it   6 1.00000000   0.875E-02       0.001       32.256   0.100E-07
     TRS4 it   7 1.00000000   0.189E-03       0.001       32.256   0.100E-07
     TRS4 it   8 1.00000000   0.123E-06       0.001       32.256   0.100E-07
     TRS4 it   9 1.00000000   0.649E-13       0.001       32.256   0.100E-07
     Final TRS4 iteration    9 1.00000000   0.649E-13
     Chemical potential (mu):       0.01363
 
 PAO| energy:  -7.7943313127526777      penalty:   1.0269844768086868E-005
 PAO|LS| Need extra step
 PAO|LS| adapt:  T T T
 PAO|LS| adapt: scan_steps:    0.0000000000000000       0.98962821678727020        1.9792564335745404     
 PAO|LS| adapt: energies:   -7.7943280564622466       -7.7943440391314143       -7.7943313127526777     
 PAO|LS| adapt: suggested step_size:    1.0457519326169902     
 PAO|LS| adapt: predicted energy  -7.7943440852990342     
 PAO| ======================= Iteration:        33 =============================

     Lanczos converged:  T threshold:   0.100E-02
     Est. extremal eigenvalues:    0.276E+01   0.181E+00
     Est. condition number :    0.153E+02
     NS sqrt iter    1 1.00000000   0.703E+00       0.002       42.046
     NS sqrt iter    2 1.00000000   0.328E+00       0.002       63.176
     NS sqrt iter    3 1.00000000   0.746E-01       0.002       65.586
     NS sqrt iter    4 1.00000000   0.183E-02       0.003       31.984
     NS sqrt iter    5 1.00000000   0.562E-07       0.002       46.779
     Final NS sqrt iter    5 1.00000000   0.475E-09

     Est. extremal eigenvalues     -0.93651     1.71111  converged:  T
     TRS4 it   1 1.00000000   0.883E+00       0.001       16.128   0.100E-07
     TRS4 it   2 1.00000000   0.621E+00       0.001       32.256   0.100E-07
     TRS4 it   3 1.00000000   0.422E+00       0.001       32.256   0.100E-07
     TRS4 it   4 1.00000000   0.214E+00       0.001       32.256   0.100E-07
     TRS4 it   5 1.00000000   0.685E-01       0.001       32.256   0.100E-07
     TRS4 it   6 1.00000000   0.882E-02       0.001       32.256   0.100E-07
[...]
 PAO| ======================= Iteration:       407 =============================

     Lanczos converged:  T threshold:   0.100E-02
     Est. extremal eigenvalues:    0.248E+01   0.191E+00
     Est. condition number :    0.130E+02
     NS sqrt iter    1 1.00000000   0.630E+00       0.002       41.685
     NS sqrt iter    2 1.00000000   0.273E+00       0.002       64.974
     NS sqrt iter    3 1.00000000   0.480E-01       0.002       65.849
     NS sqrt iter    4 1.00000000   0.734E-03       0.002       64.237
     NS sqrt iter    5 1.00000000   0.519E-08       0.001       27.689
     Final NS sqrt iter    5 1.00000000   0.310E-09

     Est. extremal eigenvalues     -0.93619     1.62569  converged:  T
     TRS4 it   1 1.00000000   0.881E+00       0.001       16.128   0.100E-07
     TRS4 it   2 1.00000000   0.632E+00       0.001       32.256   0.100E-07
     TRS4 it   3 1.00000000   0.453E+00       0.001       32.256   0.100E-07
     TRS4 it   4 1.00000000   0.275E+00       0.001       32.256   0.100E-07
     TRS4 it   5 1.00000000   0.135E+00       0.001       32.256   0.100E-07
     TRS4 it   6 1.00000000   0.410E-01       0.001       32.256   0.100E-07
     TRS4 it   7 1.00000000   0.526E-02       0.001       32.256   0.100E-07
     TRS4 it   8 1.00000000   0.117E-03       0.001       32.256   0.100E-07
     TRS4 it   9 1.00000000   0.611E-07       0.001       32.256   0.100E-07
     Final TRS4 iteration    9 1.00000000   0.611E-07
     Chemical potential (mu):      -0.07242
 
 PAO| energy:  -7.7933708725043891      penalty:   2.6469533656230764E-008
 PAO|LS| Need extra step
 PAO|LS| adapt:  T T T
 PAO|LS| adapt: scan_steps:    0.0000000000000000       0.20000000000000001       0.40000000000000002     
 PAO|LS| adapt: energies:   -7.7933708685183873       -7.7933708736023091       -7.7933708725043891     
 PAO|LS| adapt: suggested step_size:   0.26447919472826320     
 PAO|LS| adapt: predicted energy  -7.7933708739235765     
 PAO| ======================= Iteration:       408 =============================

     Lanczos converged:  T threshold:   0.100E-02
     Est. extremal eigenvalues:    0.248E+01   0.191E+00
     Est. condition number :    0.130E+02
     NS sqrt iter    1 1.00000000   0.630E+00       0.002       37.273
     NS sqrt iter    2 1.00000000   0.273E+00       0.002       64.108
     NS sqrt iter    3 1.00000000   0.480E-01       0.002       63.248
     NS sqrt iter    4 1.00000000   0.734E-03       0.002       64.913
     NS sqrt iter    5 1.00000000   0.519E-08       0.001       27.224
     Final NS sqrt iter    5 1.00000000   0.310E-09

     Est. extremal eigenvalues     -0.93619     1.62569  converged:  T
     TRS4 it   1 1.00000000   0.881E+00       0.001       16.128   0.100E-07
     TRS4 it   2 1.00000000   0.632E+00       0.001       32.256   0.100E-07
     TRS4 it   3 1.00000000   0.453E+00       0.001       32.256   0.100E-07
     TRS4 it   4 1.00000000   0.275E+00       0.001       32.256   0.100E-07
     TRS4 it   5 1.00000000   0.135E+00       0.001       32.256   0.100E-07
     TRS4 it   6 1.00000000   0.410E-01       0.001       32.256   0.100E-07
     TRS4 it   7 1.00000000   0.526E-02       0.001       32.256   0.100E-07
     TRS4 it   8 1.00000000   0.117E-03       0.001       32.256   0.100E-07
     TRS4 it   9 1.00000000   0.611E-07       0.001       32.256   0.100E-07
     Final TRS4 iteration    9 1.00000000   0.611E-07
     Chemical potential (mu):      -0.07242
 
 PAO| energy:  -7.7933708739235854      penalty:   2.6761792269893891E-008
 PAO|CG| warming up with steepest descent
 PAO|CG| beta:    0.0000000000000000     
 PAO| norm of gradient:   1.3571861003666309E-004
 PAO| energy improvement:  -5.4051980669100885E-009
 PAO| step    408                   -7.793370874  0.848E-05  0.264E+00     0.106
 PAO| converged after          408  steps :-)
 PAO| Recalculating energy after mixing.

     Lanczos converged:  T threshold:   0.100E-02
     Est. extremal eigenvalues:    0.248E+01   0.191E+00
     Est. condition number :    0.130E+02
     NS sqrt iter    1 1.00000000   0.630E+00       0.002       40.398
     NS sqrt iter    2 1.00000000   0.273E+00       0.002       64.968
     NS sqrt iter    3 1.00000000   0.480E-01       0.002       64.328
     NS sqrt iter    4 1.00000000   0.734E-03       0.002       64.495
     NS sqrt iter    5 1.00000000   0.519E-08       0.001       27.516
     Final NS sqrt iter    5 1.00000000   0.310E-09

     Est. extremal eigenvalues     -0.93619     1.62569  converged:  T
     TRS4 it   1 1.00000000   0.881E+00       0.001       16.128   0.100E-07
     TRS4 it   2 1.00000000   0.632E+00       0.001       32.256   0.100E-07
     TRS4 it   3 1.00000000   0.453E+00       0.001       32.256   0.100E-07
     TRS4 it   4 1.00000000   0.275E+00       0.001       32.256   0.100E-07
     TRS4 it   5 1.00000000   0.135E+00       0.001       32.256   0.100E-07
     TRS4 it   6 1.00000000   0.410E-01       0.001       32.256   0.100E-07
     TRS4 it   7 1.00000000   0.526E-02       0.001       32.256   0.100E-07
     TRS4 it   8 1.00000000   0.117E-03       0.001       32.256   0.100E-07
     TRS4 it   9 1.00000000   0.611E-07       0.001       32.256   0.100E-07
     Final TRS4 iteration    9 1.00000000   0.611E-07
     Chemical potential (mu):      -0.07242
 
 PAO| energy:  -7.7933708725722717      penalty:   2.7048516970527864E-008
 PAO| Writing restart file.
     Est. extremal eigenvalues     -0.93619     1.62569  converged:  T
     TRS4 it   1 1.00000000   0.881E+00       0.001       16.128   0.100E-07
     TRS4 it   2 1.00000000   0.632E+00       0.001       29.026   0.100E-07
     TRS4 it   3 1.00000000   0.453E+00       0.001       29.218   0.100E-07
     TRS4 it   4 1.00000000   0.275E+00       0.001       32.256   0.100E-07
     TRS4 it   5 1.00000000   0.135E+00       0.001       32.256   0.100E-07
     TRS4 it   6 1.00000000   0.410E-01       0.001       32.256   0.100E-07
     TRS4 it   7 1.00000000   0.526E-02       0.001       32.256   0.100E-07
     TRS4 it   8 1.00000000   0.117E-03       0.001       32.256   0.100E-07
     TRS4 it   9 1.00000000   0.611E-07       0.001       32.256   0.100E-07
     Final TRS4 iteration    9 1.00000000   0.611E-07
     Chemical potential (mu):      -0.07242

 SCF     1       -34.450264809       -34.450264809    2.298612

*********************************************************
 Using MIXING_FRACTION=0.450 to mix KS matrix:  iscf=  2
 KS_nw=0.450*KS + 0.550*KS_old
*********************************************************
     Est. extremal eigenvalues     -0.93620     1.62569  converged:  T
     TRS4 it   1 1.00000000   0.881E+00       0.001       16.128   0.100E-07
     TRS4 it   2 1.00000000   0.632E+00       0.001       32.256   0.100E-07
     TRS4 it   3 1.00000000   0.453E+00       0.001       32.256   0.100E-07
     TRS4 it   4 1.00000000   0.275E+00       0.001       32.256   0.100E-07
     TRS4 it   5 1.00000000   0.135E+00       0.001       32.256   0.100E-07
     TRS4 it   6 1.00000000   0.410E-01       0.001       32.256   0.100E-07
     TRS4 it   7 1.00000000   0.526E-02       0.001       32.256   0.100E-07
     TRS4 it   8 1.00000000   0.117E-03       0.001       32.256   0.100E-07
     TRS4 it   9 1.00000000   0.611E-07       0.001       32.256   0.100E-07
     Final TRS4 iteration    9 1.00000000   0.611E-07
     Chemical potential (mu):      -0.07242

 SCF     2       -34.450264810        -0.000000000    2.262734

 PAO| Storing density matrix for ASPC guess in slot:           1

 ENERGY| Total FORCE_EVAL ( QS ) energy (a.u.):              -34.450264809515687


 -------------------------------------------------------------------------------
 -                                                                             -
 -                                DBCSR STATISTICS                             -
 -                                                                             -
 -------------------------------------------------------------------------------
 COUNTER                                    TOTAL       BLAS       SMM       ACC
 flops     5 x     5 x     4                20000     100.0%      0.0%      0.0%
 flops    13 x     5 x     4                20800     100.0%      0.0%      0.0%
 flops     5 x    13 x     4                20800     100.0%      0.0%      0.0%
 flops    13 x    13 x     4                40560     100.0%      0.0%      0.0%
 flops     4 x     4 x     5              3206400     100.0%      0.0%      0.0%
 flops     5 x     4 x     5              3920000     100.0%      0.0%      0.0%
 flops     4 x     4 x    13              4168320     100.0%      0.0%      0.0%
 flops    13 x     4 x     5              5096000     100.0%      0.0%      0.0%
 flops     5 x     4 x    13              5096000     100.0%      0.0%      0.0%
 flops     5 x     4 x     4              6499520     100.0%      0.0%      0.0%
 flops    13 x     4 x    13              6624800     100.0%      0.0%      0.0%
 flops    13 x     4 x     4              8743072     100.0%      0.0%      0.0%
 flops     4 x     4 x     4            408790144     100.0%      0.0%      0.0%
 flops inhomo. stacks                           0       0.0%      0.0%      0.0%
 flops total                       452.246416E+06     100.0%      0.0%      0.0%
 flops max/rank                    452.246416E+06     100.0%      0.0%      0.0%
 matmuls inhomo. stacks                         0       0.0%      0.0%      0.0%
 matmuls total                            3329682     100.0%      0.0%      0.0%
 number of processed stacks                 26601     100.0%      0.0%      0.0%
 average stack size                                   125.2       0.0       0.0
 marketing flops                   733.888320E+06
 -------------------------------------------------------------------------------
 # multiplications                          22110
 max memory usage/rank             327.852032E+06
 # max total images/rank                        1
 # max 3D layers                                1
 # MPI messages exchanged                       0
 MPI messages size (bytes):
  total size                         0.000000E+00
  min size                           0.000000E+00
  max size                           0.000000E+00
  average size                       0.000000E+00
 MPI breakdown and total messages size (bytes):
             size <=      128                   0                        0
       128 < size <=     8192                   0                        0
      8192 < size <=    32768                   0                        0
     32768 < size <=   131072                   0                        0
    131072 < size <=  4194304                   0                        0
   4194304 < size <= 16777216                   0                        0
  16777216 < size                               0                        0
 -------------------------------------------------------------------------------

 MEMORY| Estimated peak process memory [MiB]                                 313

 -------------------------------------------------------------------------------
 -                                                                             -
 -                           R E F E R E N C E S                               -
 -                                                                             -
 -------------------------------------------------------------------------------
 
 CP2K version 7.0 (Development Version), the CP2K developers group (2018).
 CP2K is freely available from https://www.cp2k.org/ .

 Schuett, O; VandeVondele, J. 
 Journal of Chemical Theory and Computation, 14, (2018). 
 Machine Learning Adaptive Basis Sets for Efficient Large Scale Density Functional Theory Simulation.
 https://dx.doi.org/10.1021/acs.jctc.8b00378


 Schuett, Ole; Messmer, Peter; Hutter, Juerg; VandeVondele, Joost. 
 Electronic Structure Calculations on Graphics Processing Units, John Wiley & Sons, Ltd, 173-190 (2016). 
 GPU-Accelerated Sparse Matrix-Matrix Multiplication for Linear Scaling Density Functional Theory.
 https://dx.doi.org/10.1002/9781118670712.ch8


 Borstnik, U; VandeVondele, J; Weber, V; Hutter, J. 
 PARALLEL COMPUTING, 40 (5-6), 47-58 (2014). 
 Sparse matrix multiplication: The distributed block-compressed sparse
 row library.
 https://dx.doi.org/10.1016/j.parco.2014.03.012


 Hutter, J; Iannuzzi, M; Schiffmann, F; VandeVondele, J. 
 WILEY INTERDISCIPLINARY REVIEWS-COMPUTATIONAL MOLECULAR SCIENCE, 4 (1), 15-25 (2014). 
 CP2K: atomistic simulations of condensed matter systems.
 https://dx.doi.org/10.1002/wcms.1159


 VandeVondele, J; Borstnik, U; Hutter, J. 
 JOURNAL OF CHEMICAL THEORY AND COMPUTATION, 8 (10), 3565-3573 (2012). 
 Linear Scaling Self-Consistent Field Calculations with Millions of Atoms
 in the Condensed Phase.
 https://dx.doi.org/10.1021/ct200897x


 VandeVondele, J; Hutter, J. 
 JOURNAL OF CHEMICAL PHYSICS, 127 (11), 114105 (2007). 
 Gaussian basis sets for accurate calculations on molecular systems in
 gas and condensed phases.
 https://dx.doi.org/10.1063/1.2770708


 Krack, M. 
 THEORETICAL CHEMISTRY ACCOUNTS, 114 (1-3), 145-152 (2005). 
 Pseudopotentials for H to Kr optimized for gradient-corrected
 exchange-correlation functionals.
 https://dx.doi.org/10.1007/s00214-005-0655-y


 VandeVondele, J; Krack, M; Mohamed, F; Parrinello, M; Chassaing, T;
 Hutter, J. COMPUTER PHYSICS COMMUNICATIONS, 167 (2), 103-128 (2005). 
 QUICKSTEP: Fast and accurate density functional calculations using a
 mixed Gaussian and plane waves approach.
 https://dx.doi.org/10.1016/j.cpc.2004.12.014


 Frigo, M; Johnson, SG. 
 PROCEEDINGS OF THE IEEE, 93 (2), 216-231 (2005). 
 The design and implementation of FFTW3.
 https://dx.doi.org/10.1109/JPROC.2004.840301


 Niklasson, AMN; Tymczak, CJ; Challacombe, M. 
 JOURNAL OF CHEMICAL PHYSICS, 118 (19), 8611-8620 (2003). 
 Trace resetting density matrix purification in O(N)
 self-consistent-field theory.
 https://dx.doi.org/10.1063/1.1559913


 Hartwigsen, C; Goedecker, S; Hutter, J. 
 PHYSICAL REVIEW B, 58 (7), 3641-3662 (1998). 
 Relativistic separable dual-space Gaussian pseudopotentials from H to Rn.
 https://dx.doi.org/10.1103/PhysRevB.58.3641


 Lippert, G; Hutter, J; Parrinello, M. 
 MOLECULAR PHYSICS, 92 (3), 477-487 (1997). 
 A hybrid Gaussian and plane wave density functional scheme.
 https://dx.doi.org/10.1080/002689797170220


 Perdew, JP; Burke, K; Ernzerhof, M. 
 PHYSICAL REVIEW LETTERS, 77 (18), 3865-3868 (1996). 
 Generalized gradient approximation made simple.
 https://dx.doi.org/10.1103/PhysRevLett.77.3865


 Goedecker, S; Teter, M; Hutter, J. 
 PHYSICAL REVIEW B, 54 (3), 1703-1710 (1996). 
 Separable dual-space Gaussian pseudopotentials.
 https://dx.doi.org/10.1103/PhysRevB.54.1703


 -------------------------------------------------------------------------------
 -                                                                             -
 -                                T I M I N G                                  -
 -                                                                             -
 -------------------------------------------------------------------------------
 SUBROUTINE                       CALLS  ASD         SELF TIME        TOTAL TIME
                                MAXIMUM       AVERAGE  MAXIMUM  AVERAGE  MAXIMUM
 CP2K                                 1  1.0    0.015    0.015   31.879   31.879
 qs_energies                          1  2.0    0.000    0.000   31.387   31.387
 ls_scf                               1  3.0    0.000    0.000   31.204   31.204
 ls_scf_main                          4  4.0    0.001    0.001   17.746   17.746
 ls_scf_dm_to_ks                      9  5.0    0.000    0.000   17.639   17.639
 qs_ks_update_qs_env                 10  6.0    0.000    0.000   14.199   14.199
 rebuild_ks_matrix                   10  7.0    0.000    0.000   14.199   14.199
 qs_ks_build_kohn_sham_matrix        10  8.0    0.001    0.001   14.199   14.199
 pao_update                           4  4.0    0.011    0.011   11.015   11.015
 pao_calc_energy                    411  5.0    0.004    0.004    9.898    9.898
 dbcsr_multiply_generic           22110  8.4    0.513    0.513    8.505    8.505
 qs_vxc_create                       10  9.0    0.000    0.000    8.481    8.481
 xc_vxc_pw_create                    10 10.0    0.110    0.110    8.481    8.481
 xc_rho_set_and_dset_create          10 11.0    0.031    0.031    6.105    6.105
 pw_transfer                        191 10.6    0.014    0.014    6.011    6.011
 fft_wrap_pw1pw2                    171 11.7    0.002    0.002    5.922    5.922
 qs_rho_update_rho                   10  6.0    0.000    0.000    5.807    5.807
 calculate_rho_elec                  10  7.0    4.517    4.517    5.807    5.807
 fft_wrap_pw1pw2_200                111 12.8    0.318    0.318    5.665    5.665
 pao_dm_trs4                        411  6.0    0.003    0.003    5.049    5.049
 sum_up_and_integrate                10  9.0    0.016    0.016    4.862    4.862
 density_matrix_trs4                420  7.0    0.178    0.178    4.858    4.858
 integrate_v_rspace                  10 10.0    4.196    4.196    4.846    4.846
 ls_scf_init_matrix_S               415  7.0    0.004    0.004    4.844    4.844
 pao_rebuild_S                      411  6.0    0.003    0.003    4.802    4.802
 matrix_sqrt_Newton_Schulz          415  8.0    0.114    0.114    4.378    4.378
 xc_functional_eval                  10 12.0    0.000    0.000    4.136    4.136
 pbe_lda_eval                        10 13.0    4.136    4.136    4.136    4.136
 multiply_cannon                  22110  9.4    1.351    1.351    4.030    4.030
 fft3d_s                            172 13.6    3.156    3.156    3.172    3.172
 make_m2s                         44220  9.4    0.192    0.192    2.695    2.695
 make_images                      44220 10.4    0.640    0.640    2.378    2.378
 pao_guess_initial_P                  1  4.0    0.000    0.000    2.373    2.373
 pao_read_preopt_dm                   1  5.0    0.000    0.000    2.373    2.373
 multiply_cannon_multrec          22110 10.4    1.431    1.431    1.563    1.563
 pw_gather_s                         81 13.1    1.381    1.381    1.381    1.381
 density_rs2pw                       10  8.0    0.001    0.001    1.276    1.276
 arnoldi_extremal                   835  8.5    0.004    0.004    1.220    1.220
 arnoldi_normal_ev                  835  9.5    0.013    0.013    1.216    1.216
 pao_calc_AB                        542  5.8    0.001    0.001    1.096    1.096
 pao_calc_AB_direct                 542  6.8    0.030    0.030    1.095    1.095
 pw_scatter_s                        90 14.2    1.037    1.037    1.037    1.037
 pao_calc_grad_lnv_wrt_AB           130  7.0    0.008    0.008    1.033    1.033
 build_subspace                     835 10.5    0.062    0.062    0.903    0.903
 dbcsr_matrix_vector_mult         20022 11.5    0.123    0.123    0.812    0.812
 dbcsr_finalize                   52264  9.6    0.126    0.126    0.778    0.778
 dbcsr_create_new                169143 10.7    0.380    0.380    0.726    0.726
 potential_pw2rs                     10 11.0    0.002    0.002    0.648    0.648
 -------------------------------------------------------------------------------

 The number of warnings for this run is : 0
 
 -------------------------------------------------------------------------------
  **** **** ******  **  PROGRAM ENDED AT                 2019-03-28 17:32:50.884
 ***** ** ***  *** **   PROGRAM RAN ON            oleschuett.zrh.corp.google.com
 **    ****   ******    PROGRAM RAN BY                                oleschuett
 ***** **    ** ** **   PROGRAM PROCESS ID                                 30767
  **** **  *******  **  PROGRAM STOPPED IN /usr/local/google/home/oleschuett/git
                                           /pao_ml_equivar/2H2O_rotations/phi_14
