 DBCSR| CPU Multiplication driver                                           XSMM (U)
 DBCSR| Multrec recursion limit                                              512 (U)
 DBCSR| Multiplication stack size                                           1000 (D)
 DBCSR| Maximum elements for images                                    UNLIMITED (U)
 DBCSR| Multiplicative factor virtual images                                   1 (U)
 DBCSR| Use multiplication densification                                       T (D)
 DBCSR| Multiplication size stacks                                             3 (U)
 DBCSR| Use memory pool for CPU allocation                                     F (U)
 DBCSR| OMP: Current number of threads                                         1
 DBCSR| OMP: Max number of threads                                             1
 DBCSR| Split modifier for TAS multiplication algorithm                  1.0E+00 (U)


  **** **** ******  **  PROGRAM STARTED AT               2023-02-01 10:45:19.663
 ***** ** ***  *** **   PROGRAM STARTED ON                                moritz
 **    ****   ******    PROGRAM STARTED BY                                   ole
 ***** **    ** ** **   PROGRAM PROCESS ID                                148578
  **** **  *******  **  PROGRAM STARTED IN /home/ole/git/pao_ml_equivar/2H2O_rot
                                           ations/phi_14

 CP2K| version string:                 CP2K version 2023.1 (Development Version)
 CP2K| source code revision number:                                  git:03b4147
 CP2K| cp2kflags: omp libint fftw3 libxc quip xsmm spglib libvori libbqb libtorc
 CP2K|            h
 CP2K| is freely available from                            https://www.cp2k.org/
 CP2K| Program compiled at                           Mi 01 Feb 2023 10:36:52 CET
 CP2K| Program compiled on                                                moritz
 CP2K| Program compiled for                                                local
 CP2K| Data directory path                               /home/ole/git/cp2k/data
 CP2K| Input file name                                            2H2O_pao44.inp

 GLOBAL| Force Environment number                                              1
 GLOBAL| Basis set file name                                        BASIS_MOLOPT
 GLOBAL| Potential file name                                      GTH_POTENTIALS
 GLOBAL| MM Potential file name                                     MM_POTENTIAL
 GLOBAL| Coordinate file name                                         coords.xyz
 GLOBAL| Method name                                                        CP2K
 GLOBAL| Project name                                                 2H2O_pao44
 GLOBAL| Run type                                                         ENERGY
 GLOBAL| FFT library                                                       FFTW3
 GLOBAL| Diagonalization library                                       ScaLAPACK
 GLOBAL| DGEMM library                                                      BLAS
 GLOBAL| Orthonormality check for eigenvectors                          DISABLED
 GLOBAL| Matrix multiplication library                                 ScaLAPACK
 GLOBAL| All-to-all communication in single precision                          F
 GLOBAL| FFTs using library dependent lengths                                  F
 GLOBAL| Grid backend                                                       AUTO
 GLOBAL| Global print level                                                  LOW
 GLOBAL| MPI I/O enabled                                                       T
 GLOBAL| Total number of message passing processes                             1
 GLOBAL| Number of threads for this process                                    1
 GLOBAL| This output is from process                                           0
 GLOBAL| Stack size for threads created by OpenMP (OMP_STACKSIZE)        default
 GLOBAL| CPU model name           AMD Ryzen Threadripper 3970X 32-Core Processor
 GLOBAL| CPUID                                                              1002
 GLOBAL| Compiled for CPUID                                                    0

 *** HINT in environment.F:884 :: The compiler target flags (generic) used ***
 *** to build this binary cannot exploit all extensions of this CPU model  ***
 *** (x86_avx2). Consider compiler target flags as part of FCFLAGS and     ***
 *** CFLAGS (ARCH file).                                                   ***


 MEMORY| system memory details [Kb]
 MEMORY|                        rank 0           min           max       average
 MEMORY| MemTotal            131773860     131773860     131773860     131773860
 MEMORY| MemFree             118696576     118696576     118696576     118696576
 MEMORY| Buffers                301580        301580        301580        301580
 MEMORY| Cached                7018548       7018548       7018548       7018548
 MEMORY| Slab                   776140        776140        776140        776140
 MEMORY| SReclaimable           331304        331304        331304        331304
 MEMORY| MemLikelyFree       126348008     126348008     126348008     126348008


 GENERATE|  Preliminary Number of Bonds generated:                             0
 GENERATE|  Achieved consistency in connectivity generation.

 *******************************************************************************
 *******************************************************************************
 **                                                                           **
 **     #####                         ##              ##                      **
 **    ##   ##            ##          ##              ##                      **
 **   ##     ##                       ##            ######                    **
 **   ##     ##  ##   ##  ##   #####  ##  ##   ####   ##    #####    #####    **
 **   ##     ##  ##   ##  ##  ##      ## ##   ##      ##   ##   ##  ##   ##   **
 **   ##  ## ##  ##   ##  ##  ##      ####     ###    ##   ######   ######    **
 **    ##  ###   ##   ##  ##  ##      ## ##      ##   ##   ##       ##        **
 **     #######   #####   ##   #####  ##  ##  ####    ##    #####   ##        **
 **           ##                                                    ##        **
 **                                                                           **
 **                                                ... make the atoms dance   **
 **                                                                           **
 **            Copyright (C) by CP2K developers group (2000-2023)             **
 **                      J. Chem. Phys. 152, 194103 (2020)                    **
 **                                                                           **
 *******************************************************************************


 TOTAL NUMBERS AND MAXIMUM NUMBERS

  Total number of            - Atomic kinds:                                   2
                             - Atoms:                                          6
                             - Shell sets:                                     6
                             - Shells:                                        22
                             - Primitive Cartesian functions:                 42
                             - Cartesian basis functions:                     48
                             - Spherical basis functions:                     46

  Maximum angular momentum of- Orbital basis functions:                        2
                             - Local part of the GTH pseudopotential:          2
                             - Non-local part of the GTH pseudopotential:      0

 ------------------------------ Linear scaling SCF -----------------------------
 eps_scf:                                                              0.100E-07
 eps_filter:                                                           0.100E-07
 mixing_fraction:                                                      0.450E+00
 max_scf:                                                                     25
 fixed chemical potential (mu)                                                 F
 has unit metric:                                                              F
 Computing inv(S):                                                             T
 Computing sqrt(S):                                                            T
 Computing S preconditioner                                                    F
 S sqrt method:                                                     NEWTONSCHULZ
 S sqrt order:                                                                 3
 Extrapolation order:                                                          1
 Use single precision matrices                                                 F
 S preconditioner type                                                      NONE
 Polarized Atomic Orbitals (PAO)                                               T
 Purification method                                   Trace resetting 4th order
 Cluster type                                                             ATOMIC
 Computing Chebyshev                                                       FALSE
 Using PAO                                                                     T
 -------------------------------------------------------------------------------

 
 PAO|                                  EPS_PAO                           0.1E-04
 PAO|                                  MIXING                            0.5E+00
 PAO|                                  MAX_PAO                              1000
 PAO|                                  MAX_CYCLES                           1000
 PAO|                                  PARAMETERIZATION              EQUIVARIANT
 PAO|                                  PRECONDITION                            F
 PAO|                                  REGULARIZATION                    0.0E+00
 PAO|                                  EPS_PGF                           0.1E-09
 PAO|                                  PENALTY_DISTANCE                  0.1E+00
 PAO|                                  PENALTY_STRENGTH                  0.5E-02
 PAO|                                  LINPOT_PRECONDITION_DELTA         0.0E+00
 PAO|                                  LINPOT_INITGUESS_DELT             0.0E+00
 PAO|                                  LINPOT_REGULARIZATION_DELTA       0.0E+00
 PAO|                                  LINPOT_REGULARIZATION_STRENGTH    0.0E+00
 PAO|                                  OPTIMIZER                              CG
 PAO|                                  CG_INIT_STEPS                           2
 PAO|                                  CG_RESET_LIMIT                    0.1E+00
 PAO|                                  CHECK_UNITARY_TOL                -0.1E+01
 PAO|                                  CHECK_GRADIENT_TOL               -0.1E+01
 PAO|                                  NUM_GRADIENT_ORDER                      2
 PAO|                                  NUM_GRADIENT_EPS                  0.1E-07
 PAO|                                  PRINT%RESTART%WRITE_CYCLES            100
 PAO|                                  RESTART_FILE 
 PAO|                                  PREOPT_DM_FILE 2H2O_ref_LS_DM_SPIN_1_RESTART.dm
 PAO|                                  MACHINE_LEARNING%METHOD       GAUSSIAN_PR
 PAO|                                  MACHINE_LEARNING%PRIOR               ZERO
 PAO|                                  MACHINE_LEARNING%DESCRIPTOR     POTENTIAL
 PAO|                                  MACHINE_LEARNING%TOLERANCE        0.1E-01
 PAO|                                  MACHINE_LEARNING%GP_NOISE_VAR     0.1E+00
 PAO|                                  MACHINE_LEARNING%GP_SCALE         0.5E-01
 

 Calculating atomic Fock matrix for atomic kind: O

 Electronic structure
    Total number of core electrons                                          2.00
    Total number of valence electrons                                       6.00
    Total number of electrons                                               8.00
    Multiplicity                                                   not specified
    S   [  2.00] 2.00
    P      4.00


 *******************************************************************************
                  Iteration          Convergence                     Energy [au]
 *******************************************************************************
                          1        0.708315                     -15.576645311500
                          2        0.608879                     -15.587933561584
                          3        0.102828E-01                 -15.656849565404
                          4        0.113889E-02                 -15.656866888140
                          5        0.434197E-03                 -15.656867072159
                          6        0.263771E-03                 -15.656867091904
                          7        0.478536E-06                 -15.656867103452

 Energy components [Hartree]           Total Energy ::          -15.656867103452
                                        Band Energy ::           -3.000198112285
                                     Kinetic Energy ::           11.759971203220
                                   Potential Energy ::          -27.416838306672
                                      Virial (-V/T) ::            2.331369510426
                                        Core Energy ::          -26.140716385623
                                          XC Energy ::           -3.154051012914
                                     Coulomb Energy ::           13.637900295084
                       Total Pseudopotential Energy ::          -37.935781716540
                       Local Pseudopotential Energy ::          -39.218907440693
                    Nonlocal Pseudopotential Energy ::            1.283125724153
                                        Confinement ::            0.350941276976

 Orbital energies  State     L     Occupation   Energy[a.u.]          Energy[eV]

                       1     0          2.000      -0.864471          -23.523463

                       1     1          4.000      -0.317814           -8.648154


 Total Electron Density at R=0:                                         0.000068

 Calculating atomic Fock matrix for atomic kind: H

 Electronic structure
    Total number of core electrons                                          0.00
    Total number of valence electrons                                       1.00
    Total number of electrons                                               1.00
    Multiplicity                                                   not specified
    S      1.00


 *******************************************************************************
                  Iteration          Convergence                     Energy [au]
 *******************************************************************************
                          1        0.437545E-02                  -0.424159432110
                          2        0.531356E-03                  -0.424178438213
                          3        0.259176E-06                  -0.424178722480

 Energy components [Hartree]           Total Energy ::           -0.424178722480
                                        Band Energy ::           -0.199015229016
                                     Kinetic Energy ::            0.464007633961
                                   Potential Energy ::           -0.888186356441
                                      Virial (-V/T) ::            1.914163240935
                                        Core Energy ::           -0.479160803564
                                          XC Energy ::           -0.244352904054
                                     Coulomb Energy ::            0.299334985138
                       Total Pseudopotential Energy ::           -0.962295316385
                       Local Pseudopotential Energy ::           -0.962295316385
                    Nonlocal Pseudopotential Energy ::            0.000000000000
                                        Confinement ::            0.191268788606

 Orbital energies  State     L     Occupation   Energy[a.u.]          Energy[eV]

                       1     0          1.000      -0.199015           -5.415480


 Total Electron Density at R=0:                                         0.242907
 PAO| Made initial guess for matrix_X with norm:   4.8989794855663558     

     Lanczos converged:  T threshold:   0.100E-02
     Est. extremal eigenvalues:    0.337E+01   0.113E+00
     Est. condition number :    0.297E+02

 Order=           3
     NS sqrt iter    1 1.00000000   0.822E+00       0.001       64.512
     NS sqrt iter    2 1.00000000   0.440E+00       0.001      110.592
     NS sqrt iter    3 1.00000000   0.171E+00       0.001      110.592
     NS sqrt iter    4 1.00000000   0.208E-01       0.001      110.592
     NS sqrt iter    5 1.00000000   0.560E-04       0.001       93.440
     Symmetrizing Results
     Final NS sqrt iter    5 1.00000000   0.273E-08

 PAO| Read restart DM 2H2O_ref_LS_DM_SPIN_1_RESTART.dm with checksum:    72.048184081020523     
 PAO| Quickstep energy from restart density:  -34.450801614706705     
 PAO| ======================= Iteration:         1 =============================

     Lanczos converged:  T threshold:   0.100E-02
     Est. extremal eigenvalues:    0.337E+01   0.113E+00
     Est. condition number :    0.297E+02

 Order=           3
     NS sqrt iter    1 1.00000000   0.822E+00       0.001       64.512
     NS sqrt iter    2 1.00000000   0.440E+00       0.001      110.592
     NS sqrt iter    3 1.00000000   0.171E+00       0.001      110.592
     NS sqrt iter    4 1.00000000   0.208E-01       0.001      110.592
     NS sqrt iter    5 1.00000000   0.560E-04       0.001       93.440
     Symmetrizing Results
     Final NS sqrt iter    5 1.00000000   0.273E-08

     Est. extremal eigenvalues     -0.91932     1.90520  converged:  T
     TRS4 it   1 1.00000000   0.892E+00       0.000       16.128   0.100E-07
     TRS4 it   2 1.00000000   0.697E+00       0.000       32.256   0.100E-07
     TRS4 it   3 1.00000000   0.500E+00       0.000       32.256   0.100E-07
     TRS4 it   4 1.00000000   0.313E+00       0.000       32.256   0.100E-07
     TRS4 it   5 1.00000000   0.155E+00       0.000       32.256   0.100E-07
     TRS4 it   6 1.00000000   0.486E-01       0.000       32.256   0.100E-07
     TRS4 it   7 1.00000000   0.656E-02       0.000       32.256   0.100E-07
     TRS4 it   8 1.00000000   0.169E-03       0.000       32.256   0.100E-07
     TRS4 it   9 1.00000000   0.127E-06       0.000       32.256   0.100E-07
     TRS4 it  10 1.00000000   0.712E-13       0.000       32.256   0.100E-07
     Final TRS4 iteration   10 1.00000000   0.712E-13
     Chemical potential (mu):      -0.06364
 
 PAO| energy:  -7.6162978807699133      penalty:   2.4035605705952708E-033
 PAO|CG| warming up with steepest descent
 PAO|CG| beta:    0.0000000000000000     
 PAO| norm of gradient:  0.78387654830881248     
 PAO|LS| adapt:  T F F
 PAO|LS| adapt: scan_steps:    0.0000000000000000        0.0000000000000000        0.0000000000000000     
 PAO|LS| adapt: energies:   -7.6162978807699133        0.0000000000000000        0.0000000000000000     
 PAO| ======================= Iteration:         2 =============================

     Lanczos converged:  T threshold:   0.100E-02
     Est. extremal eigenvalues:    0.328E+01   0.126E+00
     Est. condition number :    0.261E+02

 Order=           3
     NS sqrt iter    1 1.00000000   0.805E+00       0.001       64.512
     NS sqrt iter    2 1.00000000   0.425E+00       0.001      110.592
     NS sqrt iter    3 1.00000000   0.153E+00       0.001      110.592
     NS sqrt iter    4 1.00000000   0.145E-01       0.001      110.592
     NS sqrt iter    5 1.00000000   0.184E-04       0.001       82.944
     Symmetrizing Results
     Final NS sqrt iter    5 1.00000000   0.513E-09

     Est. extremal eigenvalues     -0.92299     1.85307  converged:  T
     TRS4 it   1 1.00000000   0.890E+00       0.000       16.128   0.100E-07
     TRS4 it   2 1.00000000   0.680E+00       0.000       32.256   0.100E-07
     TRS4 it   3 1.00000000   0.485E+00       0.000       32.256   0.100E-07
     TRS4 it   4 1.00000000   0.294E+00       0.000       32.256   0.100E-07
     TRS4 it   5 1.00000000   0.137E+00       0.000       32.256   0.100E-07
     TRS4 it   6 1.00000000   0.377E-01       0.000       32.256   0.100E-07
     TRS4 it   7 1.00000000   0.398E-02       0.000       32.256   0.100E-07
     TRS4 it   8 1.00000000   0.627E-04       0.000       32.256   0.100E-07
     TRS4 it   9 1.00000000   0.175E-07       0.000       32.256   0.100E-07
     Final TRS4 iteration    9 1.00000000   0.175E-07
     Chemical potential (mu):      -0.05173
 
 PAO| energy:  -7.6718521547540535      penalty:   2.2549421663870428E-008
 PAO|LS| adapt:  T T F
 PAO|LS| adapt: scan_steps:    0.0000000000000000       0.10000000000000001        0.0000000000000000     
 PAO|LS| adapt: energies:   -7.6162978807699133       -7.6718521547540535        0.0000000000000000     
 PAO| ======================= Iteration:         3 =============================

     Lanczos converged:  T threshold:   0.100E-02
     Est. extremal eigenvalues:    0.319E+01   0.137E+00
     Est. condition number :    0.233E+02

 Order=           3
     NS sqrt iter    1 1.00000000   0.787E+00       0.001       64.512
     NS sqrt iter    2 1.00000000   0.408E+00       0.001      110.592
     NS sqrt iter    3 1.00000000   0.136E+00       0.001      110.592
     NS sqrt iter    4 1.00000000   0.100E-01       0.001      110.592
     NS sqrt iter    5 1.00000000   0.643E-05       0.001       82.944
     Symmetrizing Results
     Final NS sqrt iter    5 1.00000000   0.634E-10

     Est. extremal eigenvalues     -0.92642     1.81121  converged:  T
     TRS4 it   1 1.00000000   0.889E+00       0.000       16.128   0.100E-07
     TRS4 it   2 1.00000000   0.664E+00       0.000       32.256   0.100E-07
     TRS4 it   3 1.00000000   0.470E+00       0.000       32.256   0.100E-07
     TRS4 it   4 1.00000000   0.275E+00       0.000       32.256   0.100E-07
     TRS4 it   5 1.00000000   0.119E+00       0.000       32.256   0.100E-07
     TRS4 it   6 1.00000000   0.283E-01       0.000       32.256   0.100E-07
     TRS4 it   7 1.00000000   0.225E-02       0.000       32.256   0.100E-07
     TRS4 it   8 1.00000000   0.200E-04       0.000       32.256   0.100E-07
     TRS4 it   9 1.00000000   0.179E-08       0.000       32.256   0.100E-07
     Final TRS4 iteration    9 1.00000000   0.179E-08
     Chemical potential (mu):      -0.03887
 
 PAO| energy:  -7.7149597164546009      penalty:   3.6079085317597534E-007
 PAO|LS| adapt:  T T F
 PAO|LS| adapt: scan_steps:    0.0000000000000000       0.20000000000000001        0.0000000000000000     
 PAO|LS| adapt: energies:   -7.6162978807699133       -7.7149597164546009        0.0000000000000000     
 PAO| ======================= Iteration:         4 =============================

     Lanczos converged:  T threshold:   0.100E-02
     Est. extremal eigenvalues:    0.299E+01   0.154E+00
     Est. condition number :    0.194E+02

 Order=           3
     NS sqrt iter    1 1.00000000   0.750E+00       0.001       64.512
     NS sqrt iter    2 1.00000000   0.373E+00       0.001      110.592
     NS sqrt iter    3 1.00000000   0.106E+00       0.001      110.592
     NS sqrt iter    4 1.00000000   0.496E-02       0.001      110.592
     NS sqrt iter    5 1.00000000   0.971E-06       0.001       82.944
     Symmetrizing Results
     Final NS sqrt iter    5 1.00000000   0.159E-11

     Est. extremal eigenvalues     -0.93174     1.75040  converged:  T
     TRS4 it   1 1.00000000   0.886E+00       0.000       16.128   0.100E-07
     TRS4 it   2 1.00000000   0.638E+00       0.000       32.256   0.100E-07
     TRS4 it   3 1.00000000   0.442E+00       0.000       32.256   0.100E-07
     TRS4 it   4 1.00000000   0.239E+00       0.000       32.256   0.100E-07
     TRS4 it   5 1.00000000   0.878E-01       0.000       32.256   0.100E-07
     TRS4 it   6 1.00000000   0.150E-01       0.000       32.256   0.100E-07
     TRS4 it   7 1.00000000   0.599E-03       0.000       32.256   0.100E-07
     TRS4 it   8 1.00000000   0.138E-05       0.000       32.256   0.100E-07
     TRS4 it   9 1.00000000   0.848E-11       0.000       32.256   0.100E-07
     Final TRS4 iteration    9 1.00000000   0.848E-11
     Chemical potential (mu):      -0.01057
 
 PAO| energy:  -7.7622234159696362      penalty:   5.7726545032596948E-006
 PAO|LS| Need extra step
 PAO|LS| adapt:  T T F
 PAO|LS| adapt: scan_steps:    0.0000000000000000       0.40000000000000002        0.0000000000000000     
 PAO|LS| adapt: energies:   -7.6162978807699133       -7.7622234159696362        0.0000000000000000     
 PAO| ======================= Iteration:         5 =============================

     Lanczos converged:  T threshold:   0.100E-02
     Est. extremal eigenvalues:    0.263E+01   0.181E+00
     Est. condition number :    0.145E+02

 Order=           3
     NS sqrt iter    1 1.00000000   0.684E+00       0.001       64.512
     NS sqrt iter    2 1.00000000   0.311E+00       0.001      110.592
     NS sqrt iter    3 1.00000000   0.656E-01       0.001      110.592
     NS sqrt iter    4 1.00000000   0.138E-02       0.001      110.592
     NS sqrt iter    5 1.00000000   0.272E-07       0.001       57.216
     Symmetrizing Results
     Final NS sqrt iter    5 1.00000000   0.312E-08

     Est. extremal eigenvalues     -0.93297     1.68202  converged:  T
     TRS4 it   1 1.00000000   0.884E+00       0.000       16.128   0.100E-07
     TRS4 it   2 1.00000000   0.603E+00       0.000       32.256   0.100E-07
     TRS4 it   3 1.00000000   0.397E+00       0.000       32.256   0.100E-07
     TRS4 it   4 1.00000000   0.184E+00       0.000       32.256   0.100E-07
     TRS4 it   5 1.00000000   0.484E-01       0.000       32.256   0.100E-07
     TRS4 it   6 1.00000000   0.415E-02       0.000       32.256   0.100E-07
     TRS4 it   7 1.00000000   0.391E-04       0.000       32.256   0.100E-07
     TRS4 it   8 1.00000000   0.441E-08       0.000       32.256   0.100E-07
     Final TRS4 iteration    8 1.00000000   0.441E-08
     Chemical potential (mu):       0.03768
 
 PAO| energy:  -7.7074377271853791      penalty:   9.2362478871758159E-005
 PAO|LS| Need extra step
 PAO|LS| adapt:  T T T
 PAO|LS| adapt: scan_steps:    0.0000000000000000       0.40000000000000002       0.80000000000000004     
 PAO|LS| adapt: energies:   -7.6162978807699133       -7.7622234159696362       -7.7074377271853791     
 PAO|LS| adapt: suggested step_size:   0.49081689066152112     
 PAO|LS| adapt: predicted energy  -7.7673965643863996     
 PAO| ======================= Iteration:         6 =============================

     Lanczos converged:  T threshold:   0.100E-02
     Est. extremal eigenvalues:    0.290E+01   0.161E+00
     Est. condition number :    0.180E+02

 Order=           3
     NS sqrt iter    1 1.00000000   0.733E+00       0.001       64.512
     NS sqrt iter    2 1.00000000   0.358E+00       0.001      110.592
     NS sqrt iter    3 1.00000000   0.950E-01       0.001      110.592
     NS sqrt iter    4 1.00000000   0.366E-02       0.001      110.592
     NS sqrt iter    5 1.00000000   0.428E-06       0.001       82.816
     Symmetrizing Results
     Final NS sqrt iter    5 1.00000000   0.812E-11

     Est. extremal eigenvalues     -0.93323     1.73005  converged:  T
     TRS4 it   1 1.00000000   0.885E+00       0.000       16.128   0.100E-07
     TRS4 it   2 1.00000000   0.628E+00       0.000       32.256   0.100E-07
     TRS4 it   3 1.00000000   0.431E+00       0.000       32.256   0.100E-07
     TRS4 it   4 1.00000000   0.225E+00       0.000       32.256   0.100E-07
     TRS4 it   5 1.00000000   0.763E-01       0.000       32.256   0.100E-07
     TRS4 it   6 1.00000000   0.110E-01       0.000       32.256   0.100E-07
     TRS4 it   7 1.00000000   0.311E-03       0.000       32.256   0.100E-07
     TRS4 it   8 1.00000000   0.356E-06       0.000       32.256   0.100E-07
     TRS4 it   9 1.00000000   0.558E-12       0.000       32.256   0.100E-07
     Final TRS4 iteration    9 1.00000000   0.558E-12
     Chemical potential (mu):       0.00306
 
 PAO| energy:  -7.7666579262458750      penalty:   1.3086201747265918E-005
 PAO|CG| warming up with steepest descent
 PAO|CG| beta:    0.0000000000000000     
 PAO| norm of gradient:  0.41744411789800906     
 PAO| energy improvement: -0.15036004547596171     
 PAO| step      6                   -7.766657926  0.261E-01  0.491E+00     0.060
 PAO|LS| adapt:  T F F
 PAO|LS| adapt: scan_steps:    0.0000000000000000        0.0000000000000000        0.0000000000000000     
 PAO|LS| adapt: energies:   -7.7666579262458750        0.0000000000000000        0.0000000000000000     
 PAO| ======================= Iteration:         7 =============================

     Lanczos converged:  T threshold:   0.100E-02
     Est. extremal eigenvalues:    0.281E+01   0.175E+00
     Est. condition number :    0.161E+02

 Order=           3
     NS sqrt iter    1 1.00000000   0.716E+00       0.001       64.512
     NS sqrt iter    2 1.00000000   0.337E+00       0.001      110.592
     NS sqrt iter    3 1.00000000   0.794E-01       0.001      110.592
     NS sqrt iter    4 1.00000000   0.222E-02       0.001      110.592
     NS sqrt iter    5 1.00000000   0.105E-06       0.001       76.032
     Symmetrizing Results
     Final NS sqrt iter    5 1.00000000   0.130E-08

     Est. extremal eigenvalues     -0.93492     1.71624  converged:  T
     TRS4 it   1 1.00000000   0.885E+00       0.000       16.128   0.100E-07
     TRS4 it   2 1.00000000   0.626E+00       0.000       32.256   0.100E-07
     TRS4 it   3 1.00000000   0.431E+00       0.000       32.256   0.100E-07
     TRS4 it   4 1.00000000   0.225E+00       0.000       32.256   0.100E-07
     TRS4 it   5 1.00000000   0.769E-01       0.000       32.256   0.100E-07
     TRS4 it   6 1.00000000   0.110E-01       0.000       32.256   0.100E-07
     TRS4 it   7 1.00000000   0.292E-03       0.000       32.256   0.100E-07
     TRS4 it   8 1.00000000   0.296E-06       0.000       32.256   0.100E-07
     TRS4 it   9 1.00000000   0.379E-12       0.000       32.256   0.100E-07
     Final TRS4 iteration    9 1.00000000   0.379E-12
     Chemical potential (mu):       0.00502
 
 PAO| energy:  -7.7605351978703059      penalty:   1.9799498201410280E-005
 PAO|LS| adapt:  T F T
 PAO|LS| adapt: scan_steps:    0.0000000000000000        0.0000000000000000       0.49081689066152112     
 PAO|LS| adapt: energies:   -7.7666579262458750        0.0000000000000000       -7.7605351978703059     
 PAO| ======================= Iteration:         8 =============================

     Lanczos converged:  T threshold:   0.100E-02
     Est. extremal eigenvalues:    0.286E+01   0.168E+00
     Est. condition number :    0.170E+02

 Order=           3
     NS sqrt iter    1 1.00000000   0.724E+00       0.001       64.512
     NS sqrt iter    2 1.00000000   0.348E+00       0.001      110.592
     NS sqrt iter    3 1.00000000   0.870E-01       0.001      110.592
     NS sqrt iter    4 1.00000000   0.287E-02       0.001      110.592
     NS sqrt iter    5 1.00000000   0.216E-06       0.001       81.024
     Symmetrizing Results
     Final NS sqrt iter    5 1.00000000   0.750E-09

     Est. extremal eigenvalues     -0.93504     1.72258  converged:  T
     TRS4 it   1 1.00000000   0.884E+00       0.000       16.128   0.100E-07
     TRS4 it   2 1.00000000   0.627E+00       0.000       32.256   0.100E-07
     TRS4 it   3 1.00000000   0.430E+00       0.000       32.256   0.100E-07
     TRS4 it   4 1.00000000   0.224E+00       0.000       32.256   0.100E-07
     TRS4 it   5 1.00000000   0.764E-01       0.000       32.256   0.100E-07
     TRS4 it   6 1.00000000   0.111E-01       0.000       32.256   0.100E-07
     TRS4 it   7 1.00000000   0.309E-03       0.000       32.256   0.100E-07
     TRS4 it   8 1.00000000   0.345E-06       0.000       32.256   0.100E-07
     TRS4 it   9 1.00000000   0.519E-12       0.000       32.256   0.100E-07
     Final TRS4 iteration    9 1.00000000   0.519E-12
     Chemical potential (mu):       0.00359
 
 PAO| energy:  -7.7862694812771647      penalty:   1.4187516597631077E-005
 PAO|LS| adapt:  T T T
 PAO|LS| adapt: scan_steps:    0.0000000000000000       0.24540844533076056       0.49081689066152112     
 PAO|LS| adapt: energies:   -7.7666579262458750       -7.7862694812771647       -7.7605351978703059     
 PAO|LS| adapt: suggested step_size:   0.22884056056355684     
 PAO|LS| adapt: predicted energy  -7.7863728198746305     
 PAO| ======================= Iteration:         9 =============================

     Lanczos converged:  T threshold:   0.100E-02
     Est. extremal eigenvalues:    0.286E+01   0.168E+00
     Est. condition number :    0.171E+02

 Order=           3
     NS sqrt iter    1 1.00000000   0.725E+00       0.001       64.512
     NS sqrt iter    2 1.00000000   0.348E+00       0.001      110.592
     NS sqrt iter    3 1.00000000   0.875E-01       0.001      110.592
     NS sqrt iter    4 1.00000000   0.292E-02       0.001      110.592
     NS sqrt iter    5 1.00000000   0.227E-06       0.001       81.280
     Symmetrizing Results
     Final NS sqrt iter    5 1.00000000   0.337E-09

     Est. extremal eigenvalues     -0.93498     1.72305  converged:  T
     TRS4 it   1 1.00000000   0.884E+00       0.000       16.128   0.100E-07
     TRS4 it   2 1.00000000   0.627E+00       0.000       32.256   0.100E-07
     TRS4 it   3 1.00000000   0.430E+00       0.000       32.256   0.100E-07
     TRS4 it   4 1.00000000   0.224E+00       0.000       32.256   0.100E-07
     TRS4 it   5 1.00000000   0.763E-01       0.000       32.256   0.100E-07
     TRS4 it   6 1.00000000   0.111E-01       0.000       32.256   0.100E-07
     TRS4 it   7 1.00000000   0.310E-03       0.000       32.256   0.100E-07
     TRS4 it   8 1.00000000   0.347E-06       0.000       32.256   0.100E-07
     TRS4 it   9 1.00000000   0.526E-12       0.000       32.256   0.100E-07
     Final TRS4 iteration    9 1.00000000   0.526E-12
     Chemical potential (mu):       0.00352
 
 PAO| energy:  -7.7863975783557917      penalty:   1.4010720153864059E-005
 PAO|CG| trace_G_new    3.6811347690539217E-002
 PAO|CG| trace_G_prev   0.17425959156764689     
 PAO|CG| trace_G_mix   -1.4448206173383162E-003
 PAO|CG| trace_D   0.17425959156764689     
 PAO|CG| trace_D_Gnew   1.4448206173383162E-003
 PAO|CG| beta:   0.21953551000391644     
 PAO| norm of gradient:  0.19186283561580972     
 PAO| energy improvement:  -1.9739652109916683E-002
 PAO| step      9                   -7.786397578  0.120E-01  0.229E+00     0.037
 PAO|LS| adapt:  T F F
 PAO|LS| adapt: scan_steps:    0.0000000000000000        0.0000000000000000        0.0000000000000000     
 PAO|LS| adapt: energies:   -7.7863975783557917        0.0000000000000000        0.0000000000000000     
 PAO| ======================= Iteration:        10 =============================

     Lanczos converged:  T threshold:   0.100E-02
     Est. extremal eigenvalues:    0.282E+01   0.173E+00
     Est. condition number :    0.163E+02

 Order=           3
     NS sqrt iter    1 1.00000000   0.717E+00       0.001       64.512
     NS sqrt iter    2 1.00000000   0.340E+00       0.001      110.592
     NS sqrt iter    3 1.00000000   0.819E-01       0.001      110.592
     NS sqrt iter    4 1.00000000   0.240E-02       0.001      110.592
     NS sqrt iter    5 1.00000000   0.127E-06       0.001       77.440
     Symmetrizing Results
     Final NS sqrt iter    5 1.00000000   0.122E-08

     Est. extremal eigenvalues     -0.93587     1.71980  converged:  T
     TRS4 it   1 1.00000000   0.883E+00       0.000       16.128   0.100E-07
     TRS4 it   2 1.00000000   0.626E+00       0.000       32.256   0.100E-07
     TRS4 it   3 1.00000000   0.429E+00       0.000       32.256   0.100E-07
     TRS4 it   4 1.00000000   0.222E+00       0.000       32.256   0.100E-07
     TRS4 it   5 1.00000000   0.745E-01       0.000       32.256   0.100E-07
     TRS4 it   6 1.00000000   0.105E-01       0.000       32.256   0.100E-07
     TRS4 it   7 1.00000000   0.274E-03       0.000       32.256   0.100E-07
     TRS4 it   8 1.00000000   0.263E-06       0.000       32.256   0.100E-07
     TRS4 it   9 1.00000000   0.300E-12       0.000       32.256   0.100E-07
     Final TRS4 iteration    9 1.00000000   0.300E-12
     Chemical potential (mu):       0.00657
 
 PAO| energy:  -7.7914250375736804      penalty:   1.4543844985176082E-005
 PAO|LS| adapt:  T T F
 PAO|LS| adapt: scan_steps:    0.0000000000000000       0.22884056056355684        0.0000000000000000     
 PAO|LS| adapt: energies:   -7.7863975783557917       -7.7914250375736804        0.0000000000000000     
 PAO| ======================= Iteration:        11 =============================

     Lanczos converged:  T threshold:   0.100E-02
     Est. extremal eigenvalues:    0.279E+01   0.179E+00
     Est. condition number :    0.156E+02

 Order=           3
     NS sqrt iter    1 1.00000000   0.709E+00       0.001       64.512
     NS sqrt iter    2 1.00000000   0.332E+00       0.001      110.592
     NS sqrt iter    3 1.00000000   0.765E-01       0.001      110.592
     NS sqrt iter    4 1.00000000   0.197E-02       0.001      110.592
     NS sqrt iter    5 1.00000000   0.698E-07       0.001       72.832
     Symmetrizing Results
     Final NS sqrt iter    5 1.00000000   0.516E-09

     Est. extremal eigenvalues     -0.93579     1.71772  converged:  T
     TRS4 it   1 1.00000000   0.882E+00       0.000       16.128   0.100E-07
     TRS4 it   2 1.00000000   0.625E+00       0.000       32.256   0.100E-07
     TRS4 it   3 1.00000000   0.427E+00       0.000       32.256   0.100E-07
     TRS4 it   4 1.00000000   0.220E+00       0.000       32.256   0.100E-07
     TRS4 it   5 1.00000000   0.727E-01       0.000       32.256   0.100E-07
     TRS4 it   6 1.00000000   0.991E-02       0.000       32.256   0.100E-07
     TRS4 it   7 1.00000000   0.241E-03       0.000       32.256   0.100E-07
     TRS4 it   8 1.00000000   0.198E-06       0.000       32.256   0.100E-07
     TRS4 it   9 1.00000000   0.168E-12       0.000       32.256   0.100E-07
     Final TRS4 iteration    9 1.00000000   0.168E-12
     Chemical potential (mu):       0.00971
 
 PAO| energy:  -7.7900465437111199      penalty:   1.5741630078495875E-005
 PAO|LS| adapt:  T T T
 PAO|LS| adapt: scan_steps:    0.0000000000000000       0.22884056056355684       0.45768112112711368     
 PAO|LS| adapt: energies:   -7.7863975783557917       -7.7914250375736804       -7.7900465437111199     
 PAO|LS| adapt: suggested step_size:   0.29401675424649204     
 PAO|LS| adapt: predicted energy  -7.7916848534823595     
 PAO| ======================= Iteration:        12 =============================

     Lanczos converged:  T threshold:   0.100E-02
     Est. extremal eigenvalues:    0.281E+01   0.175E+00
     Est. condition number :    0.161E+02

 Order=           3
     NS sqrt iter    1 1.00000000   0.715E+00       0.001       64.512
     NS sqrt iter    2 1.00000000   0.338E+00       0.001      110.592
     NS sqrt iter    3 1.00000000   0.804E-01       0.001      110.592
     NS sqrt iter    4 1.00000000   0.227E-02       0.001      110.592
     NS sqrt iter    5 1.00000000   0.107E-06       0.001       76.160
     Symmetrizing Results
     Final NS sqrt iter    5 1.00000000   0.126E-08

     Est. extremal eigenvalues     -0.93595     1.71909  converged:  T
     TRS4 it   1 1.00000000   0.883E+00       0.000       16.128   0.100E-07
     TRS4 it   2 1.00000000   0.625E+00       0.000       32.256   0.100E-07
     TRS4 it   3 1.00000000   0.428E+00       0.000       32.256   0.100E-07
     TRS4 it   4 1.00000000   0.221E+00       0.000       32.256   0.100E-07
     TRS4 it   5 1.00000000   0.740E-01       0.000       32.256   0.100E-07
     TRS4 it   6 1.00000000   0.103E-01       0.000       32.256   0.100E-07
     TRS4 it   7 1.00000000   0.264E-03       0.000       32.256   0.100E-07
     TRS4 it   8 1.00000000   0.243E-06       0.000       32.256   0.100E-07
     TRS4 it   9 1.00000000   0.254E-12       0.000       32.256   0.100E-07
     Final TRS4 iteration    9 1.00000000   0.254E-12
     Chemical potential (mu):       0.00745
 
 PAO| energy:  -7.7916686069735661      penalty:   1.4809637574522146E-005
 PAO|CG| trace_G_new    1.1791937731908784E-002
 PAO|CG| trace_G_prev    3.6811347690539217E-002
 PAO|CG| trace_G_mix   -4.5500569413995133E-004
 PAO|CG| trace_D    4.4575556248621688E-002
 PAO|CG| trace_D_Gnew   2.0642272218675413E-004
 PAO|CG| beta:   0.33269478555919019     
 PAO| norm of gradient:  0.10859068897427986     
 PAO| energy improvement:  -5.2710286177743981E-003
 PAO| step     12                   -7.791668607  0.679E-02  0.294E+00     0.037
 PAO|LS| adapt:  T F F
 PAO|LS| adapt: scan_steps:    0.0000000000000000        0.0000000000000000        0.0000000000000000     
 PAO|LS| adapt: energies:   -7.7916686069735661        0.0000000000000000        0.0000000000000000     
 PAO| ======================= Iteration:        13 =============================

     Lanczos converged:  T threshold:   0.100E-02
     Est. extremal eigenvalues:    0.278E+01   0.179E+00
     Est. condition number :    0.155E+02

 Order=           3
     NS sqrt iter    1 1.00000000   0.707E+00       0.001       64.512
     NS sqrt iter    2 1.00000000   0.330E+00       0.001      110.592
     NS sqrt iter    3 1.00000000   0.760E-01       0.001      110.592
     NS sqrt iter    4 1.00000000   0.193E-02       0.001      110.592
     NS sqrt iter    5 1.00000000   0.669E-07       0.001       72.576
     Symmetrizing Results
     Final NS sqrt iter    5 1.00000000   0.492E-09

     Est. extremal eigenvalues     -0.93643     1.71296  converged:  T
     TRS4 it   1 1.00000000   0.883E+00       0.000       16.128   0.100E-07
     TRS4 it   2 1.00000000   0.623E+00       0.000       32.256   0.100E-07
     TRS4 it   3 1.00000000   0.424E+00       0.000       32.256   0.100E-07
     TRS4 it   4 1.00000000   0.217E+00       0.000       32.256   0.100E-07
     TRS4 it   5 1.00000000   0.705E-01       0.000       32.256   0.100E-07
     TRS4 it   6 1.00000000   0.931E-02       0.000       32.256   0.100E-07
     TRS4 it   7 1.00000000   0.212E-03       0.000       32.256   0.100E-07
     TRS4 it   8 1.00000000   0.153E-06       0.000       32.256   0.100E-07
     TRS4 it   9 1.00000000   0.998E-13       0.000       32.256   0.100E-07
     Final TRS4 iteration    9 1.00000000   0.998E-13
     Chemical potential (mu):       0.01190
 
 PAO| energy:  -7.7937364820268726      penalty:   1.5114171513020655E-005
 PAO|LS| adapt:  T T F
 PAO|LS| adapt: scan_steps:    0.0000000000000000       0.29401675424649204        0.0000000000000000     
 PAO|LS| adapt: energies:   -7.7916686069735661       -7.7937364820268726        0.0000000000000000     
 PAO| ======================= Iteration:        14 =============================

     Lanczos converged:  T threshold:   0.100E-02
     Est. extremal eigenvalues:    0.274E+01   0.183E+00
     Est. condition number :    0.150E+02

 Order=           3
     NS sqrt iter    1 1.00000000   0.700E+00       0.001       64.512
     NS sqrt iter    2 1.00000000   0.323E+00       0.001      110.592
     NS sqrt iter    3 1.00000000   0.719E-01       0.001      110.592
     NS sqrt iter    4 1.00000000   0.165E-02       0.001      110.592
     NS sqrt iter    5 1.00000000   0.417E-07       0.001       68.864
     Symmetrizing Results
     Final NS sqrt iter    5 1.00000000   0.376E-09

     Est. extremal eigenvalues     -0.93641     1.70708  converged:  T
     TRS4 it   1 1.00000000   0.882E+00       0.000       16.128   0.100E-07
     TRS4 it   2 1.00000000   0.620E+00       0.000       32.256   0.100E-07
     TRS4 it   3 1.00000000   0.421E+00       0.000       32.256   0.100E-07
     TRS4 it   4 1.00000000   0.212E+00       0.000       32.256   0.100E-07
     TRS4 it   5 1.00000000   0.672E-01       0.000       32.256   0.100E-07
     TRS4 it   6 1.00000000   0.840E-02       0.000       32.256   0.100E-07
     TRS4 it   7 1.00000000   0.171E-03       0.000       32.256   0.100E-07
     TRS4 it   8 1.00000000   0.969E-07       0.000       32.256   0.100E-07
     TRS4 it   9 1.00000000   0.388E-13       0.000       32.256   0.100E-07
     Final TRS4 iteration    9 1.00000000   0.388E-13
     Chemical potential (mu):       0.01623
 
 PAO| energy:  -7.7930964779680574      penalty:   1.5898685628014906E-005
 PAO|LS| adapt:  T T T
 PAO|LS| adapt: scan_steps:    0.0000000000000000       0.29401675424649204       0.58803350849298408     
 PAO|LS| adapt: energies:   -7.7916686069735661       -7.7937364820268726       -7.7930964779680574     
 PAO|LS| adapt: suggested step_size:   0.37153461562437312     
 PAO|LS| adapt: predicted energy  -7.7938305969915964     
 PAO| ======================= Iteration:        15 =============================

     Lanczos converged:  T threshold:   0.100E-02
     Est. extremal eigenvalues:    0.277E+01   0.180E+00
     Est. condition number :    0.154E+02

 Order=           3
     NS sqrt iter    1 1.00000000   0.706E+00       0.001       64.512
     NS sqrt iter    2 1.00000000   0.329E+00       0.001      110.592
     NS sqrt iter    3 1.00000000   0.749E-01       0.001      110.592
     NS sqrt iter    4 1.00000000   0.185E-02       0.001      110.592
     NS sqrt iter    5 1.00000000   0.591E-07       0.001       71.296
     Symmetrizing Results
     Final NS sqrt iter    5 1.00000000   0.476E-09

     Est. extremal eigenvalues     -0.93647     1.71139  converged:  T
     TRS4 it   1 1.00000000   0.882E+00       0.000       16.128   0.100E-07
     TRS4 it   2 1.00000000   0.622E+00       0.000       32.256   0.100E-07
     TRS4 it   3 1.00000000   0.423E+00       0.000       32.256   0.100E-07
     TRS4 it   4 1.00000000   0.215E+00       0.000       32.256   0.100E-07
     TRS4 it   5 1.00000000   0.696E-01       0.000       32.256   0.100E-07
     TRS4 it   6 1.00000000   0.906E-02       0.000       32.256   0.100E-07
     TRS4 it   7 1.00000000   0.201E-03       0.000       32.256   0.100E-07
     TRS4 it   8 1.00000000   0.136E-06       0.000       32.256   0.100E-07
     TRS4 it   9 1.00000000   0.782E-13       0.000       32.256   0.100E-07
     Final TRS4 iteration    9 1.00000000   0.782E-13
     Chemical potential (mu):       0.01305
 
 PAO| energy:  -7.7938274983535747      penalty:   1.5271351280649127E-005
 PAO|CG| trace_G_new    2.6298030339881500E-003
 PAO|CG| trace_G_prev    1.1791937731908784E-002
 PAO|CG| trace_G_mix    6.1777478231183605E-005
 PAO|CG| trace_D    1.6588468215737489E-002
 PAO|CG| trace_D_Gnew   3.4062364072862813E-005
 PAO|CG| beta:   0.21777807974748142     
 PAO| norm of gradient:   5.1281605220470136E-002
 PAO| energy improvement:  -2.1588913800085763E-003
 PAO| step     15                   -7.793827498  0.321E-02  0.372E+00     0.037
 PAO|LS| adapt:  T F F
 PAO|LS| adapt: scan_steps:    0.0000000000000000        0.0000000000000000        0.0000000000000000     
 PAO|LS| adapt: energies:   -7.7938274983535747        0.0000000000000000        0.0000000000000000     
 PAO| ======================= Iteration:        16 =============================

     Lanczos converged:  T threshold:   0.100E-02
     Est. extremal eigenvalues:    0.276E+01   0.181E+00
     Est. condition number :    0.152E+02

 Order=           3
     NS sqrt iter    1 1.00000000   0.704E+00       0.001       64.512
     NS sqrt iter    2 1.00000000   0.327E+00       0.001      110.592
     NS sqrt iter    3 1.00000000   0.742E-01       0.001      110.592
     NS sqrt iter    4 1.00000000   0.179E-02       0.001      110.592
     NS sqrt iter    5 1.00000000   0.533E-07       0.001       70.784
     Symmetrizing Results
     Final NS sqrt iter    5 1.00000000   0.420E-09

     Est. extremal eigenvalues     -0.93650     1.71048  converged:  T
     TRS4 it   1 1.00000000   0.883E+00       0.000       16.128   0.100E-07
     TRS4 it   2 1.00000000   0.621E+00       0.000       32.256   0.100E-07
     TRS4 it   3 1.00000000   0.422E+00       0.000       32.256   0.100E-07
     TRS4 it   4 1.00000000   0.214E+00       0.000       32.256   0.100E-07
     TRS4 it   5 1.00000000   0.684E-01       0.000       32.256   0.100E-07
     TRS4 it   6 1.00000000   0.876E-02       0.000       32.256   0.100E-07
     TRS4 it   7 1.00000000   0.189E-03       0.000       32.256   0.100E-07
     TRS4 it   8 1.00000000   0.122E-06       0.000       32.256   0.100E-07
     TRS4 it   9 1.00000000   0.631E-13       0.000       32.256   0.100E-07
     Final TRS4 iteration    9 1.00000000   0.631E-13
     Chemical potential (mu):       0.01388
 
 PAO| energy:  -7.7939507151985570      penalty:   1.5052322351429692E-005
 PAO|LS| adapt:  T T F
 PAO|LS| adapt: scan_steps:    0.0000000000000000       0.37153461562437312        0.0000000000000000     
 PAO|LS| adapt: energies:   -7.7938274983535747       -7.7939507151985570        0.0000000000000000     
 PAO| ======================= Iteration:        17 =============================

     Lanczos converged:  T threshold:   0.100E-02
     Est. extremal eigenvalues:    0.275E+01   0.182E+00
     Est. condition number :    0.151E+02

 Order=           3
     NS sqrt iter    1 1.00000000   0.702E+00       0.001       64.512
     NS sqrt iter    2 1.00000000   0.326E+00       0.001      110.592
     NS sqrt iter    3 1.00000000   0.735E-01       0.001      110.592
     NS sqrt iter    4 1.00000000   0.174E-02       0.001      110.592
     NS sqrt iter    5 1.00000000   0.482E-07       0.001       70.144
     Symmetrizing Results
     Final NS sqrt iter    5 1.00000000   0.385E-09

     Est. extremal eigenvalues     -0.93640     1.70966  converged:  T
     TRS4 it   1 1.00000000   0.883E+00       0.000       16.128   0.100E-07
     TRS4 it   2 1.00000000   0.620E+00       0.000       32.256   0.100E-07
     TRS4 it   3 1.00000000   0.421E+00       0.000       32.256   0.100E-07
     TRS4 it   4 1.00000000   0.212E+00       0.000       32.256   0.100E-07
     TRS4 it   5 1.00000000   0.673E-01       0.000       32.256   0.100E-07
     TRS4 it   6 1.00000000   0.848E-02       0.000       32.256   0.100E-07
     TRS4 it   7 1.00000000   0.178E-03       0.000       32.256   0.100E-07
     TRS4 it   8 1.00000000   0.109E-06       0.000       32.256   0.100E-07
     TRS4 it   9 1.00000000   0.504E-13       0.000       32.256   0.100E-07
     Final TRS4 iteration    9 1.00000000   0.504E-13
     Chemical potential (mu):       0.01468
 
 PAO| energy:  -7.7923661742519315      penalty:   1.4960791975244290E-005
 PAO|LS| adapt:  T T T
 PAO|LS| adapt: scan_steps:    0.0000000000000000       0.37153461562437312       0.74306923124874624     
 PAO|LS| adapt: energies:   -7.7938274983535747       -7.7939507151985570       -7.7923661742519315     
 PAO|LS| adapt: suggested step_size:   0.21257399161940391     
 PAO|LS| adapt: predicted energy  -7.7941070216241917     
 PAO| ======================= Iteration:        18 =============================

     Lanczos converged:  T threshold:   0.100E-02
     Est. extremal eigenvalues:    0.276E+01   0.181E+00
     Est. condition number :    0.153E+02

 Order=           3
     NS sqrt iter    1 1.00000000   0.704E+00       0.001       64.512
     NS sqrt iter    2 1.00000000   0.328E+00       0.001      110.592
     NS sqrt iter    3 1.00000000   0.745E-01       0.001      110.592
     NS sqrt iter    4 1.00000000   0.182E-02       0.001      110.592
     NS sqrt iter    5 1.00000000   0.557E-07       0.001       70.912
     Symmetrizing Results
     Final NS sqrt iter    5 1.00000000   0.440E-09

     Est. extremal eigenvalues     -0.93650     1.71086  converged:  T
     TRS4 it   1 1.00000000   0.882E+00       0.000       16.128   0.100E-07
     TRS4 it   2 1.00000000   0.621E+00       0.000       32.256   0.100E-07
     TRS4 it   3 1.00000000   0.423E+00       0.000       32.256   0.100E-07
     TRS4 it   4 1.00000000   0.214E+00       0.000       32.256   0.100E-07
     TRS4 it   5 1.00000000   0.689E-01       0.000       32.256   0.100E-07
     TRS4 it   6 1.00000000   0.889E-02       0.000       32.256   0.100E-07
     TRS4 it   7 1.00000000   0.194E-03       0.000       32.256   0.100E-07
     TRS4 it   8 1.00000000   0.128E-06       0.000       32.256   0.100E-07
     TRS4 it   9 1.00000000   0.689E-13       0.000       32.256   0.100E-07
     Final TRS4 iteration    9 1.00000000   0.689E-13
     Chemical potential (mu):       0.01353
 
 PAO| energy:  -7.7941065597296673      penalty:   1.5130712281271932E-005
 PAO|CG| trace_G_new    7.2748217364238552E-004
 PAO|CG| trace_G_prev    2.6298030339881500E-003
 PAO|CG| trace_G_mix    1.5265016906016231E-006
 PAO|CG| trace_D    3.4017130877166484E-003
 PAO|CG| trace_D_Gnew  -1.7279070251321367E-006
 PAO|CG| beta:   0.27604944650583096     
 PAO| norm of gradient:   2.6971877458612063E-002
 PAO| energy improvement:  -2.7906137609257087E-004
 PAO| step     18                   -7.794106560  0.169E-02  0.213E+00     0.037
 PAO|LS| adapt:  T F F
 PAO|LS| adapt: scan_steps:    0.0000000000000000        0.0000000000000000        0.0000000000000000     
 PAO|LS| adapt: energies:   -7.7941065597296673        0.0000000000000000        0.0000000000000000     
 PAO| ======================= Iteration:        19 =============================

     Lanczos converged:  T threshold:   0.100E-02
     Est. extremal eigenvalues:    0.276E+01   0.181E+00
     Est. condition number :    0.153E+02

 Order=           3
     NS sqrt iter    1 1.00000000   0.704E+00       0.001       64.512
     NS sqrt iter    2 1.00000000   0.328E+00       0.001      110.592
     NS sqrt iter    3 1.00000000   0.747E-01       0.001      110.592
     NS sqrt iter    4 1.00000000   0.183E-02       0.001      110.592
     NS sqrt iter    5 1.00000000   0.562E-07       0.001       71.040
     Symmetrizing Results
     Final NS sqrt iter    5 1.00000000   0.433E-09

     Est. extremal eigenvalues     -0.93650     1.71111  converged:  T
     TRS4 it   1 1.00000000   0.883E+00       0.000       16.128   0.100E-07
     TRS4 it   2 1.00000000   0.621E+00       0.000       32.256   0.100E-07
     TRS4 it   3 1.00000000   0.422E+00       0.000       32.256   0.100E-07
     TRS4 it   4 1.00000000   0.214E+00       0.000       32.256   0.100E-07
     TRS4 it   5 1.00000000   0.688E-01       0.000       32.256   0.100E-07
     TRS4 it   6 1.00000000   0.888E-02       0.000       32.256   0.100E-07
     TRS4 it   7 1.00000000   0.194E-03       0.000       32.256   0.100E-07
     TRS4 it   8 1.00000000   0.129E-06       0.000       32.256   0.100E-07
     TRS4 it   9 1.00000000   0.722E-13       0.000       32.256   0.100E-07
     Final TRS4 iteration    9 1.00000000   0.722E-13
     Chemical potential (mu):       0.01325
 
 PAO| energy:  -7.7942246145188312      penalty:   1.4841286537657653E-005
 PAO|LS| adapt:  T T F
 PAO|LS| adapt: scan_steps:    0.0000000000000000       0.21257399161940391        0.0000000000000000     
 PAO|LS| adapt: energies:   -7.7941065597296673       -7.7942246145188312        0.0000000000000000     
 PAO| ======================= Iteration:        20 =============================

     Lanczos converged:  T threshold:   0.100E-02
     Est. extremal eigenvalues:    0.276E+01   0.181E+00
     Est. condition number :    0.153E+02

 Order=           3
     NS sqrt iter    1 1.00000000   0.704E+00       0.001       64.512
     NS sqrt iter    2 1.00000000   0.328E+00       0.001      110.592
     NS sqrt iter    3 1.00000000   0.749E-01       0.001      110.592
     NS sqrt iter    4 1.00000000   0.184E-02       0.001      110.592
     NS sqrt iter    5 1.00000000   0.567E-07       0.001       71.296
     Symmetrizing Results
     Final NS sqrt iter    5 1.00000000   0.468E-09

     Est. extremal eigenvalues     -0.93650     1.71136  converged:  T
     TRS4 it   1 1.00000000   0.883E+00       0.000       16.128   0.100E-07
     TRS4 it   2 1.00000000   0.621E+00       0.000       32.256   0.100E-07
     TRS4 it   3 1.00000000   0.422E+00       0.000       32.256   0.100E-07
     TRS4 it   4 1.00000000   0.214E+00       0.000       32.256   0.100E-07
     TRS4 it   5 1.00000000   0.687E-01       0.000       32.256   0.100E-07
     TRS4 it   6 1.00000000   0.887E-02       0.000       32.256   0.100E-07
     TRS4 it   7 1.00000000   0.195E-03       0.000       32.256   0.100E-07
     TRS4 it   8 1.00000000   0.131E-06       0.000       32.256   0.100E-07
     TRS4 it   9 1.00000000   0.747E-13       0.000       32.256   0.100E-07
     Final TRS4 iteration    9 1.00000000   0.747E-13
     Chemical potential (mu):       0.01297
 
 PAO| energy:  -7.7942689033029007      penalty:   1.4564299242032214E-005
 PAO|LS| adapt:  T T F
 PAO|LS| adapt: scan_steps:    0.0000000000000000       0.42514798323880781        0.0000000000000000     
 PAO|LS| adapt: energies:   -7.7941065597296673       -7.7942689033029007        0.0000000000000000     
 PAO| ======================= Iteration:        21 =============================

     Lanczos converged:  T threshold:   0.100E-02
     Est. extremal eigenvalues:    0.277E+01   0.180E+00
     Est. condition number :    0.153E+02

 Order=           3
     NS sqrt iter    1 1.00000000   0.704E+00       0.001       64.512
     NS sqrt iter    2 1.00000000   0.329E+00       0.001      110.592
     NS sqrt iter    3 1.00000000   0.753E-01       0.001      110.592
     NS sqrt iter    4 1.00000000   0.186E-02       0.001      110.592
     NS sqrt iter    5 1.00000000   0.578E-07       0.001       71.680
     Symmetrizing Results
     Final NS sqrt iter    5 1.00000000   0.462E-09

     Est. extremal eigenvalues     -0.93649     1.71187  converged:  T
     TRS4 it   1 1.00000000   0.883E+00       0.000       16.128   0.100E-07
     TRS4 it   2 1.00000000   0.621E+00       0.000       32.256   0.100E-07
     TRS4 it   3 1.00000000   0.422E+00       0.000       32.256   0.100E-07
     TRS4 it   4 1.00000000   0.214E+00       0.000       32.256   0.100E-07
     TRS4 it   5 1.00000000   0.685E-01       0.000       32.256   0.100E-07
     TRS4 it   6 1.00000000   0.886E-02       0.000       32.256   0.100E-07
     TRS4 it   7 1.00000000   0.196E-03       0.000       32.256   0.100E-07
     TRS4 it   8 1.00000000   0.136E-06       0.000       32.256   0.100E-07
     TRS4 it   9 1.00000000   0.799E-13       0.000       32.256   0.100E-07
     Final TRS4 iteration    9 1.00000000   0.799E-13
     Chemical potential (mu):       0.01240
 
 PAO| energy:  -7.7941337864859852      penalty:   1.4047063108767318E-005
 PAO|LS| Need extra step
 PAO|LS| adapt:  T T T
 PAO|LS| adapt: scan_steps:    0.0000000000000000       0.42514798323880781       0.85029596647761563     
 PAO|LS| adapt: energies:   -7.7941065597296673       -7.7942689033029007       -7.7941337864859852     
 PAO|LS| adapt: suggested step_size:   0.44460502848257061     
 PAO|LS| adapt: predicted energy  -7.7942692148133927     
 PAO| ======================= Iteration:        22 =============================

     Lanczos converged:  T threshold:   0.100E-02
     Est. extremal eigenvalues:    0.276E+01   0.181E+00
     Est. condition number :    0.153E+02

 Order=           3
     NS sqrt iter    1 1.00000000   0.704E+00       0.001       64.512
     NS sqrt iter    2 1.00000000   0.328E+00       0.001      110.592
     NS sqrt iter    3 1.00000000   0.749E-01       0.001      110.592
     NS sqrt iter    4 1.00000000   0.184E-02       0.001      110.592
     NS sqrt iter    5 1.00000000   0.567E-07       0.001       71.296
     Symmetrizing Results
     Final NS sqrt iter    5 1.00000000   0.469E-09

     Est. extremal eigenvalues     -0.93650     1.71138  converged:  T
     TRS4 it   1 1.00000000   0.883E+00       0.000       16.128   0.100E-07
     TRS4 it   2 1.00000000   0.621E+00       0.000       32.256   0.100E-07
     TRS4 it   3 1.00000000   0.422E+00       0.000       32.256   0.100E-07
     TRS4 it   4 1.00000000   0.214E+00       0.000       32.256   0.100E-07
     TRS4 it   5 1.00000000   0.687E-01       0.000       32.256   0.100E-07
     TRS4 it   6 1.00000000   0.887E-02       0.000       32.256   0.100E-07
     TRS4 it   7 1.00000000   0.195E-03       0.000       32.256   0.100E-07
     TRS4 it   8 1.00000000   0.132E-06       0.000       32.256   0.100E-07
     TRS4 it   9 1.00000000   0.745E-13       0.000       32.256   0.100E-07
     Final TRS4 iteration    9 1.00000000   0.745E-13
     Chemical potential (mu):       0.01294
 
 PAO| energy:  -7.7942692508466314      penalty:   1.4539561608021797E-005
 PAO|CG| trace_G_new    2.2146295882136008E-004
 PAO|CG| trace_G_prev    7.2748217364238552E-004
 PAO|CG| trace_G_mix    2.9876346409635003E-006
 PAO|CG| trace_D    9.8765790164510002E-004
 PAO|CG| trace_D_Gnew  -1.8452716071956917E-006
 PAO|CG| beta:   0.30031708280427816     
 PAO| norm of gradient:   1.4881631591373309E-002
 PAO| energy improvement:  -1.6269111696409766E-004
 PAO| step     22                   -7.794269251  0.930E-03  0.445E+00     0.048
 PAO|LS| adapt:  T F F
 PAO|LS| adapt: scan_steps:    0.0000000000000000        0.0000000000000000        0.0000000000000000     
 PAO|LS| adapt: energies:   -7.7942692508466314        0.0000000000000000        0.0000000000000000     
 PAO| ======================= Iteration:        23 =============================

     Lanczos converged:  T threshold:   0.100E-02
     Est. extremal eigenvalues:    0.277E+01   0.181E+00
     Est. condition number :    0.153E+02

 Order=           3
     NS sqrt iter    1 1.00000000   0.704E+00       0.001       64.512
     NS sqrt iter    2 1.00000000   0.328E+00       0.001      110.592
     NS sqrt iter    3 1.00000000   0.750E-01       0.001      110.592
     NS sqrt iter    4 1.00000000   0.184E-02       0.001      110.592
     NS sqrt iter    5 1.00000000   0.568E-07       0.001       71.424
     Symmetrizing Results
     Final NS sqrt iter    5 1.00000000   0.469E-09

     Est. extremal eigenvalues     -0.93650     1.71135  converged:  T
     TRS4 it   1 1.00000000   0.883E+00       0.000       16.128   0.100E-07
     TRS4 it   2 1.00000000   0.621E+00       0.000       32.256   0.100E-07
     TRS4 it   3 1.00000000   0.422E+00       0.000       32.256   0.100E-07
     TRS4 it   4 1.00000000   0.214E+00       0.000       32.256   0.100E-07
     TRS4 it   5 1.00000000   0.688E-01       0.000       32.256   0.100E-07
     TRS4 it   6 1.00000000   0.891E-02       0.000       32.256   0.100E-07
     TRS4 it   7 1.00000000   0.197E-03       0.000       32.256   0.100E-07
     TRS4 it   8 1.00000000   0.135E-06       0.000       32.256   0.100E-07
     TRS4 it   9 1.00000000   0.781E-13       0.000       32.256   0.100E-07
     Final TRS4 iteration    9 1.00000000   0.781E-13
     Chemical potential (mu):       0.01262
 
 PAO| energy:  -7.7943183101442175      penalty:   1.3857122067932932E-005
 PAO|LS| adapt:  T T F
 PAO|LS| adapt: scan_steps:    0.0000000000000000       0.44460502848257061        0.0000000000000000     
 PAO|LS| adapt: energies:   -7.7942692508466314       -7.7943183101442175        0.0000000000000000     
 PAO| ======================= Iteration:        24 =============================

     Lanczos converged:  T threshold:   0.100E-02
     Est. extremal eigenvalues:    0.277E+01   0.181E+00
     Est. condition number :    0.153E+02

 Order=           3
     NS sqrt iter    1 1.00000000   0.704E+00       0.001       64.512
     NS sqrt iter    2 1.00000000   0.329E+00       0.001      110.592
     NS sqrt iter    3 1.00000000   0.750E-01       0.001      110.592
     NS sqrt iter    4 1.00000000   0.184E-02       0.001      110.592
     NS sqrt iter    5 1.00000000   0.569E-07       0.001       71.424
     Symmetrizing Results
     Final NS sqrt iter    5 1.00000000   0.473E-09

     Est. extremal eigenvalues     -0.93650     1.71132  converged:  T
     TRS4 it   1 1.00000000   0.882E+00       0.000       16.128   0.100E-07
     TRS4 it   2 1.00000000   0.621E+00       0.000       32.256   0.100E-07
     TRS4 it   3 1.00000000   0.422E+00       0.000       32.256   0.100E-07
     TRS4 it   4 1.00000000   0.214E+00       0.000       32.256   0.100E-07
     TRS4 it   5 1.00000000   0.690E-01       0.000       32.256   0.100E-07
     TRS4 it   6 1.00000000   0.896E-02       0.000       32.256   0.100E-07
     TRS4 it   7 1.00000000   0.200E-03       0.000       32.256   0.100E-07
     TRS4 it   8 1.00000000   0.139E-06       0.000       32.256   0.100E-07
     TRS4 it   9 1.00000000   0.824E-13       0.000       32.256   0.100E-07
     Final TRS4 iteration    9 1.00000000   0.824E-13
     Chemical potential (mu):       0.01229
 
 PAO| energy:  -7.7942674405633205      penalty:   1.3202968631463916E-005
 PAO|LS| adapt:  T T T
 PAO|LS| adapt: scan_steps:    0.0000000000000000       0.44460502848257061       0.88921005696514122     
 PAO|LS| adapt: energies:   -7.7942692508466314       -7.7943183101442175       -7.7942674405633205     
 PAO|LS| adapt: suggested step_size:   0.44057785898371304     
 PAO|LS| adapt: predicted energy  -7.7943183142435393     
 PAO| ======================= Iteration:        25 =============================

     Lanczos converged:  T threshold:   0.100E-02
     Est. extremal eigenvalues:    0.277E+01   0.181E+00
     Est. condition number :    0.153E+02

 Order=           3
     NS sqrt iter    1 1.00000000   0.704E+00       0.001       64.512
     NS sqrt iter    2 1.00000000   0.328E+00       0.001      110.592
     NS sqrt iter    3 1.00000000   0.750E-01       0.001      110.592
     NS sqrt iter    4 1.00000000   0.184E-02       0.001      110.592
     NS sqrt iter    5 1.00000000   0.568E-07       0.001       71.424
     Symmetrizing Results
     Final NS sqrt iter    5 1.00000000   0.469E-09

     Est. extremal eigenvalues     -0.93650     1.71135  converged:  T
     TRS4 it   1 1.00000000   0.883E+00       0.000       16.128   0.100E-07
     TRS4 it   2 1.00000000   0.621E+00       0.000       32.256   0.100E-07
     TRS4 it   3 1.00000000   0.422E+00       0.000       32.256   0.100E-07
     TRS4 it   4 1.00000000   0.214E+00       0.000       32.256   0.100E-07
     TRS4 it   5 1.00000000   0.688E-01       0.000       32.256   0.100E-07
     TRS4 it   6 1.00000000   0.891E-02       0.000       32.256   0.100E-07
     TRS4 it   7 1.00000000   0.197E-03       0.000       32.256   0.100E-07
     TRS4 it   8 1.00000000   0.135E-06       0.000       32.256   0.100E-07
     TRS4 it   9 1.00000000   0.788E-13       0.000       32.256   0.100E-07
     Final TRS4 iteration    9 1.00000000   0.788E-13
     Chemical potential (mu):       0.01262
 
 PAO| energy:  -7.7943183128207361      penalty:   1.3863175644864012E-005
 PAO|CG| trace_G_new    7.8597362858967570E-005
 PAO|CG| trace_G_prev    2.2146295882136008E-004
 PAO|CG| trace_G_mix    6.9166009718712829E-007
 PAO|CG| trace_D    3.1164850404441253E-004
 PAO|CG| trace_D_Gnew  -3.5333550714250633E-007
 PAO|CG| beta:   0.35177757570114448     
 PAO| norm of gradient:   8.8655153746957979E-003
 PAO| energy improvement:  -4.9061974104702699E-005
 PAO| step     25                   -7.794318313  0.554E-03  0.441E+00     0.037
 PAO|LS| adapt:  T F F
 PAO|LS| adapt: scan_steps:    0.0000000000000000        0.0000000000000000        0.0000000000000000     
 PAO|LS| adapt: energies:   -7.7943183128207361        0.0000000000000000        0.0000000000000000     
 PAO| ======================= Iteration:        26 =============================

     Lanczos converged:  T threshold:   0.100E-02
     Est. extremal eigenvalues:    0.276E+01   0.181E+00
     Est. condition number :    0.153E+02

 Order=           3
     NS sqrt iter    1 1.00000000   0.704E+00       0.001       64.512
     NS sqrt iter    2 1.00000000   0.328E+00       0.001      110.592
     NS sqrt iter    3 1.00000000   0.749E-01       0.001      110.592
     NS sqrt iter    4 1.00000000   0.183E-02       0.001      110.592
     NS sqrt iter    5 1.00000000   0.564E-07       0.001       71.296
     Symmetrizing Results
     Final NS sqrt iter    5 1.00000000   0.470E-09

     Est. extremal eigenvalues     -0.93650     1.71116  converged:  T
     TRS4 it   1 1.00000000   0.883E+00       0.000       16.128   0.100E-07
     TRS4 it   2 1.00000000   0.621E+00       0.000       32.256   0.100E-07
     TRS4 it   3 1.00000000   0.422E+00       0.000       32.256   0.100E-07
     TRS4 it   4 1.00000000   0.214E+00       0.000       32.256   0.100E-07
     TRS4 it   5 1.00000000   0.688E-01       0.000       32.256   0.100E-07
     TRS4 it   6 1.00000000   0.890E-02       0.000       32.256   0.100E-07
     TRS4 it   7 1.00000000   0.196E-03       0.000       32.256   0.100E-07
     TRS4 it   8 1.00000000   0.134E-06       0.000       32.256   0.100E-07
     TRS4 it   9 1.00000000   0.770E-13       0.000       32.256   0.100E-07
     Final TRS4 iteration    9 1.00000000   0.770E-13
     Chemical potential (mu):       0.01272
 
 PAO| energy:  -7.7943221200415804      penalty:   1.3143872026192954E-005
 PAO|LS| adapt:  T T F
 PAO|LS| adapt: scan_steps:    0.0000000000000000       0.44057785898371304        0.0000000000000000     
 PAO|LS| adapt: energies:   -7.7943183128207361       -7.7943221200415804        0.0000000000000000     
 PAO| ======================= Iteration:        27 =============================

     Lanczos converged:  T threshold:   0.100E-02
     Est. extremal eigenvalues:    0.276E+01   0.181E+00
     Est. condition number :    0.153E+02

 Order=           3
     NS sqrt iter    1 1.00000000   0.704E+00       0.001       64.512
     NS sqrt iter    2 1.00000000   0.328E+00       0.001      110.592
     NS sqrt iter    3 1.00000000   0.748E-01       0.001      110.592
     NS sqrt iter    4 1.00000000   0.183E-02       0.001      110.592
     NS sqrt iter    5 1.00000000   0.561E-07       0.001       71.296
     Symmetrizing Results
     Final NS sqrt iter    5 1.00000000   0.467E-09

     Est. extremal eigenvalues     -0.93650     1.71096  converged:  T
     TRS4 it   1 1.00000000   0.883E+00       0.000       16.128   0.100E-07
     TRS4 it   2 1.00000000   0.621E+00       0.000       32.256   0.100E-07
     TRS4 it   3 1.00000000   0.422E+00       0.000       32.256   0.100E-07
     TRS4 it   4 1.00000000   0.214E+00       0.000       32.256   0.100E-07
     TRS4 it   5 1.00000000   0.687E-01       0.000       32.256   0.100E-07
     TRS4 it   6 1.00000000   0.889E-02       0.000       32.256   0.100E-07
     TRS4 it   7 1.00000000   0.196E-03       0.000       32.256   0.100E-07
     TRS4 it   8 1.00000000   0.133E-06       0.000       32.256   0.100E-07
     TRS4 it   9 1.00000000   0.754E-13       0.000       32.256   0.100E-07
     Final TRS4 iteration    9 1.00000000   0.754E-13
     Chemical potential (mu):       0.01282
 
 PAO| energy:  -7.7942640727933012      penalty:   1.2447902195117902E-005
 PAO|LS| adapt:  T T T
 PAO|LS| adapt: scan_steps:    0.0000000000000000       0.44057785898371304       0.88115571796742609     
 PAO|LS| adapt: energies:   -7.7943183128207361       -7.7943221200415804       -7.7942640727933012     
 PAO|LS| adapt: suggested step_size:   0.24740705421358403     
 PAO|LS| adapt: predicted energy  -7.7943280654094291     
 PAO| ======================= Iteration:        28 =============================

     Lanczos converged:  T threshold:   0.100E-02
     Est. extremal eigenvalues:    0.277E+01   0.181E+00
     Est. condition number :    0.153E+02

 Order=           3
     NS sqrt iter    1 1.00000000   0.704E+00       0.001       64.512
     NS sqrt iter    2 1.00000000   0.328E+00       0.001      110.592
     NS sqrt iter    3 1.00000000   0.749E-01       0.001      110.592
     NS sqrt iter    4 1.00000000   0.184E-02       0.001      110.592
     NS sqrt iter    5 1.00000000   0.566E-07       0.001       71.296
     Symmetrizing Results
     Final NS sqrt iter    5 1.00000000   0.471E-09

     Est. extremal eigenvalues     -0.93650     1.71124  converged:  T
     TRS4 it   1 1.00000000   0.883E+00       0.000       16.128   0.100E-07
     TRS4 it   2 1.00000000   0.621E+00       0.000       32.256   0.100E-07
     TRS4 it   3 1.00000000   0.422E+00       0.000       32.256   0.100E-07
     TRS4 it   4 1.00000000   0.214E+00       0.000       32.256   0.100E-07
     TRS4 it   5 1.00000000   0.688E-01       0.000       32.256   0.100E-07
     TRS4 it   6 1.00000000   0.891E-02       0.000       32.256   0.100E-07
     TRS4 it   7 1.00000000   0.197E-03       0.000       32.256   0.100E-07
     TRS4 it   8 1.00000000   0.134E-06       0.000       32.256   0.100E-07
     TRS4 it   9 1.00000000   0.784E-13       0.000       32.256   0.100E-07
     Final TRS4 iteration    9 1.00000000   0.784E-13
     Chemical potential (mu):       0.01267
 
 PAO| energy:  -7.7943280564313744      penalty:   1.3456358814455693E-005
 PAO|CG| trace_G_new    3.0643562306348495E-005
 PAO|CG| trace_G_prev    7.8597362858967570E-005
 PAO|CG| trace_G_mix    4.5373679797193046E-008
 PAO|CG| trace_D    1.1741166552556094E-004
 PAO|CG| trace_D_Gnew  -2.3846851532717130E-008
 PAO|CG| beta:   0.38930299330087764     
 PAO| norm of gradient:   5.5356627702876282E-003
 PAO| energy improvement:  -9.7436106383241849E-006
 PAO| step     28                   -7.794328056  0.346E-03  0.247E+00     0.037
 PAO|LS| adapt:  T F F
 PAO|LS| adapt: scan_steps:    0.0000000000000000        0.0000000000000000        0.0000000000000000     
 PAO|LS| adapt: energies:   -7.7943280564313744        0.0000000000000000        0.0000000000000000     
 PAO| ======================= Iteration:        29 =============================

     Lanczos converged:  T threshold:   0.100E-02
     Est. extremal eigenvalues:    0.276E+01   0.181E+00
     Est. condition number :    0.153E+02

 Order=           3
     NS sqrt iter    1 1.00000000   0.704E+00       0.001       64.512
     NS sqrt iter    2 1.00000000   0.328E+00       0.001      110.592
     NS sqrt iter    3 1.00000000   0.748E-01       0.001      110.592
     NS sqrt iter    4 1.00000000   0.183E-02       0.001      110.592
     NS sqrt iter    5 1.00000000   0.565E-07       0.001       71.296
     Symmetrizing Results
     Final NS sqrt iter    5 1.00000000   0.470E-09

     Est. extremal eigenvalues     -0.93650     1.71121  converged:  T
     TRS4 it   1 1.00000000   0.883E+00       0.000       16.128   0.100E-07
     TRS4 it   2 1.00000000   0.621E+00       0.000       32.256   0.100E-07
     TRS4 it   3 1.00000000   0.422E+00       0.000       32.256   0.100E-07
     TRS4 it   4 1.00000000   0.214E+00       0.000       32.256   0.100E-07
     TRS4 it   5 1.00000000   0.687E-01       0.000       32.256   0.100E-07
     TRS4 it   6 1.00000000   0.889E-02       0.000       32.256   0.100E-07
     TRS4 it   7 1.00000000   0.196E-03       0.000       32.256   0.100E-07
     TRS4 it   8 1.00000000   0.133E-06       0.000       32.256   0.100E-07
     TRS4 it   9 1.00000000   0.756E-13       0.000       32.256   0.100E-07
     Final TRS4 iteration    9 1.00000000   0.756E-13
     Chemical potential (mu):       0.01279
 
 PAO| energy:  -7.7943347430650611      penalty:   1.3031822723919153E-005
 PAO|LS| adapt:  T T F
 PAO|LS| adapt: scan_steps:    0.0000000000000000       0.24740705421358403        0.0000000000000000     
 PAO|LS| adapt: energies:   -7.7943280564313744       -7.7943347430650611        0.0000000000000000     
 PAO| ======================= Iteration:        30 =============================

     Lanczos converged:  T threshold:   0.100E-02
     Est. extremal eigenvalues:    0.276E+01   0.181E+00
     Est. condition number :    0.153E+02

 Order=           3
     NS sqrt iter    1 1.00000000   0.704E+00       0.001       64.512
     NS sqrt iter    2 1.00000000   0.328E+00       0.001      110.592
     NS sqrt iter    3 1.00000000   0.748E-01       0.001      110.592
     NS sqrt iter    4 1.00000000   0.183E-02       0.001      110.592
     NS sqrt iter    5 1.00000000   0.564E-07       0.001       71.296
     Symmetrizing Results
     Final NS sqrt iter    5 1.00000000   0.469E-09

     Est. extremal eigenvalues     -0.93651     1.71119  converged:  T
     TRS4 it   1 1.00000000   0.883E+00       0.000       16.128   0.100E-07
     TRS4 it   2 1.00000000   0.621E+00       0.000       32.256   0.100E-07
     TRS4 it   3 1.00000000   0.422E+00       0.000       32.256   0.100E-07
     TRS4 it   4 1.00000000   0.214E+00       0.000       32.256   0.100E-07
     TRS4 it   5 1.00000000   0.687E-01       0.000       32.256   0.100E-07
     TRS4 it   6 1.00000000   0.887E-02       0.000       32.256   0.100E-07
     TRS4 it   7 1.00000000   0.195E-03       0.000       32.256   0.100E-07
     TRS4 it   8 1.00000000   0.132E-06       0.000       32.256   0.100E-07
     TRS4 it   9 1.00000000   0.744E-13       0.000       32.256   0.100E-07
     Final TRS4 iteration    9 1.00000000   0.744E-13
     Chemical potential (mu):       0.01291
 
 PAO| energy:  -7.7943396354544356      penalty:   1.2614851656759419E-005
 PAO|LS| adapt:  T T F
 PAO|LS| adapt: scan_steps:    0.0000000000000000       0.49481410842716805        0.0000000000000000     
 PAO|LS| adapt: energies:   -7.7943280564313744       -7.7943396354544356        0.0000000000000000     
 PAO| ======================= Iteration:        31 =============================

     Lanczos converged:  T threshold:   0.100E-02
     Est. extremal eigenvalues:    0.276E+01   0.181E+00
     Est. condition number :    0.153E+02

 Order=           3
     NS sqrt iter    1 1.00000000   0.703E+00       0.001       64.512
     NS sqrt iter    2 1.00000000   0.328E+00       0.001      110.592
     NS sqrt iter    3 1.00000000   0.747E-01       0.001      110.592
     NS sqrt iter    4 1.00000000   0.183E-02       0.001      110.592
     NS sqrt iter    5 1.00000000   0.562E-07       0.001       71.168
     Symmetrizing Results
     Final NS sqrt iter    5 1.00000000   0.475E-09

     Est. extremal eigenvalues     -0.93651     1.71112  converged:  T
     TRS4 it   1 1.00000000   0.883E+00       0.000       16.128   0.100E-07
     TRS4 it   2 1.00000000   0.621E+00       0.000       32.256   0.100E-07
     TRS4 it   3 1.00000000   0.422E+00       0.000       32.256   0.100E-07
     TRS4 it   4 1.00000000   0.214E+00       0.000       32.256   0.100E-07
     TRS4 it   5 1.00000000   0.685E-01       0.000       32.256   0.100E-07
     TRS4 it   6 1.00000000   0.883E-02       0.000       32.256   0.100E-07
     TRS4 it   7 1.00000000   0.193E-03       0.000       32.256   0.100E-07
     TRS4 it   8 1.00000000   0.129E-06       0.000       32.256   0.100E-07
     TRS4 it   9 1.00000000   0.702E-13       0.000       32.256   0.100E-07
     Final TRS4 iteration    9 1.00000000   0.702E-13
     Chemical potential (mu):       0.01315
 
 PAO| energy:  -7.7943440391005492      penalty:   1.1803457791033839E-005
 PAO|LS| Need extra step
 PAO|LS| adapt:  T T F
 PAO|LS| adapt: scan_steps:    0.0000000000000000       0.98962821685433611        0.0000000000000000     
 PAO|LS| adapt: energies:   -7.7943280564313744       -7.7943440391005492        0.0000000000000000     
 PAO| ======================= Iteration:        32 =============================

     Lanczos converged:  T threshold:   0.100E-02
     Est. extremal eigenvalues:    0.276E+01   0.180E+00
     Est. condition number :    0.153E+02

 Order=           3
[...]
     NS sqrt iter    4 1.00000000   0.734E-03       0.001      110.592
     NS sqrt iter    5 1.00000000   0.519E-08       0.001       38.144
     Symmetrizing Results
     Final NS sqrt iter    5 1.00000000   0.310E-09

     Est. extremal eigenvalues     -0.93619     1.62569  converged:  T
     TRS4 it   1 1.00000000   0.881E+00       0.000       16.128   0.100E-07
     TRS4 it   2 1.00000000   0.632E+00       0.000       32.256   0.100E-07
     TRS4 it   3 1.00000000   0.453E+00       0.000       32.256   0.100E-07
     TRS4 it   4 1.00000000   0.275E+00       0.000       32.256   0.100E-07
     TRS4 it   5 1.00000000   0.135E+00       0.000       32.256   0.100E-07
     TRS4 it   6 1.00000000   0.410E-01       0.000       32.256   0.100E-07
     TRS4 it   7 1.00000000   0.526E-02       0.000       32.256   0.100E-07
     TRS4 it   8 1.00000000   0.117E-03       0.000       32.256   0.100E-07
     TRS4 it   9 1.00000000   0.611E-07       0.000       32.256   0.100E-07
     Final TRS4 iteration    9 1.00000000   0.611E-07
     Chemical potential (mu):      -0.07242
 
 PAO| energy:  -7.7933708739043119      penalty:   2.6761790264166452E-008
 PAO|CG| warming up with steepest descent
 PAO|CG| beta:    0.0000000000000000     
 PAO| norm of gradient:   1.3571868824474429E-004
 PAO| energy improvement:  -5.4051998432669279E-009
 PAO| step    408                   -7.793370874  0.848E-05  0.264E+00     0.056
 PAO| converged after          408  steps :-)
 PAO| Recalculating energy after mixing.

     Lanczos converged:  T threshold:   0.100E-02
     Est. extremal eigenvalues:    0.248E+01   0.191E+00
     Est. condition number :    0.130E+02

 Order=           3
     NS sqrt iter    1 1.00000000   0.630E+00       0.001       64.512
     NS sqrt iter    2 1.00000000   0.273E+00       0.001      110.592
     NS sqrt iter    3 1.00000000   0.480E-01       0.001      110.592
     NS sqrt iter    4 1.00000000   0.734E-03       0.001      110.592
     NS sqrt iter    5 1.00000000   0.519E-08       0.001       38.144
     Symmetrizing Results
     Final NS sqrt iter    5 1.00000000   0.310E-09

     Est. extremal eigenvalues     -0.93619     1.62569  converged:  T
     TRS4 it   1 1.00000000   0.881E+00       0.000       16.128   0.100E-07
     TRS4 it   2 1.00000000   0.632E+00       0.000       32.256   0.100E-07
     TRS4 it   3 1.00000000   0.453E+00       0.000       32.256   0.100E-07
     TRS4 it   4 1.00000000   0.275E+00       0.000       32.256   0.100E-07
     TRS4 it   5 1.00000000   0.135E+00       0.000       32.256   0.100E-07
     TRS4 it   6 1.00000000   0.410E-01       0.000       32.256   0.100E-07
     TRS4 it   7 1.00000000   0.526E-02       0.000       32.256   0.100E-07
     TRS4 it   8 1.00000000   0.117E-03       0.000       32.256   0.100E-07
     TRS4 it   9 1.00000000   0.611E-07       0.000       32.256   0.100E-07
     Final TRS4 iteration    9 1.00000000   0.611E-07
     Chemical potential (mu):      -0.07242
 
 PAO| energy:  -7.7933708725530009      penalty:   2.7048515032404629E-008
 PAO| Writing restart file.
     Est. extremal eigenvalues     -0.93619     1.62569  converged:  T
     TRS4 it   1 1.00000000   0.881E+00       0.000       16.128   0.100E-07
     TRS4 it   2 1.00000000   0.632E+00       0.000       32.256   0.100E-07
     TRS4 it   3 1.00000000   0.453E+00       0.000       32.256   0.100E-07
     TRS4 it   4 1.00000000   0.275E+00       0.000       32.256   0.100E-07
     TRS4 it   5 1.00000000   0.135E+00       0.000       32.256   0.100E-07
     TRS4 it   6 1.00000000   0.410E-01       0.000       32.256   0.100E-07
     TRS4 it   7 1.00000000   0.526E-02       0.000       32.256   0.100E-07
     TRS4 it   8 1.00000000   0.117E-03       0.000       32.256   0.100E-07
     TRS4 it   9 1.00000000   0.611E-07       0.000       32.256   0.100E-07
     Final TRS4 iteration    9 1.00000000   0.611E-07
     Chemical potential (mu):      -0.07242

 SCF     1       -34.450264809       -34.450264809    1.911670

*********************************************************
 Using MIXING_FRACTION=0.450 to mix KS matrix:  iscf=  2
 KS_nw=0.450*KS + 0.550*KS_old
*********************************************************
     Est. extremal eigenvalues     -0.93620     1.62569  converged:  T
     TRS4 it   1 1.00000000   0.881E+00       0.000       16.128   0.100E-07
     TRS4 it   2 1.00000000   0.632E+00       0.000       32.256   0.100E-07
     TRS4 it   3 1.00000000   0.453E+00       0.000       32.256   0.100E-07
     TRS4 it   4 1.00000000   0.275E+00       0.000       32.256   0.100E-07
     TRS4 it   5 1.00000000   0.135E+00       0.000       32.256   0.100E-07
     TRS4 it   6 1.00000000   0.410E-01       0.000       32.256   0.100E-07
     TRS4 it   7 1.00000000   0.526E-02       0.000       32.256   0.100E-07
     TRS4 it   8 1.00000000   0.117E-03       0.000       32.256   0.100E-07
     TRS4 it   9 1.00000000   0.611E-07       0.000       32.256   0.100E-07
     Final TRS4 iteration    9 1.00000000   0.611E-07
     Chemical potential (mu):      -0.07242

 SCF     2       -34.450264810        -0.000000000    1.863549


 SCF run converged in     2 steps.

 PAO| Storing density matrix for ASPC guess in slot:           1

 ENERGY| Total FORCE_EVAL ( QS ) energy [a.u.]:              -34.450264809528107

 -------------------------------------------------------------------------------
 -                                                                             -
 -                                DBCSR STATISTICS                             -
 -                                                                             -
 -------------------------------------------------------------------------------
 COUNTER                                    TOTAL       BLAS       SMM       ACC
 flops     5 x     5 x     4                20000       0.0%    100.0%      0.0%
 flops    13 x     5 x     4                20800       0.0%    100.0%      0.0%
 flops     5 x    13 x     4                20800       0.0%    100.0%      0.0%
 flops    13 x    13 x     4                40560       0.0%    100.0%      0.0%
 flops     4 x     4 x     5              3206400       0.0%    100.0%      0.0%
 flops     5 x     4 x     5              3920000       0.0%    100.0%      0.0%
 flops     4 x     4 x    13              4168320       0.0%    100.0%      0.0%
 flops    13 x     4 x     5              5096000       0.0%    100.0%      0.0%
 flops     5 x     4 x    13              5096000       0.0%    100.0%      0.0%
 flops     5 x     4 x     4              6499520       0.0%    100.0%      0.0%
 flops    13 x     4 x    13              6624800       0.0%    100.0%      0.0%
 flops    13 x     4 x     4              8743072       0.0%    100.0%      0.0%
 flops     4 x     4 x     4            408790144       0.0%    100.0%      0.0%
 flops inhomo. stacks                           0       0.0%      0.0%      0.0%
 flops total                       452.246416E+06       0.0%    100.0%      0.0%
 flops max/rank                    452.246416E+06       0.0%    100.0%      0.0%
 matmuls inhomo. stacks                         0       0.0%      0.0%      0.0%
 matmuls total                            3329682       0.0%    100.0%      0.0%
 number of processed stacks                 26601       0.0%    100.0%      0.0%
 average stack size                                     0.0     125.2       0.0
 marketing flops                   733.888320E+06
 -------------------------------------------------------------------------------
 # multiplications                          22110
 max memory usage/rank             504.422400E+06
 # max total images/rank                        1
 # max 3D layers                                1
 # MPI messages exchanged                       0
 -------------------------------------------------------------------------------

 -------------------------------------------------------------------------------
 -                                                                             -
 -                                DBM STATISTICS                               -
 -                                                                             -
 -------------------------------------------------------------------------------
    M  x    N  x    K                                          COUNT     PERCENT
 -------------------------------------------------------------------------------

 -------------------------------------------------------------------------------
 -                                                                             -
 -                                GRID STATISTICS                              -
 -                                                                             -
 -------------------------------------------------------------------------------
 LP    KERNEL             BACKEND                              COUNT     PERCENT
 2     collocate ortho    REF                                  38170      30.79%
 2     integrate ortho    REF                                  38170      30.79%
 3     collocate ortho    REF                                  19560      15.78%
 3     integrate ortho    REF                                  19560      15.78%
 4     collocate ortho    REF                                   4250       3.43%
 4     integrate ortho    REF                                   4250       3.43%
 0     collocate general  REF                                      6       0.00%
 -------------------------------------------------------------------------------

 MEMORY| Estimated peak process memory [MiB]                                 482

 -------------------------------------------------------------------------------
 -                                                                             -
 -                           R E F E R E N C E S                               -
 -                                                                             -
 -------------------------------------------------------------------------------
 
 CP2K version 2023.1 (Development Version), the CP2K developers group (2023).
 CP2K is freely available from https://www.cp2k.org/ .

 Kuehne,Thomas D.; Iannuzzi,Marcella; Del Ben,Mauro;
 Rybkin,Vladimir V.; Seewald,Patrick; Stein,Frederick; Laino,Teodoro;
 Khaliullin,Rustam Z.; Schuett,Ole; Schiffmann,Florian; Golze,Dorothea;
 Wilhelm,Jan; Chulkov,Sergey; Bani-Hashemian,Mohammad Hossein;
 Weber,Valery; Borstnik,Urban; Taillefumier,Mathieu;
 Jakobovits,Alice Shoshana; Lazzaro,Alfio; Pabst,Hans; Mueller,Tiziano;
 Schade,Robert; Guidon,Manuel; Andermatt,Samuel; Holmberg,Nico;
 Schenter,Gregory K.; Hehn,Anna; Bussy,Augustin; Belleflamme,Fabian;
 Tabacchi,Gloria; Gloess,Andreas; Lass,Michael; Bethune,Iain;
 Mundy,Christopher J.; Plessl,Christian; Watkins,Matt;
 VandeVondele,Joost; Krack,Matthias; Hutter,Juerg. 
 The Journal of Chemical Physics, 152 (19), (2020). 
 CP2K: An electronic structure and molecular dynamics software package -
 Quickstep: Efficient and accurate electronic structure calculations.
 https://doi.org/10.1063/5.0007045

 Schuett, O; VandeVondele, J. 
 Journal of Chemical Theory and Computation, 14, (2018). 
 Machine Learning Adaptive Basis Sets for Efficient Large Scale
 Density Functional Theory Simulation.
 https://doi.org/10.1021/acs.jctc.8b00378

 Schuett, Ole; Messmer, Peter; Hutter, Juerg; VandeVondele, Joost. 
 Electronic Structure Calculations on Graphics Processing Units, John
 Wiley & Sons, Ltd, 173-190 (2016). 
 GPU-Accelerated Sparse Matrix-Matrix Multiplication for
 Linear Scaling Density Functional Theory.
 https://doi.org/10.1002/9781118670712.ch8

 Heinecke, A; Henry, G; Hutchinson, M; Pabst, H. 
 Proceedings of Intl. Supercomputing Conference, 981-991 (2016). 
 LIBXSMM: Accelerating Small Matrix Multiplications
 by Runtime Code Generation.
 https://doi.org/10.1109/SC.2016.83

 Borstnik, U; VandeVondele, J; Weber, V; Hutter, J. 
 PARALLEL COMPUTING, 40 (5-6), 47-58 (2014). 
 Sparse matrix multiplication: The distributed block-compressed sparse
 row library.
 https://doi.org/10.1016/j.parco.2014.03.012

 Hutter, J; Iannuzzi, M; Schiffmann, F; VandeVondele, J. 
 WIREs Comput Mol Sci., 4 (1), 15-25 (2014). 
 CP2K: atomistic simulations of condensed matter systems.
 https://doi.org/10.1002/wcms.1159

 VandeVondele, J; Borstnik, U; Hutter, J. 
 JOURNAL OF CHEMICAL THEORY AND COMPUTATION, 8 (10), 3565-3573 (2012). 
 Linear Scaling Self-Consistent Field Calculations with Millions of Atoms
 in the Condensed Phase.
 https://doi.org/10.1021/ct200897x

 VandeVondele, J; Hutter, J. 
 JOURNAL OF CHEMICAL PHYSICS, 127 (11), 114105 (2007). 
 Gaussian basis sets for accurate calculations on molecular systems in
 gas and condensed phases.
 https://doi.org/10.1063/1.2770708

 Krack, M. 
 THEORETICAL CHEMISTRY ACCOUNTS, 114 (1-3), 145-152 (2005). 
 Pseudopotentials for H to Kr optimized for gradient-corrected
 exchange-correlation functionals.
 https://doi.org/10.1007/s00214-005-0655-y

 VandeVondele, J; Krack, M; Mohamed, F; Parrinello, M; Chassaing, T;
 Hutter, J. COMPUTER PHYSICS COMMUNICATIONS, 167 (2), 103-128 (2005). 
 QUICKSTEP: Fast and accurate density functional calculations using a
 mixed Gaussian and plane waves approach.
 https://doi.org/10.1016/j.cpc.2004.12.014

 Frigo, M; Johnson, SG. 
 PROCEEDINGS OF THE IEEE, 93 (2), 216-231 (2005). 
 The design and implementation of FFTW3.
 https://doi.org/10.1109/JPROC.2004.840301

 Niklasson, AMN; Tymczak, CJ; Challacombe, M. 
 JOURNAL OF CHEMICAL PHYSICS, 118 (19), 8611-8620 (2003). 
 Trace resetting density matrix purification in O(N)
 self-consistent-field theory.
 https://doi.org/10.1063/1.1559913

 Hartwigsen, C; Goedecker, S; Hutter, J. 
 PHYSICAL REVIEW B, 58 (7), 3641-3662 (1998). 
 Relativistic separable dual-space Gaussian pseudopotentials from H to Rn.
 https://doi.org/10.1103/PhysRevB.58.3641

 Lippert, G; Hutter, J; Parrinello, M. 
 MOLECULAR PHYSICS, 92 (3), 477-487 (1997). 
 A hybrid Gaussian and plane wave density functional scheme.
 https://doi.org/10.1080/002689797170220

 Perdew, JP; Burke, K; Ernzerhof, M. 
 PHYSICAL REVIEW LETTERS, 77 (18), 3865-3868 (1996). 
 Generalized gradient approximation made simple.
 https://doi.org/10.1103/PhysRevLett.77.3865

 Goedecker, S; Teter, M; Hutter, J. 
 PHYSICAL REVIEW B, 54 (3), 1703-1710 (1996). 
 Separable dual-space Gaussian pseudopotentials.
 https://doi.org/10.1103/PhysRevB.54.1703


 -------------------------------------------------------------------------------
 -                                                                             -
 -                                T I M I N G                                  -
 -                                                                             -
 -------------------------------------------------------------------------------
 SUBROUTINE                       CALLS  ASD         SELF TIME        TOTAL TIME
                                MAXIMUM       AVERAGE  MAXIMUM  AVERAGE  MAXIMUM
 CP2K                                 1  1.0    0.010    0.010   23.523   23.523
 qs_energies                          1  2.0    0.000    0.000   23.141   23.141
 ls_scf                               1  3.0    0.000    0.000   23.018   23.018
 ls_scf_main                          4  4.0    0.001    0.001   15.694   15.694
 ls_scf_dm_to_ks                      9  5.0    0.000    0.000   15.635   15.635
 qs_ks_update_qs_env                 10  6.0    0.000    0.000   14.129   14.129
 rebuild_ks_matrix                   10  7.0    0.000    0.000   14.129   14.129
 qs_ks_build_kohn_sham_matrix        10  8.0    0.003    0.003   14.128   14.128
 qs_vxc_create                       10  9.0    0.000    0.000    9.095    9.095
 xc_vxc_pw_create                    10 10.0    0.185    0.185    9.095    9.095
 pw_transfer                        191 11.1    0.020    0.020    7.409    7.409
 fft_wrap_pw1pw2                    171 12.3    0.003    0.003    7.205    7.205
 fft_wrap_pw1pw2_200                111 13.7    0.899    0.899    7.014    7.014
 xc_pw_derive                        60 12.0    0.001    0.001    5.444    5.444
 xc_rho_set_and_dset_create          10 11.0    0.239    0.239    5.114    5.114
 pao_update                           4  4.0    0.005    0.005    5.011    5.011
 pao_calc_energy                    411  5.0    0.002    0.002    4.531    4.531
 qs_rho_update_rho_low               10  6.0    0.000    0.000    3.783    3.783
 calculate_rho_elec                  10  7.0    0.034    0.034    3.783    3.783
 sum_up_and_integrate                10  9.0    0.134    0.134    3.752    3.752
 xc_pw_divergence                    10 11.0    0.001    0.001    3.663    3.663
 integrate_v_rspace                  10 10.0    0.001    0.001    3.618    3.618
 dbcsr_multiply_generic           22110  8.4    0.227    0.227    3.587    3.587
 fft3d_s                            172 14.2    2.716    2.716    2.730    2.730
 grid_integrate_task_list            10 11.0    2.668    2.668    2.668    2.668
 pao_dm_trs4                        411  6.0    0.002    0.002    2.332    2.332
 grid_collocate_task_list            10  8.0    2.304    2.304    2.304    2.304
 pao_guess_initial_P                  1  4.0    0.000    0.000    2.281    2.281
 pao_read_preopt_dm                   1  5.0    0.000    0.000    2.281    2.281
 density_matrix_trs4                420  7.0    0.073    0.073    2.247    2.247
 ls_scf_init_matrix_S               415  7.0    0.002    0.002    2.190    2.190
 pao_rebuild_S                      411  6.0    0.001    0.001    2.167    2.167
 matrix_sqrt_Newton_Schulz          415  8.0    0.056    0.056    1.977    1.977
 xc_functional_eval                  10 12.0    0.000    0.000    1.942    1.942
 pbe_lda_eval                        10 13.0    1.941    1.941    1.941    1.941
 pw_gather_s                         81 13.8    1.819    1.819    1.819    1.819
 pw_scatter_s                        90 14.7    1.727    1.727    1.727    1.727
 density_rs2pw                       10  8.0    0.001    0.001    1.445    1.445
 make_m2s                         44220  9.4    0.085    0.085    1.363    1.363
 multiply_cannon                  22110  9.4    0.534    0.534    1.323    1.323
 make_images                      44220 10.4    0.347    0.347    1.210    1.210
 pw_derive                           60 13.0    1.136    1.136    1.136    1.136
 potential_pw2rs                     10 11.0    0.002    0.002    0.950    0.950
 pw_copy                            120 11.8    0.811    0.811    0.811    0.811
 arnoldi_extremal                   835  8.5    0.002    0.002    0.721    0.721
 arnoldi_normal_ev                  835  9.5    0.006    0.006    0.719    0.719
 build_subspace                     835 10.5    0.031    0.031    0.565    0.565
 pw_axpy                             90 10.3    0.562    0.562    0.562    0.562
 dbcsr_matrix_vector_mult         20023 11.5    0.063    0.063    0.524    0.524
 pw_poisson_solve                    10  9.0    0.096    0.096    0.491    0.491
 pao_calc_AB                        542  5.8    0.000    0.000    0.476    0.476
 pao_calc_AB_equi                   542  6.8    0.014    0.014    0.476    0.476
 -------------------------------------------------------------------------------

 The number of warnings for this run is : 0
 
 -------------------------------------------------------------------------------
  **** **** ******  **  PROGRAM ENDED AT                 2023-02-01 10:45:43.351
 ***** ** ***  *** **   PROGRAM RAN ON                                    moritz
 **    ****   ******    PROGRAM RAN BY                                       ole
 ***** **    ** ** **   PROGRAM PROCESS ID                                148578
  **** **  *******  **  PROGRAM STOPPED IN /home/ole/git/pao_ml_equivar/2H2O_rot
                                           ations/phi_14
