6
Properties=species:S:1:pos:R:3 i=0 time=0.0 E=-34.4504806384 pbc="F F F"
O        0.41637701      -4.87228298       4.35000000
H        1.12300063      -5.00782656       3.71000000
H        0.15794852      -3.95005323       4.25600000
O       -1.91207580      -6.62333424       3.63500000
H       -2.13696273      -7.20698727       4.36500000
H       -1.15823028      -6.09911870       3.94700000
