 DBCSR| CPU Multiplication driver                                           XSMM (U)
 DBCSR| Multrec recursion limit                                              512 (U)
 DBCSR| Multiplication stack size                                           1000 (D)
 DBCSR| Maximum elements for images                                    UNLIMITED (U)
 DBCSR| Multiplicative factor virtual images                                   1 (U)
 DBCSR| Use multiplication densification                                       T (D)
 DBCSR| Multiplication size stacks                                             3 (U)
 DBCSR| Use memory pool for CPU allocation                                     F (U)
 DBCSR| OMP: Current number of threads                                         1
 DBCSR| OMP: Max number of threads                                             1
 DBCSR| Split modifier for TAS multiplication algorithm                  1.0E+00 (U)


  **** **** ******  **  PROGRAM STARTED AT               2023-02-01 10:47:55.389
 ***** ** ***  *** **   PROGRAM STARTED ON                                moritz
 **    ****   ******    PROGRAM STARTED BY                                   ole
 ***** **    ** ** **   PROGRAM PROCESS ID                                148763
  **** **  *******  **  PROGRAM STARTED IN /home/ole/git/pao_ml_equivar/2H2O_MD/
                                           frame_1150

 CP2K| version string:                 CP2K version 2023.1 (Development Version)
 CP2K| source code revision number:                                  git:03b4147
 CP2K| cp2kflags: omp libint fftw3 libxc quip xsmm spglib libvori libbqb libtorc
 CP2K|            h
 CP2K| is freely available from                            https://www.cp2k.org/
 CP2K| Program compiled at                           Mi 01 Feb 2023 10:36:52 CET
 CP2K| Program compiled on                                                moritz
 CP2K| Program compiled for                                                local
 CP2K| Data directory path                               /home/ole/git/cp2k/data
 CP2K| Input file name                                            2H2O_pao44.inp

 GLOBAL| Force Environment number                                              1
 GLOBAL| Basis set file name                                        BASIS_MOLOPT
 GLOBAL| Potential file name                                      GTH_POTENTIALS
 GLOBAL| MM Potential file name                                     MM_POTENTIAL
 GLOBAL| Coordinate file name                                         coords.xyz
 GLOBAL| Method name                                                        CP2K
 GLOBAL| Project name                                                 2H2O_pao44
 GLOBAL| Run type                                                         ENERGY
 GLOBAL| FFT library                                                       FFTW3
 GLOBAL| Diagonalization library                                       ScaLAPACK
 GLOBAL| DGEMM library                                                      BLAS
 GLOBAL| Orthonormality check for eigenvectors                          DISABLED
 GLOBAL| Matrix multiplication library                                 ScaLAPACK
 GLOBAL| All-to-all communication in single precision                          F
 GLOBAL| FFTs using library dependent lengths                                  F
 GLOBAL| Grid backend                                                       AUTO
 GLOBAL| Global print level                                                  LOW
 GLOBAL| MPI I/O enabled                                                       T
 GLOBAL| Total number of message passing processes                             1
 GLOBAL| Number of threads for this process                                    1
 GLOBAL| This output is from process                                           0
 GLOBAL| Stack size for threads created by OpenMP (OMP_STACKSIZE)        default
 GLOBAL| CPU model name           AMD Ryzen Threadripper 3970X 32-Core Processor
 GLOBAL| CPUID                                                              1002
 GLOBAL| Compiled for CPUID                                                    0

 *** HINT in environment.F:884 :: The compiler target flags (generic) used ***
 *** to build this binary cannot exploit all extensions of this CPU model  ***
 *** (x86_avx2). Consider compiler target flags as part of FCFLAGS and     ***
 *** CFLAGS (ARCH file).                                                   ***


 MEMORY| system memory details [Kb]
 MEMORY|                        rank 0           min           max       average
 MEMORY| MemTotal            131773860     131773860     131773860     131773860
 MEMORY| MemFree             114927520     114927520     114927520     114927520
 MEMORY| Buffers                302624        302624        302624        302624
 MEMORY| Cached                7056636       7056636       7056636       7056636
 MEMORY| Slab                   780228        780228        780228        780228
 MEMORY| SReclaimable           332704        332704        332704        332704
 MEMORY| MemLikelyFree       122619484     122619484     122619484     122619484


 GENERATE|  Preliminary Number of Bonds generated:                             0
 GENERATE|  Achieved consistency in connectivity generation.

 *******************************************************************************
 *******************************************************************************
 **                                                                           **
 **     #####                         ##              ##                      **
 **    ##   ##            ##          ##              ##                      **
 **   ##     ##                       ##            ######                    **
 **   ##     ##  ##   ##  ##   #####  ##  ##   ####   ##    #####    #####    **
 **   ##     ##  ##   ##  ##  ##      ## ##   ##      ##   ##   ##  ##   ##   **
 **   ##  ## ##  ##   ##  ##  ##      ####     ###    ##   ######   ######    **
 **    ##  ###   ##   ##  ##  ##      ## ##      ##   ##   ##       ##        **
 **     #######   #####   ##   #####  ##  ##  ####    ##    #####   ##        **
 **           ##                                                    ##        **
 **                                                                           **
 **                                                ... make the atoms dance   **
 **                                                                           **
 **            Copyright (C) by CP2K developers group (2000-2023)             **
 **                      J. Chem. Phys. 152, 194103 (2020)                    **
 **                                                                           **
 *******************************************************************************


 TOTAL NUMBERS AND MAXIMUM NUMBERS

  Total number of            - Atomic kinds:                                   2
                             - Atoms:                                          6
                             - Shell sets:                                     6
                             - Shells:                                        22
                             - Primitive Cartesian functions:                 42
                             - Cartesian basis functions:                     48
                             - Spherical basis functions:                     46

  Maximum angular momentum of- Orbital basis functions:                        2
                             - Local part of the GTH pseudopotential:          2
                             - Non-local part of the GTH pseudopotential:      0

 ------------------------------ Linear scaling SCF -----------------------------
 eps_scf:                                                              0.100E-07
 eps_filter:                                                           0.100E-07
 mixing_fraction:                                                      0.450E+00
 max_scf:                                                                     25
 fixed chemical potential (mu)                                                 F
 has unit metric:                                                              F
 Computing inv(S):                                                             T
 Computing sqrt(S):                                                            T
 Computing S preconditioner                                                    F
 S sqrt method:                                                     NEWTONSCHULZ
 S sqrt order:                                                                 3
 Extrapolation order:                                                          1
 Use single precision matrices                                                 F
 S preconditioner type                                                      NONE
 Polarized Atomic Orbitals (PAO)                                               T
 Purification method                                   Trace resetting 4th order
 Cluster type                                                             ATOMIC
 Computing Chebyshev                                                       FALSE
 Using PAO                                                                     T
 -------------------------------------------------------------------------------

 
 PAO|                                  EPS_PAO                           0.5E-06
 PAO|                                  MIXING                            0.5E+00
 PAO|                                  MAX_PAO                              1500
 PAO|                                  MAX_CYCLES                           1000
 PAO|                                  PARAMETERIZATION              EQUIVARIANT
 PAO|                                  PRECONDITION                            F
 PAO|                                  REGULARIZATION                    0.0E+00
 PAO|                                  EPS_PGF                           0.1E-09
 PAO|                                  PENALTY_DISTANCE                  0.1E+00
 PAO|                                  PENALTY_STRENGTH                  0.5E-02
 PAO|                                  LINPOT_PRECONDITION_DELTA         0.0E+00
 PAO|                                  LINPOT_INITGUESS_DELT             0.0E+00
 PAO|                                  LINPOT_REGULARIZATION_DELTA       0.0E+00
 PAO|                                  LINPOT_REGULARIZATION_STRENGTH    0.0E+00
 PAO|                                  OPTIMIZER                              CG
 PAO|                                  CG_INIT_STEPS                           2
 PAO|                                  CG_RESET_LIMIT                    0.1E+00
 PAO|                                  CHECK_UNITARY_TOL                -0.1E+01
 PAO|                                  CHECK_GRADIENT_TOL               -0.1E+01
 PAO|                                  NUM_GRADIENT_ORDER                      2
 PAO|                                  NUM_GRADIENT_EPS                  0.1E-07
 PAO|                                  PRINT%RESTART%WRITE_CYCLES            100
 PAO|                                  RESTART_FILE 
 PAO|                                  PREOPT_DM_FILE 2H2O_ref_LS_DM_SPIN_1_RESTART.dm
 PAO|                                  MACHINE_LEARNING%METHOD       GAUSSIAN_PR
 PAO|                                  MACHINE_LEARNING%PRIOR               ZERO
 PAO|                                  MACHINE_LEARNING%DESCRIPTOR     POTENTIAL
 PAO|                                  MACHINE_LEARNING%TOLERANCE        0.1E-01
 PAO|                                  MACHINE_LEARNING%GP_NOISE_VAR     0.1E+00
 PAO|                                  MACHINE_LEARNING%GP_SCALE         0.5E-01
 

 Calculating atomic Fock matrix for atomic kind: O

 Electronic structure
    Total number of core electrons                                          2.00
    Total number of valence electrons                                       6.00
    Total number of electrons                                               8.00
    Multiplicity                                                   not specified
    S   [  2.00] 2.00
    P      4.00


 *******************************************************************************
                  Iteration          Convergence                     Energy [au]
 *******************************************************************************
                          1        0.708315                     -15.576645311500
                          2        0.608879                     -15.587933561584
                          3        0.102828E-01                 -15.656849565404
                          4        0.113889E-02                 -15.656866888140
                          5        0.434197E-03                 -15.656867072159
                          6        0.263771E-03                 -15.656867091904
                          7        0.478536E-06                 -15.656867103452

 Energy components [Hartree]           Total Energy ::          -15.656867103452
                                        Band Energy ::           -3.000198112285
                                     Kinetic Energy ::           11.759971203220
                                   Potential Energy ::          -27.416838306672
                                      Virial (-V/T) ::            2.331369510426
                                        Core Energy ::          -26.140716385623
                                          XC Energy ::           -3.154051012914
                                     Coulomb Energy ::           13.637900295084
                       Total Pseudopotential Energy ::          -37.935781716540
                       Local Pseudopotential Energy ::          -39.218907440693
                    Nonlocal Pseudopotential Energy ::            1.283125724153
                                        Confinement ::            0.350941276976

 Orbital energies  State     L     Occupation   Energy[a.u.]          Energy[eV]

                       1     0          2.000      -0.864471          -23.523463

                       1     1          4.000      -0.317814           -8.648154


 Total Electron Density at R=0:                                         0.000068

 Calculating atomic Fock matrix for atomic kind: H

 Electronic structure
    Total number of core electrons                                          0.00
    Total number of valence electrons                                       1.00
    Total number of electrons                                               1.00
    Multiplicity                                                   not specified
    S      1.00


 *******************************************************************************
                  Iteration          Convergence                     Energy [au]
 *******************************************************************************
                          1        0.437545E-02                  -0.424159432110
                          2        0.531356E-03                  -0.424178438213
                          3        0.259176E-06                  -0.424178722480

 Energy components [Hartree]           Total Energy ::           -0.424178722480
                                        Band Energy ::           -0.199015229016
                                     Kinetic Energy ::            0.464007633961
                                   Potential Energy ::           -0.888186356441
                                      Virial (-V/T) ::            1.914163240935
                                        Core Energy ::           -0.479160803564
                                          XC Energy ::           -0.244352904054
                                     Coulomb Energy ::            0.299334985138
                       Total Pseudopotential Energy ::           -0.962295316385
                       Local Pseudopotential Energy ::           -0.962295316385
                    Nonlocal Pseudopotential Energy ::            0.000000000000
                                        Confinement ::            0.191268788606

 Orbital energies  State     L     Occupation   Energy[a.u.]          Energy[eV]

                       1     0          1.000      -0.199015           -5.415480


 Total Electron Density at R=0:                                         0.242907
 PAO| Made initial guess for matrix_X with norm:   4.8989794855663558     

     Lanczos converged:  T threshold:   0.100E-02
     Est. extremal eigenvalues:    0.315E+01   0.117E+00
     Est. condition number :    0.270E+02

 Order=           3
     NS sqrt iter    1 1.00000000   0.769E+00       0.001       53.854
     NS sqrt iter    2 1.00000000   0.410E+00       0.001      110.592
     NS sqrt iter    3 1.00000000   0.152E+00       0.001      110.592
     NS sqrt iter    4 1.00000000   0.156E-01       0.001       98.543
     NS sqrt iter    5 1.00000000   0.262E-04       0.001       70.351
     Symmetrizing Results
     Final NS sqrt iter    5 1.00000000   0.107E-08

 PAO| Read restart DM 2H2O_ref_LS_DM_SPIN_1_RESTART.dm with checksum:    57.531525863383450     
 PAO| Quickstep energy from restart density:  -34.445304433914984     
 PAO| ======================= Iteration:         1 =============================

     Lanczos converged:  T threshold:   0.100E-02
     Est. extremal eigenvalues:    0.315E+01   0.117E+00
     Est. condition number :    0.270E+02

 Order=           3
     NS sqrt iter    1 1.00000000   0.769E+00       0.001       64.512
     NS sqrt iter    2 1.00000000   0.410E+00       0.001      110.592
     NS sqrt iter    3 1.00000000   0.152E+00       0.001      110.592
     NS sqrt iter    4 1.00000000   0.156E-01       0.001      110.592
     NS sqrt iter    5 1.00000000   0.262E-04       0.001       83.072
     Symmetrizing Results
     Final NS sqrt iter    5 1.00000000   0.107E-08

     Est. extremal eigenvalues     -0.90161     1.76989  converged:  T
     TRS4 it   1 1.00000000   0.873E+00       0.000       16.128   0.100E-07
     TRS4 it   2 1.00000000   0.675E+00       0.001       32.256   0.100E-07
     TRS4 it   3 1.00000000   0.493E+00       0.001       32.256   0.100E-07
     TRS4 it   4 1.00000000   0.311E+00       0.001       32.256   0.100E-07
     TRS4 it   5 1.00000000   0.155E+00       0.001       32.256   0.100E-07
     TRS4 it   6 1.00000000   0.462E-01       0.001       32.256   0.100E-07
     TRS4 it   7 1.00000000   0.520E-02       0.001       32.256   0.100E-07
     TRS4 it   8 1.00000000   0.824E-04       0.001       32.256   0.100E-07
     TRS4 it   9 1.00000000   0.255E-07       0.001       32.256   0.100E-07
     Final TRS4 iteration    9 1.00000000   0.255E-07
     Chemical potential (mu):      -0.06956
 
 PAO| energy:  -7.5359498385354664      penalty:   3.8210450096642759E-033
 PAO|CG| warming up with steepest descent
 PAO|CG| beta:    0.0000000000000000     
 PAO| norm of gradient:  0.78308615162857187     
 PAO|LS| adapt:  T F F
 PAO|LS| adapt: scan_steps:    0.0000000000000000        0.0000000000000000        0.0000000000000000     
 PAO|LS| adapt: energies:   -7.5359498385354664        0.0000000000000000        0.0000000000000000     
 PAO| ======================= Iteration:         2 =============================

     Lanczos converged:  T threshold:   0.100E-02
     Est. extremal eigenvalues:    0.309E+01   0.130E+00
     Est. condition number :    0.238E+02

 Order=           3
     NS sqrt iter    1 1.00000000   0.759E+00       0.001       64.512
     NS sqrt iter    2 1.00000000   0.396E+00       0.001      110.263
     NS sqrt iter    3 1.00000000   0.135E+00       0.001      110.185
     NS sqrt iter    4 1.00000000   0.106E-01       0.001      110.369
     NS sqrt iter    5 1.00000000   0.814E-05       0.001       82.944
     Symmetrizing Results
     Final NS sqrt iter    5 1.00000000   0.105E-09

     Est. extremal eigenvalues     -0.90520     1.72205  converged:  T
     TRS4 it   1 1.00000000   0.870E+00       0.000       16.128   0.100E-07
     TRS4 it   2 1.00000000   0.657E+00       0.001       32.256   0.100E-07
     TRS4 it   3 1.00000000   0.475E+00       0.001       32.256   0.100E-07
     TRS4 it   4 1.00000000   0.289E+00       0.001       32.256   0.100E-07
     TRS4 it   5 1.00000000   0.134E+00       0.001       32.256   0.100E-07
     TRS4 it   6 1.00000000   0.347E-01       0.001       32.256   0.100E-07
     TRS4 it   7 1.00000000   0.292E-02       0.001       32.256   0.100E-07
     TRS4 it   8 1.00000000   0.259E-04       0.001       32.256   0.100E-07
     TRS4 it   9 1.00000000   0.255E-08       0.001       32.256   0.100E-07
     Final TRS4 iteration    9 1.00000000   0.255E-08
     Chemical potential (mu):      -0.05756
 
 PAO| energy:  -7.5911769060443985      penalty:   2.2526058607298507E-008
 PAO|LS| adapt:  T T F
 PAO|LS| adapt: scan_steps:    0.0000000000000000       0.10000000000000001        0.0000000000000000     
 PAO|LS| adapt: energies:   -7.5359498385354664       -7.5911769060443985        0.0000000000000000     
 PAO| ======================= Iteration:         3 =============================

     Lanczos converged:  T threshold:   0.100E-02
     Est. extremal eigenvalues:    0.303E+01   0.142E+00
     Est. condition number :    0.213E+02

 Order=           3
     NS sqrt iter    1 1.00000000   0.747E+00       0.001       64.512
     NS sqrt iter    2 1.00000000   0.382E+00       0.001      110.373
     NS sqrt iter    3 1.00000000   0.120E+00       0.001      109.871
     NS sqrt iter    4 1.00000000   0.719E-02       0.001      109.674
     NS sqrt iter    5 1.00000000   0.269E-05       0.001       82.944
     Symmetrizing Results
     Final NS sqrt iter    5 1.00000000   0.120E-10

     Est. extremal eigenvalues     -0.90850     1.68667  converged:  T
     TRS4 it   1 1.00000000   0.869E+00       0.000       16.128   0.100E-07
     TRS4 it   2 1.00000000   0.641E+00       0.001       32.256   0.100E-07
     TRS4 it   3 1.00000000   0.458E+00       0.001       32.256   0.100E-07
     TRS4 it   4 1.00000000   0.268E+00       0.001       32.256   0.100E-07
     TRS4 it   5 1.00000000   0.115E+00       0.001       32.256   0.100E-07
     TRS4 it   6 1.00000000   0.253E-01       0.001       32.256   0.100E-07
     TRS4 it   7 1.00000000   0.152E-02       0.001       32.256   0.100E-07
     TRS4 it   8 1.00000000   0.695E-05       0.001       32.256   0.100E-07
     TRS4 it   9 1.00000000   0.185E-09       0.001       32.256   0.100E-07
     Final TRS4 iteration    9 1.00000000   0.185E-09
     Chemical potential (mu):      -0.04436
 
 PAO| energy:  -7.6336212935035963      penalty:   3.6041694456819920E-007
 PAO|LS| adapt:  T T F
 PAO|LS| adapt: scan_steps:    0.0000000000000000       0.20000000000000001        0.0000000000000000     
 PAO|LS| adapt: energies:   -7.5359498385354664       -7.6336212935035963        0.0000000000000000     
 PAO| ======================= Iteration:         4 =============================

     Lanczos converged:  T threshold:   0.100E-02
     Est. extremal eigenvalues:    0.288E+01   0.161E+00
     Est. condition number :    0.179E+02

 Order=           3
     NS sqrt iter    1 1.00000000   0.720E+00       0.001       57.796
     NS sqrt iter    2 1.00000000   0.352E+00       0.001       95.600
     NS sqrt iter    3 1.00000000   0.933E-01       0.001       98.431
     NS sqrt iter    4 1.00000000   0.351E-02       0.001       98.096
     NS sqrt iter    5 1.00000000   0.389E-06       0.001       74.387
     Symmetrizing Results
     Final NS sqrt iter    5 1.00000000   0.766E-09

     Est. extremal eigenvalues     -0.91347     1.64138  converged:  T
     TRS4 it   1 1.00000000   0.869E+00       0.000       16.128   0.100E-07
     TRS4 it   2 1.00000000   0.618E+00       0.001       32.256   0.100E-07
     TRS4 it   3 1.00000000   0.428E+00       0.001       32.256   0.100E-07
     TRS4 it   4 1.00000000   0.231E+00       0.001       32.256   0.100E-07
     TRS4 it   5 1.00000000   0.829E-01       0.001       32.256   0.100E-07
     TRS4 it   6 1.00000000   0.126E-01       0.001       32.256   0.100E-07
     TRS4 it   7 1.00000000   0.346E-03       0.001       32.256   0.100E-07
     TRS4 it   8 1.00000000   0.337E-06       0.001       32.256   0.100E-07
     TRS4 it   9 1.00000000   0.435E-12       0.001       32.256   0.100E-07
     Final TRS4 iteration    9 1.00000000   0.435E-12
     Chemical potential (mu):      -0.01530
 
 PAO| energy:  -7.6788381078408028      penalty:   5.7666711679032712E-006
 PAO|LS| Need extra step
 PAO|LS| adapt:  T T F
 PAO|LS| adapt: scan_steps:    0.0000000000000000       0.40000000000000002        0.0000000000000000     
 PAO|LS| adapt: energies:   -7.5359498385354664       -7.6788381078408028        0.0000000000000000     
 PAO| ======================= Iteration:         5 =============================

     Lanczos converged:  T threshold:   0.100E-02
     Est. extremal eigenvalues:    0.257E+01   0.189E+00
     Est. condition number :    0.136E+02

 Order=           3
     NS sqrt iter    1 1.00000000   0.666E+00       0.001       58.359
     NS sqrt iter    2 1.00000000   0.293E+00       0.001       98.459
     NS sqrt iter    3 1.00000000   0.573E-01       0.001       96.813
     NS sqrt iter    4 1.00000000   0.985E-03       0.017        6.437
     NS sqrt iter    5 1.00000000   0.105E-07       0.001       43.458
     Symmetrizing Results
     Final NS sqrt iter    5 1.00000000   0.245E-08

     Est. extremal eigenvalues     -0.91397     1.59953  converged:  T
     TRS4 it   1 1.00000000   0.873E+00       0.000       16.128   0.100E-07
     TRS4 it   2 1.00000000   0.588E+00       0.001       32.256   0.100E-07
     TRS4 it   3 1.00000000   0.383E+00       0.001       32.256   0.100E-07
     TRS4 it   4 1.00000000   0.175E+00       0.001       32.256   0.100E-07
     TRS4 it   5 1.00000000   0.444E-01       0.001       32.256   0.100E-07
     TRS4 it   6 1.00000000   0.326E-02       0.001       32.256   0.100E-07
     TRS4 it   7 1.00000000   0.205E-04       0.001       32.256   0.100E-07
     TRS4 it   8 1.00000000   0.108E-08       0.001       32.256   0.100E-07
     Final TRS4 iteration    8 1.00000000   0.108E-08
     Chemical potential (mu):       0.02929
 
 PAO| energy:  -7.6179556442526231      penalty:   9.2266739124951104E-005
 PAO|LS| Need extra step
 PAO|LS| adapt:  T T T
 PAO|LS| adapt: scan_steps:    0.0000000000000000       0.40000000000000002       0.80000000000000004     
 PAO|LS| adapt: energies:   -7.5359498385354664       -7.6788381078408028       -7.6179556442526231     
 PAO|LS| adapt: suggested step_size:   0.48048830619852578     
 PAO|LS| adapt: predicted energy  -7.6829634255911898     
 PAO| ======================= Iteration:         6 =============================

     Lanczos converged:  T threshold:   0.100E-02
     Est. extremal eigenvalues:    0.282E+01   0.167E+00
     Est. condition number :    0.168E+02

 Order=           3
     NS sqrt iter    1 1.00000000   0.709E+00       0.001       57.706
     NS sqrt iter    2 1.00000000   0.339E+00       0.001       98.183
     NS sqrt iter    3 1.00000000   0.844E-01       0.009       12.043
     NS sqrt iter    4 1.00000000   0.269E-02       0.001      109.391
     NS sqrt iter    5 1.00000000   0.189E-06       0.001       76.544
     Symmetrizing Results
     Final NS sqrt iter    5 1.00000000   0.632E-09

     Est. extremal eigenvalues     -0.91466     1.62937  converged:  T
     TRS4 it   1 1.00000000   0.870E+00       0.000       16.128   0.100E-07
     TRS4 it   2 1.00000000   0.610E+00       0.001       32.256   0.100E-07
     TRS4 it   3 1.00000000   0.418E+00       0.001       32.256   0.100E-07
     TRS4 it   4 1.00000000   0.217E+00       0.001       32.256   0.100E-07
     TRS4 it   5 1.00000000   0.726E-01       0.001       32.256   0.100E-07
     TRS4 it   6 1.00000000   0.941E-02       0.001       32.256   0.100E-07
     TRS4 it   7 1.00000000   0.184E-03       0.001       32.256   0.100E-07
     TRS4 it   8 1.00000000   0.901E-07       0.001       32.256   0.100E-07
     TRS4 it   9 1.00000000   0.305E-13       0.001       32.256   0.100E-07
     Final TRS4 iteration    9 1.00000000   0.305E-13
     Chemical potential (mu):      -0.00307
 
 PAO| energy:  -7.6822559050274428      penalty:   1.2006502428493832E-005
 PAO|CG| warming up with steepest descent
 PAO|CG| beta:    0.0000000000000000     
 PAO| norm of gradient:  0.40944110324509742     
 PAO| energy improvement: -0.14630606649197642     
 PAO| step      6                   -7.682255905  0.256E-01  0.480E+00     0.145
 PAO|LS| adapt:  T F F
 PAO|LS| adapt: scan_steps:    0.0000000000000000        0.0000000000000000        0.0000000000000000     
 PAO|LS| adapt: energies:   -7.6822559050274428        0.0000000000000000        0.0000000000000000     
 PAO| ======================= Iteration:         7 =============================

     Lanczos converged:  T threshold:   0.100E-02
     Est. extremal eigenvalues:    0.274E+01   0.182E+00
     Est. condition number :    0.151E+02

 Order=           3
     NS sqrt iter    1 1.00000000   0.693E+00       0.001       64.512
     NS sqrt iter    2 1.00000000   0.319E+00       0.001      107.013
     NS sqrt iter    3 1.00000000   0.702E-01       0.001      109.787
     NS sqrt iter    4 1.00000000   0.162E-02       0.001      109.722
     NS sqrt iter    5 1.00000000   0.448E-07       0.001       64.000
     Symmetrizing Results
     Final NS sqrt iter    5 1.00000000   0.395E-09

     Est. extremal eigenvalues     -0.91664     1.63186  converged:  T
     TRS4 it   1 1.00000000   0.874E+00       0.000       16.128   0.100E-07
     TRS4 it   2 1.00000000   0.613E+00       0.001       32.256   0.100E-07
     TRS4 it   3 1.00000000   0.421E+00       0.001       32.256   0.100E-07
     TRS4 it   4 1.00000000   0.221E+00       0.001       32.256   0.100E-07
     TRS4 it   5 1.00000000   0.749E-01       0.001       32.256   0.100E-07
     TRS4 it   6 1.00000000   0.992E-02       0.001       32.256   0.100E-07
     TRS4 it   7 1.00000000   0.201E-03       0.001       32.256   0.100E-07
     TRS4 it   8 1.00000000   0.103E-06       0.001       32.256   0.100E-07
     TRS4 it   9 1.00000000   0.385E-13       0.001       32.256   0.100E-07
     Final TRS4 iteration    9 1.00000000   0.385E-13
     Chemical potential (mu):      -0.00338
 
 PAO| energy:  -7.6808395443986548      penalty:   1.7769353363369268E-005
 PAO|LS| adapt:  T F T
 PAO|LS| adapt: scan_steps:    0.0000000000000000        0.0000000000000000       0.48048830619852578     
 PAO|LS| adapt: energies:   -7.6822559050274428        0.0000000000000000       -7.6808395443986548     
 PAO| ======================= Iteration:         8 =============================

     Lanczos converged:  T threshold:   0.100E-02
     Est. extremal eigenvalues:    0.278E+01   0.175E+00
     Est. condition number :    0.159E+02

 Order=           3
     NS sqrt iter    1 1.00000000   0.701E+00       0.001       64.512
     NS sqrt iter    2 1.00000000   0.329E+00       0.001      108.912
     NS sqrt iter    3 1.00000000   0.772E-01       0.001      107.913
     NS sqrt iter    4 1.00000000   0.210E-02       0.001      109.417
     NS sqrt iter    5 1.00000000   0.943E-07       0.001       71.296
     Symmetrizing Results
     Final NS sqrt iter    5 1.00000000   0.757E-09

     Est. extremal eigenvalues     -0.91665     1.63026  converged:  T
     TRS4 it   1 1.00000000   0.871E+00       0.000       16.128   0.100E-07
     TRS4 it   2 1.00000000   0.611E+00       0.001       32.256   0.100E-07
     TRS4 it   3 1.00000000   0.419E+00       0.001       32.256   0.100E-07
     TRS4 it   4 1.00000000   0.219E+00       0.001       32.256   0.100E-07
     TRS4 it   5 1.00000000   0.738E-01       0.001       32.256   0.100E-07
     TRS4 it   6 1.00000000   0.980E-02       0.001       32.256   0.100E-07
     TRS4 it   7 1.00000000   0.200E-03       0.001       32.256   0.100E-07
     TRS4 it   8 1.00000000   0.105E-06       0.001       32.256   0.100E-07
     TRS4 it   9 1.00000000   0.402E-13       0.001       32.256   0.100E-07
     Final TRS4 iteration    9 1.00000000   0.402E-13
     Chemical potential (mu):      -0.00388
 
 PAO| energy:  -7.7018175547896783      penalty:   1.2965622283071911E-005
 PAO|LS| adapt:  T T T
 PAO|LS| adapt: scan_steps:    0.0000000000000000       0.24024415309926289       0.48048830619852578     
 PAO|LS| adapt: energies:   -7.6822559050274428       -7.7018175547896783       -7.6808395443986548     
 PAO|LS| adapt: suggested step_size:   0.23604736952411787     
 PAO|LS| adapt: predicted energy  -7.7018237403294165     
 PAO| ======================= Iteration:         9 =============================

     Lanczos converged:  T threshold:   0.100E-02
     Est. extremal eigenvalues:    0.278E+01   0.174E+00
     Est. condition number :    0.159E+02

 Order=           3
     NS sqrt iter    1 1.00000000   0.701E+00       0.001       57.384
     NS sqrt iter    2 1.00000000   0.329E+00       0.001       96.229
     NS sqrt iter    3 1.00000000   0.773E-01       0.001       99.929
     NS sqrt iter    4 1.00000000   0.211E-02       0.001       98.730
     NS sqrt iter    5 1.00000000   0.955E-07       0.001       65.843
     Symmetrizing Results
     Final NS sqrt iter    5 1.00000000   0.766E-09

     Est. extremal eigenvalues     -0.91663     1.63024  converged:  T
     TRS4 it   1 1.00000000   0.871E+00       0.000       16.128   0.100E-07
     TRS4 it   2 1.00000000   0.611E+00       0.001       32.256   0.100E-07
     TRS4 it   3 1.00000000   0.419E+00       0.001       32.256   0.100E-07
     TRS4 it   4 1.00000000   0.219E+00       0.001       32.256   0.100E-07
     TRS4 it   5 1.00000000   0.738E-01       0.001       32.256   0.100E-07
     TRS4 it   6 1.00000000   0.979E-02       0.001       32.256   0.100E-07
     TRS4 it   7 1.00000000   0.200E-03       0.001       32.256   0.100E-07
     TRS4 it   8 1.00000000   0.105E-06       0.013        2.531   0.100E-07
     TRS4 it   9 1.00000000   0.405E-13       0.001       32.256   0.100E-07
     Final TRS4 iteration    9 1.00000000   0.405E-13
     Chemical potential (mu):      -0.00388
 
 PAO| energy:  -7.7018296012079608      penalty:   1.2924371462552360E-005
 PAO|CG| trace_G_new    3.9127272004188057E-002
 PAO|CG| trace_G_prev   0.16764201702656253     
 PAO|CG| trace_G_mix   -1.3877082123043049E-003
 PAO|CG| trace_D   0.16764201702656253     
 PAO|CG| trace_D_Gnew   1.3877082123043049E-003
 PAO|CG| beta:   0.24167557116705921     
 PAO| norm of gradient:  0.19780614753891765     
 PAO| energy improvement:  -1.9573696180517963E-002
 PAO| step      9                   -7.701829601  0.124E-01  0.236E+00     0.123
 PAO|LS| adapt:  T F F
 PAO|LS| adapt: scan_steps:    0.0000000000000000        0.0000000000000000        0.0000000000000000     
 PAO|LS| adapt: energies:   -7.7018296012079608        0.0000000000000000        0.0000000000000000     
 PAO| ======================= Iteration:        10 =============================

     Lanczos converged:  T threshold:   0.100E-02
     Est. extremal eigenvalues:    0.274E+01   0.180E+00
     Est. condition number :    0.152E+02

 Order=           3
     NS sqrt iter    1 1.00000000   0.693E+00       0.001       58.835
     NS sqrt iter    2 1.00000000   0.321E+00       0.001       98.181
     NS sqrt iter    3 1.00000000   0.718E-01       0.001       98.155
     NS sqrt iter    4 1.00000000   0.171E-02       0.001      101.458
     NS sqrt iter    5 1.00000000   0.516E-07       0.001       60.920
     Symmetrizing Results
     Final NS sqrt iter    5 1.00000000   0.225E-08

     Est. extremal eigenvalues     -0.91762     1.63427  converged:  T
     TRS4 it   1 1.00000000   0.873E+00       0.000       16.128   0.100E-07
     TRS4 it   2 1.00000000   0.612E+00       0.001       32.256   0.100E-07
     TRS4 it   3 1.00000000   0.419E+00       0.001       32.256   0.100E-07
     TRS4 it   4 1.00000000   0.217E+00       0.001       32.256   0.100E-07
     TRS4 it   5 1.00000000   0.725E-01       0.001       32.256   0.100E-07
     TRS4 it   6 1.00000000   0.940E-02       0.001       32.256   0.100E-07
     TRS4 it   7 1.00000000   0.181E-03       0.001       32.256   0.100E-07
     TRS4 it   8 1.00000000   0.837E-07       0.001       32.256   0.100E-07
     TRS4 it   9 1.00000000   0.253E-13       0.001       32.256   0.100E-07
     Final TRS4 iteration    9 1.00000000   0.253E-13
     Chemical potential (mu):      -0.00077
 
 PAO| energy:  -7.7070818310835714      penalty:   1.3553513910581137E-005
 PAO|LS| adapt:  T T F
 PAO|LS| adapt: scan_steps:    0.0000000000000000       0.23604736952411787        0.0000000000000000     
 PAO|LS| adapt: energies:   -7.7018296012079608       -7.7070818310835714        0.0000000000000000     
 PAO| ======================= Iteration:        11 =============================

     Lanczos converged:  T threshold:   0.100E-02
     Est. extremal eigenvalues:    0.270E+01   0.186E+00
     Est. condition number :    0.145E+02

 Order=           3
     NS sqrt iter    1 1.00000000   0.685E+00       0.001       58.212
     NS sqrt iter    2 1.00000000   0.312E+00       0.001       98.407
     NS sqrt iter    3 1.00000000   0.665E-01       0.001       99.033
     NS sqrt iter    4 1.00000000   0.137E-02       0.001       98.470
     NS sqrt iter    5 1.00000000   0.269E-07       0.017        3.253
     Symmetrizing Results
     Final NS sqrt iter    5 1.00000000   0.506E-08

     Est. extremal eigenvalues     -0.91732     1.63913  converged:  T
     TRS4 it   1 1.00000000   0.874E+00       0.000       16.128   0.100E-07
     TRS4 it   2 1.00000000   0.613E+00       0.001       32.256   0.100E-07
     TRS4 it   3 1.00000000   0.419E+00       0.001       32.256   0.100E-07
     TRS4 it   4 1.00000000   0.216E+00       0.001       32.256   0.100E-07
     TRS4 it   5 1.00000000   0.713E-01       0.001       32.256   0.100E-07
     TRS4 it   6 1.00000000   0.902E-02       0.001       32.256   0.100E-07
     TRS4 it   7 1.00000000   0.164E-03       0.001       32.256   0.100E-07
     TRS4 it   8 1.00000000   0.663E-07       0.001       32.256   0.100E-07
     Final TRS4 iteration    8 1.00000000   0.663E-07
     Chemical potential (mu):      -0.00014
 
 PAO| energy:  -7.7048301907547945      penalty:   1.4955892944414118E-005
 PAO|LS| adapt:  T T T
 PAO|LS| adapt: scan_steps:    0.0000000000000000       0.23604736952411787       0.47209473904823573     
 PAO|LS| adapt: energies:   -7.7018296012079608       -7.7070818310835714       -7.7048301907547945     
 PAO|LS| adapt: suggested step_size:   0.28324176723221850     
 PAO|LS| adapt: predicted energy  -7.7072318126494723     
 PAO| ======================= Iteration:        12 =============================

     Lanczos converged:  T threshold:   0.100E-02
     Est. extremal eigenvalues:    0.273E+01   0.181E+00
     Est. condition number :    0.151E+02

 Order=           3
     NS sqrt iter    1 1.00000000   0.692E+00       0.001       57.782
     NS sqrt iter    2 1.00000000   0.319E+00       0.001       98.055
     NS sqrt iter    3 1.00000000   0.707E-01       0.001       99.604
     NS sqrt iter    4 1.00000000   0.164E-02       0.017        6.435
     NS sqrt iter    5 1.00000000   0.455E-07       0.001       60.933
     Symmetrizing Results
     Final NS sqrt iter    5 1.00000000   0.376E-09

     Est. extremal eigenvalues     -0.91766     1.63518  converged:  T
     TRS4 it   1 1.00000000   0.873E+00       0.000       16.128   0.100E-07
     TRS4 it   2 1.00000000   0.612E+00       0.001       32.256   0.100E-07
     TRS4 it   3 1.00000000   0.419E+00       0.001       32.256   0.100E-07
     TRS4 it   4 1.00000000   0.217E+00       0.001       32.256   0.100E-07
     TRS4 it   5 1.00000000   0.723E-01       0.001       32.256   0.100E-07
     TRS4 it   6 1.00000000   0.932E-02       0.001       32.256   0.100E-07
     TRS4 it   7 1.00000000   0.178E-03       0.001       32.256   0.100E-07
     TRS4 it   8 1.00000000   0.799E-07       0.001       32.256   0.100E-07
     Final TRS4 iteration    8 1.00000000   0.799E-07
     Chemical potential (mu):      -0.00223
 
 PAO| energy:  -7.7072167596533321      penalty:   1.3764583582570647E-005
 PAO|CG| trace_G_new    1.3488968676638810E-002
 PAO|CG| trace_G_prev    3.9127272004188057E-002
 PAO|CG| trace_G_mix   -6.0562963541011656E-004
 PAO|CG| trace_D    4.8248002639187250E-002
 PAO|CG| trace_D_Gnew   2.9086294747302562E-004
 PAO|CG| beta:   0.36022440589623234     
 PAO| norm of gradient:  0.11614201942724610     
 PAO| energy improvement:  -5.3871584453712984E-003
 PAO| step     12                   -7.707216760  0.726E-02  0.283E+00     0.105
 PAO|LS| adapt:  T F F
 PAO|LS| adapt: scan_steps:    0.0000000000000000        0.0000000000000000        0.0000000000000000     
 PAO|LS| adapt: energies:   -7.7072167596533321        0.0000000000000000        0.0000000000000000     
 PAO| ======================= Iteration:        13 =============================

     Lanczos converged:  T threshold:   0.100E-02
     Est. extremal eigenvalues:    0.270E+01   0.186E+00
     Est. condition number :    0.145E+02

 Order=           3
     NS sqrt iter    1 1.00000000   0.685E+00       0.001       58.444
     NS sqrt iter    2 1.00000000   0.312E+00       0.001      100.181
     NS sqrt iter    3 1.00000000   0.665E-01       0.001       96.871
     NS sqrt iter    4 1.00000000   0.137E-02       0.001       98.838
     NS sqrt iter    5 1.00000000   0.263E-07       0.001       50.101
     Symmetrizing Results
     Final NS sqrt iter    5 1.00000000   0.598E-08

     Est. extremal eigenvalues     -0.91830     1.62957  converged:  T
     TRS4 it   1 1.00000000   0.873E+00       0.000       16.128   0.100E-07
     TRS4 it   2 1.00000000   0.609E+00       0.001       32.256   0.100E-07
     TRS4 it   3 1.00000000   0.414E+00       0.001       32.256   0.100E-07
     TRS4 it   4 1.00000000   0.212E+00       0.001       32.256   0.100E-07
     TRS4 it   5 1.00000000   0.685E-01       0.001       32.256   0.100E-07
     TRS4 it   6 1.00000000   0.831E-02       0.001       32.256   0.100E-07
     TRS4 it   7 1.00000000   0.139E-03       0.001       32.256   0.100E-07
     TRS4 it   8 1.00000000   0.475E-07       0.001       32.256   0.100E-07
     Final TRS4 iteration    8 1.00000000   0.475E-07
     Chemical potential (mu):       0.00189
 
 PAO| energy:  -7.7095616868105497      penalty:   1.4172525436598362E-005
 PAO|LS| adapt:  T T F
 PAO|LS| adapt: scan_steps:    0.0000000000000000       0.28324176723221850        0.0000000000000000     
 PAO|LS| adapt: energies:   -7.7072167596533321       -7.7095616868105497        0.0000000000000000     
 PAO| ======================= Iteration:        14 =============================

     Lanczos converged:  T threshold:   0.100E-02
     Est. extremal eigenvalues:    0.266E+01   0.191E+00
     Est. condition number :    0.140E+02

 Order=           3
     NS sqrt iter    1 1.00000000   0.678E+00       0.001       57.731
     NS sqrt iter    2 1.00000000   0.305E+00       0.001       98.319
     NS sqrt iter    3 1.00000000   0.624E-01       0.001       98.847
     NS sqrt iter    4 1.00000000   0.114E-02       0.001       99.219
     NS sqrt iter    5 1.00000000   0.148E-07       0.001       44.064
     Symmetrizing Results
     Final NS sqrt iter    5 1.00000000   0.407E-08

     Est. extremal eigenvalues     -0.91832     1.62418  converged:  T
     TRS4 it   1 1.00000000   0.872E+00       0.000       16.128   0.100E-07
     TRS4 it   2 1.00000000   0.606E+00       0.001       32.256   0.100E-07
     TRS4 it   3 1.00000000   0.410E+00       0.001       32.256   0.100E-07
     TRS4 it   4 1.00000000   0.207E+00       0.001       32.256   0.100E-07
     TRS4 it   5 1.00000000   0.649E-01       0.001       32.256   0.100E-07
     TRS4 it   6 1.00000000   0.742E-02       0.001       32.256   0.100E-07
     TRS4 it   7 1.00000000   0.109E-03       0.001       32.256   0.100E-07
     TRS4 it   8 1.00000000   0.284E-07       0.001       32.256   0.100E-07
     Final TRS4 iteration    8 1.00000000   0.284E-07
     Chemical potential (mu):       0.00581
 
 PAO| energy:  -7.7090679226743495      penalty:   1.5103574378492113E-005
 PAO|LS| adapt:  T T T
 PAO|LS| adapt: scan_steps:    0.0000000000000000       0.28324176723221850       0.56648353446443700     
 PAO|LS| adapt: energies:   -7.7072167596533321       -7.7095616868105497       -7.7090679226743495     
 PAO|LS| adapt: suggested step_size:   0.37559536107380520     
 PAO|LS| adapt: predicted energy  -7.7097125840100063     
 PAO| ======================= Iteration:        15 =============================

     Lanczos converged:  T threshold:   0.100E-02
     Est. extremal eigenvalues:    0.269E+01   0.188E+00
     Est. condition number :    0.143E+02

 Order=           3
     NS sqrt iter    1 1.00000000   0.682E+00       0.001       58.624
     NS sqrt iter    2 1.00000000   0.309E+00       0.001       99.478
     NS sqrt iter    3 1.00000000   0.651E-01       0.001       98.314
     NS sqrt iter    4 1.00000000   0.129E-02       0.001       96.834
     NS sqrt iter    5 1.00000000   0.218E-07       0.001       47.070
     Symmetrizing Results
     Final NS sqrt iter    5 1.00000000   0.559E-08

     Est. extremal eigenvalues     -0.91838     1.62779  converged:  T
     TRS4 it   1 1.00000000   0.872E+00       0.000       16.128   0.100E-07
     TRS4 it   2 1.00000000   0.608E+00       0.001       32.256   0.100E-07
     TRS4 it   3 1.00000000   0.413E+00       0.001       32.256   0.100E-07
     TRS4 it   4 1.00000000   0.210E+00       0.001       32.256   0.100E-07
     TRS4 it   5 1.00000000   0.673E-01       0.001       32.256   0.100E-07
     TRS4 it   6 1.00000000   0.801E-02       0.001       32.256   0.100E-07
     TRS4 it   7 1.00000000   0.129E-03       0.001       32.256   0.100E-07
     TRS4 it   8 1.00000000   0.401E-07       0.001       32.256   0.100E-07
     Final TRS4 iteration    8 1.00000000   0.401E-07
     Chemical potential (mu):       0.00319
 
 PAO| energy:  -7.7097086628991640      penalty:   1.4414066595683789E-005
 PAO|CG| trace_G_new    2.6895317584263198E-003
 PAO|CG| trace_G_prev    1.3488968676638810E-002
 PAO|CG| trace_G_mix    1.2225393177838062E-004
 PAO|CG| trace_D    1.9540155921566344E-002
 PAO|CG| trace_D_Gnew   3.2497726882611824E-005
 PAO|CG| beta:   0.19032424851680024     
 PAO| norm of gradient:   5.1860695699405344E-002
 PAO| energy improvement:  -2.4919032458319279E-003
 PAO| step     15                   -7.709708663  0.324E-02  0.376E+00     0.056
 PAO|LS| adapt:  T F F
 PAO|LS| adapt: scan_steps:    0.0000000000000000        0.0000000000000000        0.0000000000000000     
 PAO|LS| adapt: energies:   -7.7097086628991640        0.0000000000000000        0.0000000000000000     
 PAO| ======================= Iteration:        16 =============================

     Lanczos converged:  T threshold:   0.100E-02
     Est. extremal eigenvalues:    0.268E+01   0.188E+00
     Est. condition number :    0.142E+02

 Order=           3
     NS sqrt iter    1 1.00000000   0.680E+00       0.001       57.864
     NS sqrt iter    2 1.00000000   0.308E+00       0.001       99.473
     NS sqrt iter    3 1.00000000   0.645E-01       0.001       97.823
     NS sqrt iter    4 1.00000000   0.125E-02       0.001       98.069
     NS sqrt iter    5 1.00000000   0.194E-07       0.001       45.411
     Symmetrizing Results
     Final NS sqrt iter    5 1.00000000   0.637E-08

     Est. extremal eigenvalues     -0.91841     1.62731  converged:  T
     TRS4 it   1 1.00000000   0.873E+00       0.000       16.128   0.100E-07
     TRS4 it   2 1.00000000   0.607E+00       0.001       32.256   0.100E-07
     TRS4 it   3 1.00000000   0.412E+00       0.001       32.256   0.100E-07
     TRS4 it   4 1.00000000   0.209E+00       0.001       32.256   0.100E-07
     TRS4 it   5 1.00000000   0.662E-01       0.001       32.256   0.100E-07
     TRS4 it   6 1.00000000   0.776E-02       0.001       32.256   0.100E-07
     TRS4 it   7 1.00000000   0.121E-03       0.001       32.256   0.100E-07
     TRS4 it   8 1.00000000   0.359E-07       0.001       32.256   0.100E-07
     Final TRS4 iteration    8 1.00000000   0.359E-07
     Chemical potential (mu):       0.00407
 
 PAO| energy:  -7.7098354836694760      penalty:   1.4241291128282824E-005
 PAO|LS| adapt:  T T F
 PAO|LS| adapt: scan_steps:    0.0000000000000000       0.37559536107380520        0.0000000000000000     
 PAO|LS| adapt: energies:   -7.7097086628991640       -7.7098354836694760        0.0000000000000000     
 PAO| ======================= Iteration:        17 =============================

     Lanczos converged:  T threshold:   0.100E-02
     Est. extremal eigenvalues:    0.267E+01   0.189E+00
     Est. condition number :    0.141E+02

 Order=           3
     NS sqrt iter    1 1.00000000   0.679E+00       0.001       58.997
     NS sqrt iter    2 1.00000000   0.307E+00       0.001       98.390
     NS sqrt iter    3 1.00000000   0.640E-01       0.001       97.908
     NS sqrt iter    4 1.00000000   0.121E-02       0.001       94.795
     NS sqrt iter    5 1.00000000   0.172E-07       0.001       44.387
     Symmetrizing Results
     Final NS sqrt iter    5 1.00000000   0.509E-08

     Est. extremal eigenvalues     -0.91831     1.62692  converged:  T
     TRS4 it   1 1.00000000   0.873E+00       0.000       16.128   0.100E-07
     TRS4 it   2 1.00000000   0.607E+00       0.001       32.256   0.100E-07
     TRS4 it   3 1.00000000   0.410E+00       0.001       32.256   0.100E-07
     TRS4 it   4 1.00000000   0.207E+00       0.001       32.256   0.100E-07
     TRS4 it   5 1.00000000   0.651E-01       0.001       32.256   0.100E-07
     TRS4 it   6 1.00000000   0.752E-02       0.001       32.256   0.100E-07
     TRS4 it   7 1.00000000   0.114E-03       0.001       32.256   0.100E-07
     TRS4 it   8 1.00000000   0.321E-07       0.001       32.256   0.100E-07
     Final TRS4 iteration    8 1.00000000   0.321E-07
     Chemical potential (mu):       0.00493
 
 PAO| energy:  -7.7081924774803268      penalty:   1.4190982277351111E-005
 PAO|LS| adapt:  T T T
 PAO|LS| adapt: scan_steps:    0.0000000000000000       0.37559536107380520       0.75119072214761040     
 PAO|LS| adapt: energies:   -7.7097086628991640       -7.7098354836694760       -7.7081924774803268     
 PAO|LS| adapt: suggested step_size:   0.21471177672147901     
 PAO|LS| adapt: predicted energy  -7.7099978454622491     
 PAO| ======================= Iteration:        18 =============================

     Lanczos converged:  T threshold:   0.100E-02
     Est. extremal eigenvalues:    0.268E+01   0.188E+00
     Est. condition number :    0.143E+02

 Order=           3
     NS sqrt iter    1 1.00000000   0.681E+00       0.001       58.768
     NS sqrt iter    2 1.00000000   0.309E+00       0.001       99.599
     NS sqrt iter    3 1.00000000   0.648E-01       0.001       97.577
     NS sqrt iter    4 1.00000000   0.126E-02       0.001       98.325
     NS sqrt iter    5 1.00000000   0.203E-07       0.001       46.011
     Symmetrizing Results
     Final NS sqrt iter    5 1.00000000   0.647E-08

     Est. extremal eigenvalues     -0.91841     1.62751  converged:  T
     TRS4 it   1 1.00000000   0.873E+00       0.000       16.128   0.100E-07
     TRS4 it   2 1.00000000   0.608E+00       0.001       32.256   0.100E-07
     TRS4 it   3 1.00000000   0.412E+00       0.001       32.256   0.100E-07
     TRS4 it   4 1.00000000   0.209E+00       0.001       32.256   0.100E-07
     TRS4 it   5 1.00000000   0.667E-01       0.001       32.256   0.100E-07
     TRS4 it   6 1.00000000   0.787E-02       0.001       32.256   0.100E-07
     TRS4 it   7 1.00000000   0.124E-03       0.001       32.256   0.100E-07
     TRS4 it   8 1.00000000   0.376E-07       0.001       32.256   0.100E-07
     Final TRS4 iteration    8 1.00000000   0.376E-07
     Chemical potential (mu):       0.00369
 
 PAO| energy:  -7.7099971945126189      penalty:   1.4300612278193898E-005
 PAO|CG| trace_G_new    8.1069240442391331E-004
 PAO|CG| trace_G_prev    2.6895317584263198E-003
 PAO|CG| trace_G_mix    1.6268948690865595E-006
 PAO|CG| trace_D    3.3849708599940631E-003
 PAO|CG| trace_D_Gnew  -2.3651039081510283E-006
 PAO|CG| beta:   0.30082021043998441     
 PAO| norm of gradient:   2.8472660648838445E-002
 PAO| energy improvement:  -2.8853161345487877E-004
 PAO| step     18                   -7.709997195  0.178E-02  0.215E+00     0.056
 PAO|LS| adapt:  T F F
 PAO|LS| adapt: scan_steps:    0.0000000000000000        0.0000000000000000        0.0000000000000000     
 PAO|LS| adapt: energies:   -7.7099971945126189        0.0000000000000000        0.0000000000000000     
 PAO| ======================= Iteration:        19 =============================

     Lanczos converged:  T threshold:   0.100E-02
     Est. extremal eigenvalues:    0.268E+01   0.188E+00
     Est. condition number :    0.143E+02

 Order=           3
     NS sqrt iter    1 1.00000000   0.681E+00       0.001       57.970
     NS sqrt iter    2 1.00000000   0.309E+00       0.001       99.259
     NS sqrt iter    3 1.00000000   0.650E-01       0.001       99.387
     NS sqrt iter    4 1.00000000   0.127E-02       0.001      101.075
     NS sqrt iter    5 1.00000000   0.203E-07       0.001       45.878
     Symmetrizing Results
     Final NS sqrt iter    5 1.00000000   0.617E-08

     Est. extremal eigenvalues     -0.91841     1.62756  converged:  T
     TRS4 it   1 1.00000000   0.873E+00       0.000       16.128   0.100E-07
     TRS4 it   2 1.00000000   0.608E+00       0.001       32.256   0.100E-07
     TRS4 it   3 1.00000000   0.412E+00       0.001       32.256   0.100E-07
     TRS4 it   4 1.00000000   0.209E+00       0.001       32.256   0.100E-07
     TRS4 it   5 1.00000000   0.666E-01       0.001       32.256   0.100E-07
     TRS4 it   6 1.00000000   0.786E-02       0.001       32.256   0.100E-07
     TRS4 it   7 1.00000000   0.125E-03       0.001       32.256   0.100E-07
     TRS4 it   8 1.00000000   0.380E-07       0.001       32.256   0.100E-07
     Final TRS4 iteration    8 1.00000000   0.380E-07
     Chemical potential (mu):       0.00357
 
 PAO| energy:  -7.7101286083907361      penalty:   1.4028518261183946E-005
 PAO|LS| adapt:  T T F
 PAO|LS| adapt: scan_steps:    0.0000000000000000       0.21471177672147901        0.0000000000000000     
 PAO|LS| adapt: energies:   -7.7099971945126189       -7.7101286083907361        0.0000000000000000     
 PAO| ======================= Iteration:        20 =============================

     Lanczos converged:  T threshold:   0.100E-02
     Est. extremal eigenvalues:    0.268E+01   0.188E+00
     Est. condition number :    0.143E+02

 Order=           3
     NS sqrt iter    1 1.00000000   0.681E+00       0.001       58.575
     NS sqrt iter    2 1.00000000   0.309E+00       0.001       98.576
     NS sqrt iter    3 1.00000000   0.651E-01       0.001       98.431
     NS sqrt iter    4 1.00000000   0.127E-02       0.001       98.012
     NS sqrt iter    5 1.00000000   0.204E-07       0.001       46.480
     Symmetrizing Results
     Final NS sqrt iter    5 1.00000000   0.621E-08

     Est. extremal eigenvalues     -0.91841     1.62762  converged:  T
     TRS4 it   1 1.00000000   0.872E+00       0.000       16.128   0.100E-07
     TRS4 it   2 1.00000000   0.607E+00       0.001       32.256   0.100E-07
     TRS4 it   3 1.00000000   0.412E+00       0.001       32.256   0.100E-07
     TRS4 it   4 1.00000000   0.209E+00       0.001       32.256   0.100E-07
     TRS4 it   5 1.00000000   0.665E-01       0.001       32.256   0.100E-07
     TRS4 it   6 1.00000000   0.785E-02       0.001       32.256   0.100E-07
     TRS4 it   7 1.00000000   0.125E-03       0.001       32.256   0.100E-07
     TRS4 it   8 1.00000000   0.385E-07       0.001       32.256   0.100E-07
     Final TRS4 iteration    8 1.00000000   0.385E-07
     Chemical potential (mu):       0.00343
 
 PAO| energy:  -7.7101738633260606      penalty:   1.3769489089852856E-005
 PAO|LS| adapt:  T T F
 PAO|LS| adapt: scan_steps:    0.0000000000000000       0.42942355344295802        0.0000000000000000     
 PAO|LS| adapt: energies:   -7.7099971945126189       -7.7101738633260606        0.0000000000000000     
 PAO| ======================= Iteration:        21 =============================

     Lanczos converged:  T threshold:   0.100E-02
     Est. extremal eigenvalues:    0.268E+01   0.188E+00
     Est. condition number :    0.143E+02

 Order=           3
     NS sqrt iter    1 1.00000000   0.680E+00       0.001       57.961
     NS sqrt iter    2 1.00000000   0.310E+00       0.001       99.022
     NS sqrt iter    3 1.00000000   0.655E-01       0.001       98.974
     NS sqrt iter    4 1.00000000   0.128E-02       0.001       98.504
     NS sqrt iter    5 1.00000000   0.206E-07       0.001       45.827
     Symmetrizing Results
     Final NS sqrt iter    5 1.00000000   0.713E-08

     Est. extremal eigenvalues     -0.91841     1.62773  converged:  T
     TRS4 it   1 1.00000000   0.872E+00       0.000       16.128   0.100E-07
     TRS4 it   2 1.00000000   0.607E+00       0.001       32.256   0.100E-07
     TRS4 it   3 1.00000000   0.412E+00       0.001       32.256   0.100E-07
     TRS4 it   4 1.00000000   0.209E+00       0.001       32.256   0.100E-07
     TRS4 it   5 1.00000000   0.663E-01       0.001       32.256   0.100E-07
     TRS4 it   6 1.00000000   0.784E-02       0.001       32.256   0.100E-07
     TRS4 it   7 1.00000000   0.126E-03       0.001       32.256   0.100E-07
     TRS4 it   8 1.00000000   0.395E-07       0.001       32.256   0.100E-07
     Final TRS4 iteration    8 1.00000000   0.395E-07
     Chemical potential (mu):       0.00313
 
 PAO| energy:  -7.7100025819169735      penalty:   1.3290204383945313E-005
 PAO|LS| Need extra step
 PAO|LS| adapt:  T T T
 PAO|LS| adapt: scan_steps:    0.0000000000000000       0.42942355344295802       0.85884710688591603     
 PAO|LS| adapt: energies:   -7.7099971945126189       -7.7101738633260606       -7.7100025819169735     
 PAO|LS| adapt: suggested step_size:   0.43274799207240527     
 PAO|LS| adapt: predicted energy  -7.7101738737528844     
 PAO| ======================= Iteration:        22 =============================

     Lanczos converged:  T threshold:   0.100E-02
     Est. extremal eigenvalues:    0.268E+01   0.188E+00
     Est. condition number :    0.143E+02

 Order=           3
     NS sqrt iter    1 1.00000000   0.681E+00       0.001       58.082
     NS sqrt iter    2 1.00000000   0.309E+00       0.001       97.111
     NS sqrt iter    3 1.00000000   0.651E-01       0.001       99.100
     NS sqrt iter    4 1.00000000   0.127E-02       0.001      101.001
     NS sqrt iter    5 1.00000000   0.204E-07       0.001       46.527
     Symmetrizing Results
     Final NS sqrt iter    5 1.00000000   0.621E-08

     Est. extremal eigenvalues     -0.91841     1.62762  converged:  T
     TRS4 it   1 1.00000000   0.872E+00       0.000       16.128   0.100E-07
     TRS4 it   2 1.00000000   0.607E+00       0.001       32.256   0.100E-07
     TRS4 it   3 1.00000000   0.412E+00       0.001       32.256   0.100E-07
     TRS4 it   4 1.00000000   0.209E+00       0.001       32.256   0.100E-07
     TRS4 it   5 1.00000000   0.665E-01       0.001       32.256   0.100E-07
     TRS4 it   6 1.00000000   0.785E-02       0.001       32.256   0.100E-07
     TRS4 it   7 1.00000000   0.125E-03       0.001       32.256   0.100E-07
     TRS4 it   8 1.00000000   0.385E-07       0.001       32.256   0.100E-07
     Final TRS4 iteration    8 1.00000000   0.385E-07
     Chemical potential (mu):       0.00343
 
 PAO| energy:  -7.7101738823112465      penalty:   1.3765580368556837E-005
 PAO|CG| trace_G_new    2.1887360310013837E-004
 PAO|CG| trace_G_prev    8.1069240442391331E-004
 PAO|CG| trace_G_mix    4.6672133880951115E-006
 PAO|CG| trace_D    1.1184308342199320E-003
 PAO|CG| trace_D_Gnew  -2.5757723619300803E-006
 PAO|CG| beta:   0.26422646683640832     
 PAO| norm of gradient:   1.4794377415090449E-002
 PAO| energy improvement:  -1.7668779862756168E-004
 PAO| step     22                   -7.710173882  0.925E-03  0.433E+00     0.130
 PAO|LS| adapt:  T F F
 PAO|LS| adapt: scan_steps:    0.0000000000000000        0.0000000000000000        0.0000000000000000     
 PAO|LS| adapt: energies:   -7.7101738823112465        0.0000000000000000        0.0000000000000000     
 PAO| ======================= Iteration:        23 =============================

     Lanczos converged:  T threshold:   0.100E-02
     Est. extremal eigenvalues:    0.268E+01   0.188E+00
     Est. condition number :    0.143E+02

 Order=           3
     NS sqrt iter    1 1.00000000   0.681E+00       0.001       57.932
     NS sqrt iter    2 1.00000000   0.309E+00       0.001       98.777
     NS sqrt iter    3 1.00000000   0.651E-01       0.001       97.541
     NS sqrt iter    4 1.00000000   0.127E-02       0.001       98.036
     NS sqrt iter    5 1.00000000   0.202E-07       0.001       47.217
     Symmetrizing Results
     Final NS sqrt iter    5 1.00000000   0.665E-08

     Est. extremal eigenvalues     -0.91841     1.62766  converged:  T
     TRS4 it   1 1.00000000   0.872E+00       0.000       16.128   0.100E-07
     TRS4 it   2 1.00000000   0.608E+00       0.001       32.256   0.100E-07
     TRS4 it   3 1.00000000   0.412E+00       0.001       32.256   0.100E-07
     TRS4 it   4 1.00000000   0.209E+00       0.001       32.256   0.100E-07
     TRS4 it   5 1.00000000   0.667E-01       0.001       32.256   0.100E-07
     TRS4 it   6 1.00000000   0.791E-02       0.001       32.256   0.100E-07
     TRS4 it   7 1.00000000   0.127E-03       0.001       32.256   0.100E-07
     TRS4 it   8 1.00000000   0.398E-07       0.001       32.256   0.100E-07
     Final TRS4 iteration    8 1.00000000   0.398E-07
     Chemical potential (mu):       0.00313
 
 PAO| energy:  -7.7102144593926045      penalty:   1.3157367260481473E-005
 PAO|LS| adapt:  T T F
 PAO|LS| adapt: scan_steps:    0.0000000000000000       0.43274799207240527        0.0000000000000000     
 PAO|LS| adapt: energies:   -7.7101738823112465       -7.7102144593926045        0.0000000000000000     
 PAO| ======================= Iteration:        24 =============================

     Lanczos converged:  T threshold:   0.100E-02
     Est. extremal eigenvalues:    0.268E+01   0.188E+00
     Est. condition number :    0.142E+02

 Order=           3
     NS sqrt iter    1 1.00000000   0.681E+00       0.001       57.591
     NS sqrt iter    2 1.00000000   0.309E+00       0.001       97.206
     NS sqrt iter    3 1.00000000   0.651E-01       0.001       97.927
     NS sqrt iter    4 1.00000000   0.127E-02       0.001       97.531
     NS sqrt iter    5 1.00000000   0.200E-07       0.001       45.085
     Symmetrizing Results
     Final NS sqrt iter    5 1.00000000   0.660E-08

     Est. extremal eigenvalues     -0.91841     1.62770  converged:  T
     TRS4 it   1 1.00000000   0.872E+00       0.000       16.128   0.100E-07
     TRS4 it   2 1.00000000   0.608E+00       0.001       32.256   0.100E-07
     TRS4 it   3 1.00000000   0.412E+00       0.001       32.256   0.100E-07
     TRS4 it   4 1.00000000   0.209E+00       0.001       32.256   0.100E-07
     TRS4 it   5 1.00000000   0.669E-01       0.001       32.256   0.100E-07
     TRS4 it   6 1.00000000   0.796E-02       0.001       32.256   0.100E-07
     TRS4 it   7 1.00000000   0.129E-03       0.001       32.256   0.100E-07
     TRS4 it   8 1.00000000   0.410E-07       0.017        1.927   0.100E-07
     Final TRS4 iteration    8 1.00000000   0.410E-07
     Chemical potential (mu):       0.00283
 
 PAO| energy:  -7.7101456420843331      penalty:   1.2572502743357543E-005
 PAO|LS| adapt:  T T T
 PAO|LS| adapt: scan_steps:    0.0000000000000000       0.43274799207240527       0.86549598414481055     
 PAO|LS| adapt: energies:   -7.7101738823112465       -7.7102144593926045       -7.7101456420843331     
 PAO|LS| adapt: suggested step_size:   0.37689091597451502     
 PAO|LS| adapt: predicted energy  -7.7102153706715306     
 PAO| ======================= Iteration:        25 =============================

     Lanczos converged:  T threshold:   0.100E-02
     Est. extremal eigenvalues:    0.268E+01   0.188E+00
     Est. condition number :    0.143E+02

 Order=           3
     NS sqrt iter    1 1.00000000   0.681E+00       0.001       58.605
     NS sqrt iter    2 1.00000000   0.309E+00       0.001       98.236
     NS sqrt iter    3 1.00000000   0.651E-01       0.001       98.722
     NS sqrt iter    4 1.00000000   0.127E-02       0.001       98.580
     NS sqrt iter    5 1.00000000   0.202E-07       0.001       44.839
     Symmetrizing Results
     Final NS sqrt iter    5 1.00000000   0.666E-08

     Est. extremal eigenvalues     -0.91841     1.62765  converged:  T
     TRS4 it   1 1.00000000   0.872E+00       0.000       16.128   0.100E-07
     TRS4 it   2 1.00000000   0.608E+00       0.001       32.256   0.100E-07
     TRS4 it   3 1.00000000   0.412E+00       0.001       32.256   0.100E-07
     TRS4 it   4 1.00000000   0.209E+00       0.001       32.256   0.100E-07
     TRS4 it   5 1.00000000   0.666E-01       0.001       32.256   0.100E-07
     TRS4 it   6 1.00000000   0.790E-02       0.001       32.256   0.100E-07
     TRS4 it   7 1.00000000   0.127E-03       0.017        1.926   0.100E-07
     TRS4 it   8 1.00000000   0.396E-07       0.001       32.256   0.100E-07
     Final TRS4 iteration    8 1.00000000   0.396E-07
     Chemical potential (mu):       0.00317
 
 PAO| energy:  -7.7102153533154807      penalty:   1.3234550823571549E-005
 PAO|CG| trace_G_new    6.0589349397008625E-005
 PAO|CG| trace_G_prev    2.1887360310013837E-004
 PAO|CG| trace_G_mix    1.8805492059418419E-007
 PAO|CG| trace_D    2.9831872614046438E-004
 PAO|CG| trace_D_Gnew  -3.0457240241840978E-007
 PAO|CG| beta:   0.27596427171155868     
 PAO| norm of gradient:   7.7839160707839482E-003
 PAO| energy improvement:  -4.1471004234239217E-005
 PAO| step     25                   -7.710215353  0.486E-03  0.377E+00     0.117
 PAO|LS| adapt:  T F F
 PAO|LS| adapt: scan_steps:    0.0000000000000000        0.0000000000000000        0.0000000000000000     
 PAO|LS| adapt: energies:   -7.7102153533154807        0.0000000000000000        0.0000000000000000     
 PAO| ======================= Iteration:        26 =============================

     Lanczos converged:  T threshold:   0.100E-02
     Est. extremal eigenvalues:    0.268E+01   0.188E+00
     Est. condition number :    0.142E+02

 Order=           3
     NS sqrt iter    1 1.00000000   0.681E+00       0.001       58.538
     NS sqrt iter    2 1.00000000   0.309E+00       0.001      100.527
     NS sqrt iter    3 1.00000000   0.650E-01       0.001       97.940
     NS sqrt iter    4 1.00000000   0.127E-02       0.001       99.533
     NS sqrt iter    5 1.00000000   0.200E-07       0.001       45.430
     Symmetrizing Results
     Final NS sqrt iter    5 1.00000000   0.654E-08

     Est. extremal eigenvalues     -0.91841     1.62721  converged:  T
     TRS4 it   1 1.00000000   0.872E+00       0.000       16.128   0.100E-07
     TRS4 it   2 1.00000000   0.607E+00       0.001       32.256   0.100E-07
     TRS4 it   3 1.00000000   0.412E+00       0.001       32.256   0.100E-07
     TRS4 it   4 1.00000000   0.209E+00       0.001       32.256   0.100E-07
     TRS4 it   5 1.00000000   0.666E-01       0.001       32.256   0.100E-07
     TRS4 it   6 1.00000000   0.789E-02       0.001       32.256   0.100E-07
     TRS4 it   7 1.00000000   0.126E-03       0.001       32.256   0.100E-07
     TRS4 it   8 1.00000000   0.394E-07       0.001       32.256   0.100E-07
     Final TRS4 iteration    8 1.00000000   0.394E-07
     Chemical potential (mu):       0.00316
 
 PAO| energy:  -7.7102206431056795      penalty:   1.2690596141607514E-005
 PAO|LS| adapt:  T T F
 PAO|LS| adapt: scan_steps:    0.0000000000000000       0.37689091597451502        0.0000000000000000     
 PAO|LS| adapt: energies:   -7.7102153533154807       -7.7102206431056795        0.0000000000000000     
 PAO| ======================= Iteration:        27 =============================

     Lanczos converged:  T threshold:   0.100E-02
     Est. extremal eigenvalues:    0.268E+01   0.188E+00
     Est. condition number :    0.142E+02

 Order=           3
     NS sqrt iter    1 1.00000000   0.680E+00       0.001       59.972
     NS sqrt iter    2 1.00000000   0.309E+00       0.001       96.644
     NS sqrt iter    3 1.00000000   0.649E-01       0.001       96.987
     NS sqrt iter    4 1.00000000   0.126E-02       0.001       97.551
     NS sqrt iter    5 1.00000000   0.197E-07       0.017        2.787
     Symmetrizing Results
     Final NS sqrt iter    5 1.00000000   0.643E-08

     Est. extremal eigenvalues     -0.91841     1.62676  converged:  T
     TRS4 it   1 1.00000000   0.872E+00       0.000       16.128   0.100E-07
     TRS4 it   2 1.00000000   0.607E+00       0.001       32.256   0.100E-07
     TRS4 it   3 1.00000000   0.412E+00       0.001       32.256   0.100E-07
     TRS4 it   4 1.00000000   0.209E+00       0.001       32.256   0.100E-07
     TRS4 it   5 1.00000000   0.666E-01       0.001       32.256   0.100E-07
     TRS4 it   6 1.00000000   0.788E-02       0.001       32.256   0.100E-07
     TRS4 it   7 1.00000000   0.126E-03       0.001       32.256   0.100E-07
     TRS4 it   8 1.00000000   0.392E-07       0.001       32.256   0.100E-07
     Final TRS4 iteration    8 1.00000000   0.392E-07
     Chemical potential (mu):       0.00315
 
 PAO| energy:  -7.7101907498965909      penalty:   1.2159816356360023E-005
 PAO|LS| adapt:  T T T
 PAO|LS| adapt: scan_steps:    0.0000000000000000       0.37689091597451502       0.75378183194903003     
 PAO|LS| adapt: energies:   -7.7102153533154807       -7.7102206431056795       -7.7101907498965909     
 PAO|LS| adapt: suggested step_size:   0.24511128846532546     
 PAO|LS| adapt: predicted energy  -7.7102227937474437     
 PAO| ======================= Iteration:        28 =============================

     Lanczos converged:  T threshold:   0.100E-02
     Est. extremal eigenvalues:    0.268E+01   0.188E+00
     Est. condition number :    0.142E+02

 Order=           3
     NS sqrt iter    1 1.00000000   0.681E+00       0.001       57.871
     NS sqrt iter    2 1.00000000   0.309E+00       0.001       96.975
     NS sqrt iter    3 1.00000000   0.651E-01       0.001       98.389
     NS sqrt iter    4 1.00000000   0.127E-02       0.001       96.347
     NS sqrt iter    5 1.00000000   0.201E-07       0.001       45.275
     Symmetrizing Results
     Final NS sqrt iter    5 1.00000000   0.661E-08

     Est. extremal eigenvalues     -0.91841     1.62736  converged:  T
     TRS4 it   1 1.00000000   0.872E+00       0.000       16.128   0.100E-07
     TRS4 it   2 1.00000000   0.608E+00       0.001       32.256   0.100E-07
     TRS4 it   3 1.00000000   0.412E+00       0.001       32.256   0.100E-07
     TRS4 it   4 1.00000000   0.209E+00       0.001       32.256   0.100E-07
     TRS4 it   5 1.00000000   0.666E-01       0.001       32.256   0.100E-07
     TRS4 it   6 1.00000000   0.789E-02       0.001       32.256   0.100E-07
     TRS4 it   7 1.00000000   0.126E-03       0.001       32.256   0.100E-07
     TRS4 it   8 1.00000000   0.394E-07       0.001       32.256   0.100E-07
     Final TRS4 iteration    8 1.00000000   0.394E-07
     Chemical potential (mu):       0.00316
 
 PAO| energy:  -7.7102227936186845      penalty:   1.2879286188210608E-005
 PAO|CG| trace_G_new    1.8120037705543565E-005
 PAO|CG| trace_G_prev    6.0589349397008625E-005
 PAO|CG| trace_G_mix    3.1474204811517339E-008
 PAO|CG| trace_D    8.3476295816268113E-005
 PAO|CG| trace_D_Gnew  -2.3019758600663594E-008
 PAO|CG| beta:   0.29854361667110269     
 PAO| norm of gradient:   4.2567637596586877E-003
 PAO| energy improvement:  -7.4403032037650974E-006
 PAO| step     28                   -7.710222794  0.266E-03  0.245E+00     0.089
 PAO|LS| adapt:  T F F
 PAO|LS| adapt: scan_steps:    0.0000000000000000        0.0000000000000000        0.0000000000000000     
 PAO|LS| adapt: energies:   -7.7102227936186845        0.0000000000000000        0.0000000000000000     
 PAO| ======================= Iteration:        29 =============================

     Lanczos converged:  T threshold:   0.100E-02
     Est. extremal eigenvalues:    0.268E+01   0.188E+00
     Est. condition number :    0.142E+02

 Order=           3
     NS sqrt iter    1 1.00000000   0.681E+00       0.001       57.926
     NS sqrt iter    2 1.00000000   0.309E+00       0.001       98.633
     NS sqrt iter    3 1.00000000   0.650E-01       0.001       98.740
     NS sqrt iter    4 1.00000000   0.127E-02       0.001       97.837
     NS sqrt iter    5 1.00000000   0.200E-07       0.001       45.260
     Symmetrizing Results
     Final NS sqrt iter    5 1.00000000   0.654E-08

     Est. extremal eigenvalues     -0.91841     1.62730  converged:  T
     TRS4 it   1 1.00000000   0.872E+00       0.000       16.128   0.100E-07
     TRS4 it   2 1.00000000   0.607E+00       0.001       32.256   0.100E-07
     TRS4 it   3 1.00000000   0.412E+00       0.001       32.256   0.100E-07
     TRS4 it   4 1.00000000   0.209E+00       0.001       32.256   0.100E-07
     TRS4 it   5 1.00000000   0.666E-01       0.001       32.256   0.100E-07
     TRS4 it   6 1.00000000   0.789E-02       0.001       32.256   0.100E-07
     TRS4 it   7 1.00000000   0.126E-03       0.001       32.256   0.100E-07
     TRS4 it   8 1.00000000   0.392E-07       0.001       32.256   0.100E-07
     Final TRS4 iteration    8 1.00000000   0.392E-07
     Chemical potential (mu):       0.00320
 
 PAO| energy:  -7.7102266446184631      penalty:   1.2519569801752463E-005
 PAO|LS| adapt:  T T F
 PAO|LS| adapt: scan_steps:    0.0000000000000000       0.24511128846532546        0.0000000000000000     
 PAO|LS| adapt: energies:   -7.7102227936186845       -7.7102266446184631        0.0000000000000000     
 PAO| ======================= Iteration:        30 =============================

     Lanczos converged:  T threshold:   0.100E-02
     Est. extremal eigenvalues:    0.268E+01   0.188E+00
     Est. condition number :    0.142E+02

 Order=           3
     NS sqrt iter    1 1.00000000   0.680E+00       0.001       58.059
     NS sqrt iter    2 1.00000000   0.309E+00       0.001       98.163
     NS sqrt iter    3 1.00000000   0.650E-01       0.001       98.723
     NS sqrt iter    4 1.00000000   0.126E-02       0.001       97.254
     NS sqrt iter    5 1.00000000   0.199E-07       0.001       45.016
     Symmetrizing Results
     Final NS sqrt iter    5 1.00000000   0.650E-08

     Est. extremal eigenvalues     -0.91842     1.62724  converged:  T
     TRS4 it   1 1.00000000   0.872E+00       0.000       16.128   0.100E-07
     TRS4 it   2 1.00000000   0.607E+00       0.001       32.256   0.100E-07
     TRS4 it   3 1.00000000   0.412E+00       0.001       32.256   0.100E-07
     TRS4 it   4 1.00000000   0.209E+00       0.001       32.256   0.100E-07
     TRS4 it   5 1.00000000   0.665E-01       0.001       32.256   0.100E-07
     TRS4 it   6 1.00000000   0.788E-02       0.001       32.256   0.100E-07
     TRS4 it   7 1.00000000   0.126E-03       0.001       32.256   0.100E-07
     TRS4 it   8 1.00000000   0.390E-07       0.001       32.256   0.100E-07
     Final TRS4 iteration    8 1.00000000   0.390E-07
     Chemical potential (mu):       0.00324
 
 PAO| energy:  -7.7102293216446611      penalty:   1.2165269855927998E-005
 PAO|LS| adapt:  T T F
 PAO|LS| adapt: scan_steps:    0.0000000000000000       0.49022257693065091        0.0000000000000000     
 PAO|LS| adapt: energies:   -7.7102227936186845       -7.7102293216446611        0.0000000000000000     
 PAO| ======================= Iteration:        31 =============================

     Lanczos converged:  T threshold:   0.100E-02
     Est. extremal eigenvalues:    0.268E+01   0.188E+00
     Est. condition number :    0.142E+02

 Order=           3
     NS sqrt iter    1 1.00000000   0.680E+00       0.001       56.019
     NS sqrt iter    2 1.00000000   0.309E+00       0.001       98.098
     NS sqrt iter    3 1.00000000   0.649E-01       0.001       97.662
     NS sqrt iter    4 1.00000000   0.126E-02       0.001       97.686
     NS sqrt iter    5 1.00000000   0.198E-07       0.001       45.802
     Symmetrizing Results
     Final NS sqrt iter    5 1.00000000   0.642E-08

     Est. extremal eigenvalues     -0.91842     1.62712  converged:  T
     TRS4 it   1 1.00000000   0.873E+00       0.000       16.128   0.100E-07
     TRS4 it   2 1.00000000   0.607E+00       0.001       32.256   0.100E-07
     TRS4 it   3 1.00000000   0.412E+00       0.001       32.256   0.100E-07
     TRS4 it   4 1.00000000   0.209E+00       0.001       32.256   0.100E-07
     TRS4 it   5 1.00000000   0.664E-01       0.001       32.256   0.100E-07
     TRS4 it   6 1.00000000   0.786E-02       0.001       32.256   0.100E-07
     TRS4 it   7 1.00000000   0.125E-03       0.001       32.256   0.100E-07
     TRS4 it   8 1.00000000   0.386E-07       0.001       32.256   0.100E-07
     Final TRS4 iteration    8 1.00000000   0.386E-07
     Chemical potential (mu):       0.00331
 
 PAO| energy:  -7.7102311451452703      penalty:   1.1472863898588306E-005
 PAO|LS| Need extra step
 PAO|LS| adapt:  T T F
 PAO|LS| adapt: scan_steps:    0.0000000000000000       0.98044515386130182        0.0000000000000000     
 PAO|LS| adapt: energies:   -7.7102227936186845       -7.7102311451452703        0.0000000000000000     
 PAO| ======================= Iteration:        32 =============================

     Lanczos converged:  T threshold:   0.100E-02
     Est. extremal eigenvalues:    0.268E+01   0.188E+00
     Est. condition number :    0.142E+02

 Order=           3
     NS sqrt iter    1 1.00000000   0.680E+00       0.001       58.273
     NS sqrt iter    2 1.00000000   0.308E+00       0.001       98.191
     NS sqrt iter    3 1.00000000   0.647E-01       0.001       97.703
     NS sqrt iter    4 1.00000000   0.125E-02       0.001       98.152
     NS sqrt iter    5 1.00000000   0.196E-07       0.001       46.073
     Symmetrizing Results
     Final NS sqrt iter    5 1.00000000   0.559E-08

     Est. extremal eigenvalues     -0.91842     1.62688  converged:  T
     TRS4 it   1 1.00000000   0.873E+00       0.000       16.128   0.100E-07
     TRS4 it   2 1.00000000   0.607E+00       0.001       32.256   0.100E-07
     TRS4 it   3 1.00000000   0.412E+00       0.001       32.256   0.100E-07
     TRS4 it   4 1.00000000   0.209E+00       0.001       32.256   0.100E-07
     TRS4 it   5 1.00000000   0.663E-01       0.001       32.256   0.100E-07
     TRS4 it   6 1.00000000   0.782E-02       0.001       32.256   0.100E-07
     TRS4 it   7 1.00000000   0.124E-03       0.001       32.256   0.100E-07
     TRS4 it   8 1.00000000   0.378E-07       0.001       32.256   0.100E-07
     Final TRS4 iteration    8 1.00000000   0.378E-07
     Chemical potential (mu):       0.00345
 
 PAO| energy:  -7.7102206625363863      penalty:   1.0152441710657597E-005
 PAO|LS| Need extra step
 PAO|LS| adapt:  T T T
 PAO|LS| adapt: scan_steps:    0.0000000000000000       0.98044515386130182        1.9608903077226036     
 PAO|LS| adapt: energies:   -7.7102227936186845       -7.7102311451452703       -7.7102206625363863     
 PAO|LS| adapt: suggested step_size:   0.92497647267134098     
 PAO|LS| adapt: predicted energy  -7.7102311752867640     
[...]
     Symmetrizing Results
     Final NS sqrt iter    5 1.00000000   0.430E-10

     Est. extremal eigenvalues     -0.91840     1.38346  converged:  T
     TRS4 it   1 1.00000000   0.811E+00       0.000       16.128   0.100E-07
     TRS4 it   2 1.00000000   0.578E+00       0.001       32.256   0.100E-07
     TRS4 it   3 1.00000000   0.410E+00       0.001       32.256   0.100E-07
     TRS4 it   4 1.00000000   0.246E+00       0.001       32.256   0.100E-07
     TRS4 it   5 1.00000000   0.108E+00       0.001       32.256   0.100E-07
     TRS4 it   6 1.00000000   0.260E-01       0.001       32.256   0.100E-07
     TRS4 it   7 1.00000000   0.190E-02       0.001       32.256   0.100E-07
     TRS4 it   8 1.00000000   0.120E-04       0.001       32.256   0.100E-07
     TRS4 it   9 1.00000000   0.579E-09       0.001       32.256   0.100E-07
     Final TRS4 iteration    9 1.00000000   0.579E-09
     Chemical potential (mu):      -0.07757
 
 PAO| energy:  -7.7109321625988461      penalty:   5.6548025032105909E-011
 PAO|CG| warming up with steepest descent
 PAO|CG| beta:    0.0000000000000000     
 PAO| norm of gradient:   7.6751756115465484E-006
 PAO| energy improvement:  -2.8543389873902925E-011
 PAO| step    799                   -7.710932163  0.480E-06  0.227E+00     0.081
 PAO| converged after          799  steps :-)
 PAO| Recalculating energy after mixing.

     Lanczos converged:  T threshold:   0.100E-02
     Est. extremal eigenvalues:    0.242E+01   0.235E+00
     Est. condition number :    0.103E+02

 Order=           3
     NS sqrt iter    1 1.00000000   0.612E+00       0.001       54.091
     NS sqrt iter    2 1.00000000   0.252E+00       0.001       94.660
     NS sqrt iter    3 1.00000000   0.373E-01       0.001       95.194
     NS sqrt iter    4 1.00000000   0.231E-03       0.001       97.938
     NS sqrt iter    5 1.00000000   0.485E-09       0.001       35.220
     Symmetrizing Results
     Final NS sqrt iter    5 1.00000000   0.430E-10

     Est. extremal eigenvalues     -0.91840     1.38346  converged:  T
     TRS4 it   1 1.00000000   0.811E+00       0.000       16.128   0.100E-07
     TRS4 it   2 1.00000000   0.578E+00       0.001       32.256   0.100E-07
     TRS4 it   3 1.00000000   0.410E+00       0.001       32.256   0.100E-07
     TRS4 it   4 1.00000000   0.246E+00       0.001       32.256   0.100E-07
     TRS4 it   5 1.00000000   0.108E+00       0.001       32.256   0.100E-07
     TRS4 it   6 1.00000000   0.260E-01       0.001       32.256   0.100E-07
     TRS4 it   7 1.00000000   0.190E-02       0.001       32.256   0.100E-07
     TRS4 it   8 1.00000000   0.120E-04       0.001       32.256   0.100E-07
     TRS4 it   9 1.00000000   0.579E-09       0.001       32.256   0.100E-07
     Final TRS4 iteration    9 1.00000000   0.579E-09
     Chemical potential (mu):      -0.07757
 
 PAO| energy:  -7.7109321625917087      penalty:   5.7068070418912755E-011
 PAO| Writing restart file.
     Est. extremal eigenvalues     -0.91840     1.38346  converged:  T
     TRS4 it   1 1.00000000   0.811E+00       0.003        6.140   0.100E-07
     TRS4 it   2 1.00000000   0.578E+00       0.004        8.982   0.100E-07
     TRS4 it   3 1.00000000   0.410E+00       0.004        8.789   0.100E-07
     TRS4 it   4 1.00000000   0.246E+00       0.004        9.081   0.100E-07
     TRS4 it   5 1.00000000   0.108E+00       0.003        9.440   0.100E-07
     TRS4 it   6 1.00000000   0.260E-01       0.003       11.074   0.100E-07
     TRS4 it   7 1.00000000   0.190E-02       0.003        9.602   0.100E-07
     TRS4 it   8 1.00000000   0.120E-04       0.004        9.006   0.100E-07
     TRS4 it   9 1.00000000   0.579E-09       0.003       10.976   0.100E-07
     Final TRS4 iteration    9 1.00000000   0.579E-09
     Chemical potential (mu):      -0.07757

 SCF     1       -34.445162932       -34.445162932    4.021406

*********************************************************
 Using MIXING_FRACTION=0.450 to mix KS matrix:  iscf=  2
 KS_nw=0.450*KS + 0.550*KS_old
*********************************************************
     Est. extremal eigenvalues     -0.91841     1.38346  converged:  T
     TRS4 it   1 1.00000000   0.811E+00       0.001       16.128   0.100E-07
     TRS4 it   2 1.00000000   0.578E+00       0.001       32.256   0.100E-07
     TRS4 it   3 1.00000000   0.410E+00       0.001       32.256   0.100E-07
     TRS4 it   4 1.00000000   0.246E+00       0.001       32.256   0.100E-07
     TRS4 it   5 1.00000000   0.108E+00       0.001       32.256   0.100E-07
     TRS4 it   6 1.00000000   0.260E-01       0.001       32.256   0.100E-07
     TRS4 it   7 1.00000000   0.190E-02       0.001       32.256   0.100E-07
     TRS4 it   8 1.00000000   0.120E-04       0.001       32.256   0.100E-07
     TRS4 it   9 1.00000000   0.579E-09       0.001       32.256   0.100E-07
     Final TRS4 iteration    9 1.00000000   0.579E-09
     Chemical potential (mu):      -0.07757

 SCF     2       -34.445162932        -0.000000000    4.433533


 SCF run converged in     2 steps.

 PAO| Storing density matrix for ASPC guess in slot:           1

 ENERGY| Total FORCE_EVAL ( QS ) energy [a.u.]:              -34.445162932377173

 -------------------------------------------------------------------------------
 -                                                                             -
 -                                DBCSR STATISTICS                             -
 -                                                                             -
 -------------------------------------------------------------------------------
 COUNTER                                    TOTAL       BLAS       SMM       ACC
 flops     5 x     5 x     4                22000       0.0%    100.0%      0.0%
 flops    13 x     5 x     4                22880       0.0%    100.0%      0.0%
 flops     5 x    13 x     4                22880       0.0%    100.0%      0.0%
 flops    13 x    13 x     4                44616       0.0%    100.0%      0.0%
 flops     4 x     4 x     5              6224640       0.0%    100.0%      0.0%
 flops     5 x     4 x     5              7587200       0.0%    100.0%      0.0%
 flops     4 x     4 x    13              8092032       0.0%    100.0%      0.0%
 flops    13 x     4 x     5              9863360       0.0%    100.0%      0.0%
 flops     5 x     4 x    13              9863360       0.0%    100.0%      0.0%
 flops     5 x     4 x     4             11689920       0.0%    100.0%      0.0%
 flops    13 x     4 x    13             12822368       0.0%    100.0%      0.0%
 flops    13 x     4 x     4             15250976       0.0%    100.0%      0.0%
 flops     4 x     4 x     4            785945088       0.0%    100.0%      0.0%
 flops inhomo. stacks                           0       0.0%      0.0%      0.0%
 flops total                       867.451320E+06       0.0%    100.0%      0.0%
 flops max/rank                    867.451320E+06       0.0%    100.0%      0.0%
 matmuls inhomo. stacks                         0       0.0%      0.0%      0.0%
 matmuls total                            6393862       0.0%    100.0%      0.0%
 number of processed stacks                 51045       0.0%    100.0%      0.0%
 average stack size                                     0.0     125.3       0.0
 marketing flops                     1.419238E+09
 -------------------------------------------------------------------------------
 # multiplications                          42779
 max memory usage/rank             506.499072E+06
 # max total images/rank                        1
 # max 3D layers                                1
 # MPI messages exchanged                       0
 -------------------------------------------------------------------------------

 -------------------------------------------------------------------------------
 -                                                                             -
 -                                DBM STATISTICS                               -
 -                                                                             -
 -------------------------------------------------------------------------------
    M  x    N  x    K                                          COUNT     PERCENT
 -------------------------------------------------------------------------------

 -------------------------------------------------------------------------------
 -                                                                             -
 -                                GRID STATISTICS                              -
 -                                                                             -
 -------------------------------------------------------------------------------
 LP    KERNEL             BACKEND                              COUNT     PERCENT
 2     collocate ortho    REF                                  41866      30.77%
 2     integrate ortho    REF                                  41866      30.77%
 3     collocate ortho    REF                                  21439      15.76%
 3     integrate ortho    REF                                  21439      15.76%
 4     collocate ortho    REF                                   4730       3.48%
 4     integrate ortho    REF                                   4730       3.48%
 0     collocate general  REF                                      6       0.00%
 -------------------------------------------------------------------------------

 MEMORY| Estimated peak process memory [MiB]                                 484

 -------------------------------------------------------------------------------
 -                                                                             -
 -                           R E F E R E N C E S                               -
 -                                                                             -
 -------------------------------------------------------------------------------
 
 CP2K version 2023.1 (Development Version), the CP2K developers group (2023).
 CP2K is freely available from https://www.cp2k.org/ .

 Kuehne,Thomas D.; Iannuzzi,Marcella; Del Ben,Mauro;
 Rybkin,Vladimir V.; Seewald,Patrick; Stein,Frederick; Laino,Teodoro;
 Khaliullin,Rustam Z.; Schuett,Ole; Schiffmann,Florian; Golze,Dorothea;
 Wilhelm,Jan; Chulkov,Sergey; Bani-Hashemian,Mohammad Hossein;
 Weber,Valery; Borstnik,Urban; Taillefumier,Mathieu;
 Jakobovits,Alice Shoshana; Lazzaro,Alfio; Pabst,Hans; Mueller,Tiziano;
 Schade,Robert; Guidon,Manuel; Andermatt,Samuel; Holmberg,Nico;
 Schenter,Gregory K.; Hehn,Anna; Bussy,Augustin; Belleflamme,Fabian;
 Tabacchi,Gloria; Gloess,Andreas; Lass,Michael; Bethune,Iain;
 Mundy,Christopher J.; Plessl,Christian; Watkins,Matt;
 VandeVondele,Joost; Krack,Matthias; Hutter,Juerg. 
 The Journal of Chemical Physics, 152 (19), (2020). 
 CP2K: An electronic structure and molecular dynamics software package -
 Quickstep: Efficient and accurate electronic structure calculations.
 https://doi.org/10.1063/5.0007045

 Schuett, O; VandeVondele, J. 
 Journal of Chemical Theory and Computation, 14, (2018). 
 Machine Learning Adaptive Basis Sets for Efficient Large Scale
 Density Functional Theory Simulation.
 https://doi.org/10.1021/acs.jctc.8b00378

 Schuett, Ole; Messmer, Peter; Hutter, Juerg; VandeVondele, Joost. 
 Electronic Structure Calculations on Graphics Processing Units, John
 Wiley & Sons, Ltd, 173-190 (2016). 
 GPU-Accelerated Sparse Matrix-Matrix Multiplication for
 Linear Scaling Density Functional Theory.
 https://doi.org/10.1002/9781118670712.ch8

 Heinecke, A; Henry, G; Hutchinson, M; Pabst, H. 
 Proceedings of Intl. Supercomputing Conference, 981-991 (2016). 
 LIBXSMM: Accelerating Small Matrix Multiplications
 by Runtime Code Generation.
 https://doi.org/10.1109/SC.2016.83

 Borstnik, U; VandeVondele, J; Weber, V; Hutter, J. 
 PARALLEL COMPUTING, 40 (5-6), 47-58 (2014). 
 Sparse matrix multiplication: The distributed block-compressed sparse
 row library.
 https://doi.org/10.1016/j.parco.2014.03.012

 Hutter, J; Iannuzzi, M; Schiffmann, F; VandeVondele, J. 
 WIREs Comput Mol Sci., 4 (1), 15-25 (2014). 
 CP2K: atomistic simulations of condensed matter systems.
 https://doi.org/10.1002/wcms.1159

 VandeVondele, J; Borstnik, U; Hutter, J. 
 JOURNAL OF CHEMICAL THEORY AND COMPUTATION, 8 (10), 3565-3573 (2012). 
 Linear Scaling Self-Consistent Field Calculations with Millions of Atoms
 in the Condensed Phase.
 https://doi.org/10.1021/ct200897x

 VandeVondele, J; Hutter, J. 
 JOURNAL OF CHEMICAL PHYSICS, 127 (11), 114105 (2007). 
 Gaussian basis sets for accurate calculations on molecular systems in
 gas and condensed phases.
 https://doi.org/10.1063/1.2770708

 Krack, M. 
 THEORETICAL CHEMISTRY ACCOUNTS, 114 (1-3), 145-152 (2005). 
 Pseudopotentials for H to Kr optimized for gradient-corrected
 exchange-correlation functionals.
 https://doi.org/10.1007/s00214-005-0655-y

 VandeVondele, J; Krack, M; Mohamed, F; Parrinello, M; Chassaing, T;
 Hutter, J. COMPUTER PHYSICS COMMUNICATIONS, 167 (2), 103-128 (2005). 
 QUICKSTEP: Fast and accurate density functional calculations using a
 mixed Gaussian and plane waves approach.
 https://doi.org/10.1016/j.cpc.2004.12.014

 Frigo, M; Johnson, SG. 
 PROCEEDINGS OF THE IEEE, 93 (2), 216-231 (2005). 
 The design and implementation of FFTW3.
 https://doi.org/10.1109/JPROC.2004.840301

 Niklasson, AMN; Tymczak, CJ; Challacombe, M. 
 JOURNAL OF CHEMICAL PHYSICS, 118 (19), 8611-8620 (2003). 
 Trace resetting density matrix purification in O(N)
 self-consistent-field theory.
 https://doi.org/10.1063/1.1559913

 Hartwigsen, C; Goedecker, S; Hutter, J. 
 PHYSICAL REVIEW B, 58 (7), 3641-3662 (1998). 
 Relativistic separable dual-space Gaussian pseudopotentials from H to Rn.
 https://doi.org/10.1103/PhysRevB.58.3641

 Lippert, G; Hutter, J; Parrinello, M. 
 MOLECULAR PHYSICS, 92 (3), 477-487 (1997). 
 A hybrid Gaussian and plane wave density functional scheme.
 https://doi.org/10.1080/002689797170220

 Perdew, JP; Burke, K; Ernzerhof, M. 
 PHYSICAL REVIEW LETTERS, 77 (18), 3865-3868 (1996). 
 Generalized gradient approximation made simple.
 https://doi.org/10.1103/PhysRevLett.77.3865

 Goedecker, S; Teter, M; Hutter, J. 
 PHYSICAL REVIEW B, 54 (3), 1703-1710 (1996). 
 Separable dual-space Gaussian pseudopotentials.
 https://doi.org/10.1103/PhysRevB.54.1703


 -------------------------------------------------------------------------------
 -                                                                             -
 -                                T I M I N G                                  -
 -                                                                             -
 -------------------------------------------------------------------------------
 SUBROUTINE                       CALLS  ASD         SELF TIME        TOTAL TIME
                                MAXIMUM       AVERAGE  MAXIMUM  AVERAGE  MAXIMUM
 CP2K                                 1  1.0    0.022    0.022   64.715   64.715
 qs_energies                          1  2.0    0.000    0.000   63.912   63.912
 ls_scf                               1  3.0    0.000    0.000   63.676   63.676
 ls_scf_main                          5  4.0    0.002    0.002   37.931   37.931
 ls_scf_dm_to_ks                     10  5.0    0.000    0.000   37.693   37.693
 qs_ks_update_qs_env                 11  6.0    0.000    0.000   32.695   32.695
 rebuild_ks_matrix                   11  7.0    0.000    0.000   32.694   32.694
 qs_ks_build_kohn_sham_matrix        11  8.0    0.004    0.004   32.694   32.694
 pao_update                           5  4.0    0.032    0.032   19.950   19.950
 qs_vxc_create                       11  9.0    0.001    0.001   19.562   19.562
 xc_vxc_pw_create                    11 10.0    0.363    0.363   19.561   19.561
 pao_calc_energy                    803  5.0    0.006    0.006   18.081   18.081
 pw_transfer                        210 11.1    0.030    0.030   17.244   17.244
 fft_wrap_pw1pw2                    188 12.3    0.005    0.005   16.784   16.784
 fft_wrap_pw1pw2_200                122 13.7    1.834    1.834   16.231   16.231
 dbcsr_multiply_generic           42779  8.4    0.859    0.859   14.328   14.328
 xc_pw_derive                        66 12.0    0.002    0.002   11.455   11.455
 xc_rho_set_and_dset_create          11 11.0    0.447    0.447   11.322   11.322
 qs_rho_update_rho_low               11  6.0    0.000    0.000   10.723   10.723
 calculate_rho_elec                  11  7.0    0.092    0.092   10.723   10.723
 sum_up_and_integrate                11  9.0    0.252    0.252    9.726    9.726
 integrate_v_rspace                  11 10.0    0.001    0.001    9.473    9.473
 pao_dm_trs4                        803  6.0    0.004    0.004    9.198    9.198
 density_matrix_trs4                813  7.0    0.330    0.330    8.820    8.820
 ls_scf_init_matrix_S               808  7.0    0.005    0.005    8.806    8.806
 pao_rebuild_S                      803  6.0    0.003    0.003    8.765    8.765
 matrix_sqrt_Newton_Schulz          808  8.0    0.161    0.161    7.943    7.943
 fft3d_s                            189 14.2    7.598    7.598    7.635    7.635
 xc_pw_divergence                    11 11.0    0.001    0.001    7.619    7.619
 grid_integrate_task_list            11 11.0    7.393    7.393    7.393    7.393
 grid_collocate_task_list            11  8.0    6.856    6.856    6.856    6.856
 pao_guess_initial_P                  1  4.0    0.000    0.000    5.736    5.736
 pao_read_preopt_dm                   1  5.0    0.000    0.000    5.736    5.736
 multiply_cannon                  42779  9.4    2.178    2.178    5.464    5.464
 make_m2s                         85558  9.4    0.274    0.274    5.293    5.293
 make_images                      85558 10.4    1.264    1.264    4.733    4.733
 xc_functional_eval                  11 12.0    0.000    0.000    4.480    4.480
 pbe_lda_eval                        11 13.0    4.479    4.479    4.479    4.479
 density_rs2pw                       11  8.0    0.001    0.001    3.774    3.774
 pw_gather_s                         89 13.8    3.660    3.660    3.660    3.660
 pw_scatter_s                        99 14.7    3.592    3.592    3.592    3.592
 arnoldi_extremal                  1621  8.5    0.006    0.006    2.858    2.858
 arnoldi_normal_ev                 1621  9.5    0.017    0.017    2.852    2.852
 build_subspace                    1621 10.5    0.092    0.092    2.286    2.286
 pw_derive                           66 13.0    2.266    2.266    2.266    2.266
 potential_pw2rs                     11 11.0    0.005    0.005    2.079    2.079
 dbcsr_matrix_vector_mult         38888 11.5    0.269    0.269    2.045    2.045
 pao_calc_AB                       1054  5.8    0.001    0.001    1.857    1.857
 pao_calc_AB_equi                  1054  6.8    0.076    0.076    1.856    1.856
 pw_copy                            132 11.8    1.748    1.748    1.748    1.748
 pao_calc_grad_lnv_wrt_AB           250  7.0    0.027    0.027    1.664    1.664
 dbcsr_finalize                  102247  9.6    0.299    0.299    1.532    1.532
 dbcsr_create_new                328510 10.7    0.868    0.868    1.518    1.518
 multiply_cannon_loop             42779 10.4    0.176    0.176    1.450    1.450
 -------------------------------------------------------------------------------

 The number of warnings for this run is : 0
 
 -------------------------------------------------------------------------------
  **** **** ******  **  PROGRAM ENDED AT                 2023-02-01 10:49:00.383
 ***** ** ***  *** **   PROGRAM RAN ON                                    moritz
 **    ****   ******    PROGRAM RAN BY                                       ole
 ***** **    ** ** **   PROGRAM PROCESS ID                                148763
  **** **  *******  **  PROGRAM STOPPED IN /home/ole/git/pao_ml_equivar/2H2O_MD/
                                           frame_1150
