 DBCSR| CPU Multiplication driver                                           XSMM (U)
 DBCSR| Multrec recursion limit                                              512 (U)
 DBCSR| Multiplication stack size                                           1000 (D)
 DBCSR| Maximum elements for images                                    UNLIMITED (U)
 DBCSR| Multiplicative factor virtual images                                   1 (U)
 DBCSR| Use multiplication densification                                       T (D)
 DBCSR| Multiplication size stacks                                             3 (U)
 DBCSR| Use memory pool for CPU allocation                                     F (U)
 DBCSR| OMP: Current number of threads                                         1
 DBCSR| OMP: Max number of threads                                             1
 DBCSR| Split modifier for TAS multiplication algorithm                  1.0E+00 (U)


  **** **** ******  **  PROGRAM STARTED AT               2023-02-01 10:47:55.386
 ***** ** ***  *** **   PROGRAM STARTED ON                                moritz
 **    ****   ******    PROGRAM STARTED BY                                   ole
 ***** **    ** ** **   PROGRAM PROCESS ID                                148755
  **** **  *******  **  PROGRAM STARTED IN /home/ole/git/pao_ml_equivar/2H2O_MD/
                                           frame_1050

 CP2K| version string:                 CP2K version 2023.1 (Development Version)
 CP2K| source code revision number:                                  git:03b4147
 CP2K| cp2kflags: omp libint fftw3 libxc quip xsmm spglib libvori libbqb libtorc
 CP2K|            h
 CP2K| is freely available from                            https://www.cp2k.org/
 CP2K| Program compiled at                           Mi 01 Feb 2023 10:36:52 CET
 CP2K| Program compiled on                                                moritz
 CP2K| Program compiled for                                                local
 CP2K| Data directory path                               /home/ole/git/cp2k/data
 CP2K| Input file name                                            2H2O_pao44.inp

 GLOBAL| Force Environment number                                              1
 GLOBAL| Basis set file name                                        BASIS_MOLOPT
 GLOBAL| Potential file name                                      GTH_POTENTIALS
 GLOBAL| MM Potential file name                                     MM_POTENTIAL
 GLOBAL| Coordinate file name                                         coords.xyz
 GLOBAL| Method name                                                        CP2K
 GLOBAL| Project name                                                 2H2O_pao44
 GLOBAL| Run type                                                         ENERGY
 GLOBAL| FFT library                                                       FFTW3
 GLOBAL| Diagonalization library                                       ScaLAPACK
 GLOBAL| DGEMM library                                                      BLAS
 GLOBAL| Orthonormality check for eigenvectors                          DISABLED
 GLOBAL| Matrix multiplication library                                 ScaLAPACK
 GLOBAL| All-to-all communication in single precision                          F
 GLOBAL| FFTs using library dependent lengths                                  F
 GLOBAL| Grid backend                                                       AUTO
 GLOBAL| Global print level                                                  LOW
 GLOBAL| MPI I/O enabled                                                       T
 GLOBAL| Total number of message passing processes                             1
 GLOBAL| Number of threads for this process                                    1
 GLOBAL| This output is from process                                           0
 GLOBAL| Stack size for threads created by OpenMP (OMP_STACKSIZE)        default
 GLOBAL| CPU model name           AMD Ryzen Threadripper 3970X 32-Core Processor
 GLOBAL| CPUID                                                              1002
 GLOBAL| Compiled for CPUID                                                    0

 *** HINT in environment.F:884 :: The compiler target flags (generic) used ***
 *** to build this binary cannot exploit all extensions of this CPU model  ***
 *** (x86_avx2). Consider compiler target flags as part of FCFLAGS and     ***
 *** CFLAGS (ARCH file).                                                   ***


 MEMORY| system memory details [Kb]
 MEMORY|                        rank 0           min           max       average
 MEMORY| MemTotal            131773860     131773860     131773860     131773860
 MEMORY| MemFree             115281312     115281312     115281312     115281312
 MEMORY| Buffers                302624        302624        302624        302624
 MEMORY| Cached                7056636       7056636       7056636       7056636
 MEMORY| Slab                   780228        780228        780228        780228
 MEMORY| SReclaimable           332704        332704        332704        332704
 MEMORY| MemLikelyFree       122973276     122973276     122973276     122973276


 GENERATE|  Preliminary Number of Bonds generated:                             0
 GENERATE|  Achieved consistency in connectivity generation.

 *******************************************************************************
 *******************************************************************************
 **                                                                           **
 **     #####                         ##              ##                      **
 **    ##   ##            ##          ##              ##                      **
 **   ##     ##                       ##            ######                    **
 **   ##     ##  ##   ##  ##   #####  ##  ##   ####   ##    #####    #####    **
 **   ##     ##  ##   ##  ##  ##      ## ##   ##      ##   ##   ##  ##   ##   **
 **   ##  ## ##  ##   ##  ##  ##      ####     ###    ##   ######   ######    **
 **    ##  ###   ##   ##  ##  ##      ## ##      ##   ##   ##       ##        **
 **     #######   #####   ##   #####  ##  ##  ####    ##    #####   ##        **
 **           ##                                                    ##        **
 **                                                                           **
 **                                                ... make the atoms dance   **
 **                                                                           **
 **            Copyright (C) by CP2K developers group (2000-2023)             **
 **                      J. Chem. Phys. 152, 194103 (2020)                    **
 **                                                                           **
 *******************************************************************************


 TOTAL NUMBERS AND MAXIMUM NUMBERS

  Total number of            - Atomic kinds:                                   2
                             - Atoms:                                          6
                             - Shell sets:                                     6
                             - Shells:                                        22
                             - Primitive Cartesian functions:                 42
                             - Cartesian basis functions:                     48
                             - Spherical basis functions:                     46

  Maximum angular momentum of- Orbital basis functions:                        2
                             - Local part of the GTH pseudopotential:          2
                             - Non-local part of the GTH pseudopotential:      0

 ------------------------------ Linear scaling SCF -----------------------------
 eps_scf:                                                              0.100E-07
 eps_filter:                                                           0.100E-07
 mixing_fraction:                                                      0.450E+00
 max_scf:                                                                     25
 fixed chemical potential (mu)                                                 F
 has unit metric:                                                              F
 Computing inv(S):                                                             T
 Computing sqrt(S):                                                            T
 Computing S preconditioner                                                    F
 S sqrt method:                                                     NEWTONSCHULZ
 S sqrt order:                                                                 3
 Extrapolation order:                                                          1
 Use single precision matrices                                                 F
 S preconditioner type                                                      NONE
 Polarized Atomic Orbitals (PAO)                                               T
 Purification method                                   Trace resetting 4th order
 Cluster type                                                             ATOMIC
 Computing Chebyshev                                                       FALSE
 Using PAO                                                                     T
 -------------------------------------------------------------------------------

 
 PAO|                                  EPS_PAO                           0.5E-06
 PAO|                                  MIXING                            0.5E+00
 PAO|                                  MAX_PAO                              1500
 PAO|                                  MAX_CYCLES                           1000
 PAO|                                  PARAMETERIZATION              EQUIVARIANT
 PAO|                                  PRECONDITION                            F
 PAO|                                  REGULARIZATION                    0.0E+00
 PAO|                                  EPS_PGF                           0.1E-09
 PAO|                                  PENALTY_DISTANCE                  0.1E+00
 PAO|                                  PENALTY_STRENGTH                  0.5E-02
 PAO|                                  LINPOT_PRECONDITION_DELTA         0.0E+00
 PAO|                                  LINPOT_INITGUESS_DELT             0.0E+00
 PAO|                                  LINPOT_REGULARIZATION_DELTA       0.0E+00
 PAO|                                  LINPOT_REGULARIZATION_STRENGTH    0.0E+00
 PAO|                                  OPTIMIZER                              CG
 PAO|                                  CG_INIT_STEPS                           2
 PAO|                                  CG_RESET_LIMIT                    0.1E+00
 PAO|                                  CHECK_UNITARY_TOL                -0.1E+01
 PAO|                                  CHECK_GRADIENT_TOL               -0.1E+01
 PAO|                                  NUM_GRADIENT_ORDER                      2
 PAO|                                  NUM_GRADIENT_EPS                  0.1E-07
 PAO|                                  PRINT%RESTART%WRITE_CYCLES            100
 PAO|                                  RESTART_FILE 
 PAO|                                  PREOPT_DM_FILE 2H2O_ref_LS_DM_SPIN_1_RESTART.dm
 PAO|                                  MACHINE_LEARNING%METHOD       GAUSSIAN_PR
 PAO|                                  MACHINE_LEARNING%PRIOR               ZERO
 PAO|                                  MACHINE_LEARNING%DESCRIPTOR     POTENTIAL
 PAO|                                  MACHINE_LEARNING%TOLERANCE        0.1E-01
 PAO|                                  MACHINE_LEARNING%GP_NOISE_VAR     0.1E+00
 PAO|                                  MACHINE_LEARNING%GP_SCALE         0.5E-01
 

 Calculating atomic Fock matrix for atomic kind: O

 Electronic structure
    Total number of core electrons                                          2.00
    Total number of valence electrons                                       6.00
    Total number of electrons                                               8.00
    Multiplicity                                                   not specified
    S   [  2.00] 2.00
    P      4.00


 *******************************************************************************
                  Iteration          Convergence                     Energy [au]
 *******************************************************************************
                          1        0.708315                     -15.576645311500
                          2        0.608879                     -15.587933561584
                          3        0.102828E-01                 -15.656849565404
                          4        0.113889E-02                 -15.656866888140
                          5        0.434197E-03                 -15.656867072159
                          6        0.263771E-03                 -15.656867091904
                          7        0.478536E-06                 -15.656867103452

 Energy components [Hartree]           Total Energy ::          -15.656867103452
                                        Band Energy ::           -3.000198112285
                                     Kinetic Energy ::           11.759971203220
                                   Potential Energy ::          -27.416838306672
                                      Virial (-V/T) ::            2.331369510426
                                        Core Energy ::          -26.140716385623
                                          XC Energy ::           -3.154051012914
                                     Coulomb Energy ::           13.637900295084
                       Total Pseudopotential Energy ::          -37.935781716540
                       Local Pseudopotential Energy ::          -39.218907440693
                    Nonlocal Pseudopotential Energy ::            1.283125724153
                                        Confinement ::            0.350941276976

 Orbital energies  State     L     Occupation   Energy[a.u.]          Energy[eV]

                       1     0          2.000      -0.864471          -23.523463

                       1     1          4.000      -0.317814           -8.648154


 Total Electron Density at R=0:                                         0.000068

 Calculating atomic Fock matrix for atomic kind: H

 Electronic structure
    Total number of core electrons                                          0.00
    Total number of valence electrons                                       1.00
    Total number of electrons                                               1.00
    Multiplicity                                                   not specified
    S      1.00


 *******************************************************************************
                  Iteration          Convergence                     Energy [au]
 *******************************************************************************
                          1        0.437545E-02                  -0.424159432110
                          2        0.531356E-03                  -0.424178438213
                          3        0.259176E-06                  -0.424178722480

 Energy components [Hartree]           Total Energy ::           -0.424178722480
                                        Band Energy ::           -0.199015229016
                                     Kinetic Energy ::            0.464007633961
                                   Potential Energy ::           -0.888186356441
                                      Virial (-V/T) ::            1.914163240935
                                        Core Energy ::           -0.479160803564
                                          XC Energy ::           -0.244352904054
                                     Coulomb Energy ::            0.299334985138
                       Total Pseudopotential Energy ::           -0.962295316385
                       Local Pseudopotential Energy ::           -0.962295316385
                    Nonlocal Pseudopotential Energy ::            0.000000000000
                                        Confinement ::            0.191268788606

 Orbital energies  State     L     Occupation   Energy[a.u.]          Energy[eV]

                       1     0          1.000      -0.199015           -5.415480


 Total Electron Density at R=0:                                         0.242907
 PAO| Made initial guess for matrix_X with norm:   4.8989794855663558     

     Lanczos converged:  T threshold:   0.100E-02
     Est. extremal eigenvalues:    0.317E+01   0.111E+00
     Est. condition number :    0.286E+02

 Order=           3
     NS sqrt iter    1 1.00000000   0.775E+00       0.001       50.770
     NS sqrt iter    2 1.00000000   0.415E+00       0.001      108.781
     NS sqrt iter    3 1.00000000   0.157E+00       0.001      109.374
     NS sqrt iter    4 1.00000000   0.172E-01       0.001      107.786
     NS sqrt iter    5 1.00000000   0.376E-04       0.001       80.740
     Symmetrizing Results
     Final NS sqrt iter    5 1.00000000   0.292E-08

 PAO| Read restart DM 2H2O_ref_LS_DM_SPIN_1_RESTART.dm with checksum:    59.337723233908164     
 PAO| Quickstep energy from restart density:  -34.446777437293889     
 PAO| ======================= Iteration:         1 =============================

     Lanczos converged:  T threshold:   0.100E-02
     Est. extremal eigenvalues:    0.317E+01   0.111E+00
     Est. condition number :    0.286E+02

 Order=           3
     NS sqrt iter    1 1.00000000   0.775E+00       0.001       59.952
     NS sqrt iter    2 1.00000000   0.415E+00       0.001      105.391
     NS sqrt iter    3 1.00000000   0.157E+00       0.001      102.031
     NS sqrt iter    4 1.00000000   0.172E-01       0.001      101.996
     NS sqrt iter    5 1.00000000   0.376E-04       0.001       83.088
     Symmetrizing Results
     Final NS sqrt iter    5 1.00000000   0.292E-08

     Est. extremal eigenvalues     -0.90114     1.85303  converged:  T
     TRS4 it   1 1.00000000   0.887E+00       0.000       16.128   0.100E-07
     TRS4 it   2 1.00000000   0.691E+00       0.001       32.256   0.100E-07
     TRS4 it   3 1.00000000   0.498E+00       0.001       32.256   0.100E-07
     TRS4 it   4 1.00000000   0.314E+00       0.001       32.256   0.100E-07
     TRS4 it   5 1.00000000   0.156E+00       0.001       32.256   0.100E-07
     TRS4 it   6 1.00000000   0.479E-01       0.001       32.256   0.100E-07
     TRS4 it   7 1.00000000   0.591E-02       0.001       32.256   0.100E-07
     TRS4 it   8 1.00000000   0.119E-03       0.001       32.256   0.100E-07
     TRS4 it   9 1.00000000   0.547E-07       0.002       16.806   0.100E-07
     Final TRS4 iteration    9 1.00000000   0.547E-07
     Chemical potential (mu):      -0.07325
 
 PAO| energy:  -7.5730671199065771      penalty:   4.8687508994109325E-033
 PAO|CG| warming up with steepest descent
 PAO|CG| beta:    0.0000000000000000     
 PAO| norm of gradient:  0.78621539859608769     
 PAO|LS| adapt:  T F F
 PAO|LS| adapt: scan_steps:    0.0000000000000000        0.0000000000000000        0.0000000000000000     
 PAO|LS| adapt: energies:   -7.5730671199065771        0.0000000000000000        0.0000000000000000     
 PAO| ======================= Iteration:         2 =============================

     Lanczos converged:  T threshold:   0.100E-02
     Est. extremal eigenvalues:    0.311E+01   0.124E+00
     Est. condition number :    0.250E+02

 Order=           3
     NS sqrt iter    1 1.00000000   0.763E+00       0.001       58.911
     NS sqrt iter    2 1.00000000   0.401E+00       0.001      100.507
     NS sqrt iter    3 1.00000000   0.140E+00       0.001      105.733
     NS sqrt iter    4 1.00000000   0.117E-01       0.001      104.036
     NS sqrt iter    5 1.00000000   0.122E-04       0.001       77.092
     Symmetrizing Results
     Final NS sqrt iter    5 1.00000000   0.258E-09

     Est. extremal eigenvalues     -0.90461     1.80251  converged:  T
     TRS4 it   1 1.00000000   0.885E+00       0.000       16.128   0.100E-07
     TRS4 it   2 1.00000000   0.674E+00       0.001       32.256   0.100E-07
     TRS4 it   3 1.00000000   0.482E+00       0.001       32.256   0.100E-07
     TRS4 it   4 1.00000000   0.293E+00       0.001       32.256   0.100E-07
     TRS4 it   5 1.00000000   0.137E+00       0.001       32.256   0.100E-07
     TRS4 it   6 1.00000000   0.369E-01       0.001       32.256   0.100E-07
     TRS4 it   7 1.00000000   0.353E-02       0.001       32.256   0.100E-07
     TRS4 it   8 1.00000000   0.426E-04       0.001       32.256   0.100E-07
     TRS4 it   9 1.00000000   0.706E-08       0.001       32.256   0.100E-07
     Final TRS4 iteration    9 1.00000000   0.706E-08
     Chemical potential (mu):      -0.06196
 
 PAO| energy:  -7.6287583033874178      penalty:   2.2755248249707845E-008
 PAO|LS| adapt:  T T F
 PAO|LS| adapt: scan_steps:    0.0000000000000000       0.10000000000000001        0.0000000000000000     
 PAO|LS| adapt: energies:   -7.5730671199065771       -7.6287583033874178        0.0000000000000000     
 PAO| ======================= Iteration:         3 =============================

     Lanczos converged:  T threshold:   0.100E-02
     Est. extremal eigenvalues:    0.303E+01   0.136E+00
     Est. condition number :    0.223E+02

 Order=           3
     NS sqrt iter    1 1.00000000   0.750E+00       0.001       58.541
     NS sqrt iter    2 1.00000000   0.387E+00       0.001       96.588
     NS sqrt iter    3 1.00000000   0.124E+00       0.001      100.404
     NS sqrt iter    4 1.00000000   0.807E-02       0.001      104.439
     NS sqrt iter    5 1.00000000   0.414E-05       0.001       81.399
     Symmetrizing Results
     Final NS sqrt iter    5 1.00000000   0.295E-10

     Est. extremal eigenvalues     -0.90782     1.76423  converged:  T
     TRS4 it   1 1.00000000   0.884E+00       0.000       16.128   0.100E-07
     TRS4 it   2 1.00000000   0.658E+00       0.001       32.256   0.100E-07
     TRS4 it   3 1.00000000   0.467E+00       0.001       32.256   0.100E-07
     TRS4 it   4 1.00000000   0.274E+00       0.001       32.256   0.100E-07
     TRS4 it   5 1.00000000   0.119E+00       0.002       16.829   0.100E-07
     TRS4 it   6 1.00000000   0.276E-01       0.001       32.256   0.100E-07
     TRS4 it   7 1.00000000   0.196E-02       0.001       32.256   0.100E-07
     TRS4 it   8 1.00000000   0.132E-04       0.001       32.256   0.100E-07
     TRS4 it   9 1.00000000   0.686E-09       0.001       32.256   0.100E-07
     Final TRS4 iteration    9 1.00000000   0.686E-09
     Chemical potential (mu):      -0.04954
 
 PAO| energy:  -7.6716011267939130      penalty:   3.6408385918663872E-007
 PAO|LS| adapt:  T T F
 PAO|LS| adapt: scan_steps:    0.0000000000000000       0.20000000000000001        0.0000000000000000     
 PAO|LS| adapt: energies:   -7.5730671199065771       -7.6716011267939130        0.0000000000000000     
 PAO| ======================= Iteration:         4 =============================

     Lanczos converged:  T threshold:   0.100E-02
     Est. extremal eigenvalues:    0.288E+01   0.155E+00
     Est. condition number :    0.186E+02

 Order=           3
     NS sqrt iter    1 1.00000000   0.722E+00       0.001       60.019
     NS sqrt iter    2 1.00000000   0.356E+00       0.001      103.673
     NS sqrt iter    3 1.00000000   0.971E-01       0.001      102.663
     NS sqrt iter    4 1.00000000   0.403E-02       0.001       99.214
     NS sqrt iter    5 1.00000000   0.609E-06       0.001       79.234
     Symmetrizing Results
     Final NS sqrt iter    5 1.00000000   0.686E-09

     Est. extremal eigenvalues     -0.91272     1.71324  converged:  T
     TRS4 it   1 1.00000000   0.885E+00       0.000       16.128   0.100E-07
     TRS4 it   2 1.00000000   0.634E+00       0.001       32.256   0.100E-07
     TRS4 it   3 1.00000000   0.439E+00       0.001       32.256   0.100E-07
     TRS4 it   4 1.00000000   0.238E+00       0.001       32.256   0.100E-07
     TRS4 it   5 1.00000000   0.879E-01       0.001       32.256   0.100E-07
     TRS4 it   6 1.00000000   0.146E-01       0.001       32.256   0.100E-07
     TRS4 it   7 1.00000000   0.519E-03       0.001       32.256   0.100E-07
     TRS4 it   8 1.00000000   0.897E-06       0.001       32.256   0.100E-07
     TRS4 it   9 1.00000000   0.326E-11       0.001       32.256   0.100E-07
     Final TRS4 iteration    9 1.00000000   0.326E-11
     Chemical potential (mu):      -0.02229
 
 PAO| energy:  -7.7173644545130253      penalty:   5.8253408445218929E-006
 PAO|LS| Need extra step
 PAO|LS| adapt:  T T F
 PAO|LS| adapt: scan_steps:    0.0000000000000000       0.40000000000000002        0.0000000000000000     
 PAO|LS| adapt: energies:   -7.5730671199065771       -7.7173644545130253        0.0000000000000000     
 PAO| ======================= Iteration:         5 =============================

     Lanczos converged:  T threshold:   0.100E-02
     Est. extremal eigenvalues:    0.258E+01   0.182E+00
     Est. condition number :    0.142E+02

 Order=           3
     NS sqrt iter    1 1.00000000   0.670E+00       0.001       61.730
     NS sqrt iter    2 1.00000000   0.299E+00       0.001      106.039
     NS sqrt iter    3 1.00000000   0.606E-01       0.001      103.195
     NS sqrt iter    4 1.00000000   0.119E-02       0.001      106.983
     NS sqrt iter    5 1.00000000   0.192E-07       0.001       49.755
     Symmetrizing Results
     Final NS sqrt iter    5 1.00000000   0.408E-08

     Est. extremal eigenvalues     -0.91354     1.66328  converged:  T
     TRS4 it   1 1.00000000   0.888E+00       0.000       16.128   0.100E-07
     TRS4 it   2 1.00000000   0.603E+00       0.001       32.256   0.100E-07
     TRS4 it   3 1.00000000   0.397E+00       0.001       32.256   0.100E-07
     TRS4 it   4 1.00000000   0.185E+00       0.001       32.256   0.100E-07
     TRS4 it   5 1.00000000   0.497E-01       0.001       32.256   0.100E-07
     TRS4 it   6 1.00000000   0.428E-02       0.001       32.256   0.100E-07
     TRS4 it   7 1.00000000   0.394E-04       0.001       32.256   0.100E-07
     TRS4 it   8 1.00000000   0.465E-08       0.001       32.256   0.100E-07
     Final TRS4 iteration    8 1.00000000   0.465E-08
     Chemical potential (mu):       0.02371
 
 PAO| energy:  -7.6564143153804176      penalty:   9.3205446292653793E-005
 PAO|LS| Need extra step
 PAO|LS| adapt:  T T T
 PAO|LS| adapt: scan_steps:    0.0000000000000000       0.40000000000000002       0.80000000000000004     
 PAO|LS| adapt: energies:   -7.5730671199065771       -7.7173644545130253       -7.6564143153804176     
 PAO|LS| adapt: suggested step_size:   0.48121629363370888     
 PAO|LS| adapt: predicted energy  -7.7215951734512442     
 PAO| ======================= Iteration:         6 =============================

     Lanczos converged:  T threshold:   0.100E-02
     Est. extremal eigenvalues:    0.282E+01   0.161E+00
     Est. condition number :    0.175E+02

 Order=           3
     NS sqrt iter    1 1.00000000   0.711E+00       0.001       51.282
     NS sqrt iter    2 1.00000000   0.344E+00       0.001      104.938
     NS sqrt iter    3 1.00000000   0.880E-01       0.001      108.317
     NS sqrt iter    4 1.00000000   0.311E-02       0.001      108.427
     NS sqrt iter    5 1.00000000   0.298E-06       0.001       76.187
     Symmetrizing Results
     Final NS sqrt iter    5 1.00000000   0.853E-09

     Est. extremal eigenvalues     -0.91394     1.69908  converged:  T
     TRS4 it   1 1.00000000   0.885E+00       0.000       16.128   0.100E-07
     TRS4 it   2 1.00000000   0.626E+00       0.001       32.256   0.100E-07
     TRS4 it   3 1.00000000   0.429E+00       0.001       32.256   0.100E-07
     TRS4 it   4 1.00000000   0.226E+00       0.001       32.256   0.100E-07
     TRS4 it   5 1.00000000   0.777E-01       0.001       32.256   0.100E-07
     TRS4 it   6 1.00000000   0.112E-01       0.001       32.256   0.100E-07
     TRS4 it   7 1.00000000   0.292E-03       0.001       32.256   0.100E-07
     TRS4 it   8 1.00000000   0.274E-06       0.001       32.256   0.100E-07
     TRS4 it   9 1.00000000   0.308E-12       0.001       32.256   0.100E-07
     Final TRS4 iteration    9 1.00000000   0.308E-12
     Chemical potential (mu):      -0.01069
 
 PAO| energy:  -7.7208892101174884      penalty:   1.2202327021627828E-005
 PAO|CG| warming up with steepest descent
 PAO|CG| beta:    0.0000000000000000     
 PAO| norm of gradient:  0.41733938075533711     
 PAO| energy improvement: -0.14782209021091131     
 PAO| step      6                   -7.720889210  0.261E-01  0.481E+00     0.096
 PAO|LS| adapt:  T F F
 PAO|LS| adapt: scan_steps:    0.0000000000000000        0.0000000000000000        0.0000000000000000     
 PAO|LS| adapt: energies:   -7.7208892101174884        0.0000000000000000        0.0000000000000000     
 PAO| ======================= Iteration:         7 =============================

     Lanczos converged:  T threshold:   0.100E-02
     Est. extremal eigenvalues:    0.274E+01   0.176E+00
     Est. condition number :    0.156E+02

 Order=           3
     NS sqrt iter    1 1.00000000   0.696E+00       0.001       61.708
     NS sqrt iter    2 1.00000000   0.324E+00       0.001       90.675
     NS sqrt iter    3 1.00000000   0.736E-01       0.001      104.766
     NS sqrt iter    4 1.00000000   0.190E-02       0.001      104.259
     NS sqrt iter    5 1.00000000   0.737E-07       0.001       68.305
     Symmetrizing Results
     Final NS sqrt iter    5 1.00000000   0.648E-09

     Est. extremal eigenvalues     -0.91580     1.69660  converged:  T
     TRS4 it   1 1.00000000   0.887E+00       0.000       16.128   0.100E-07
     TRS4 it   2 1.00000000   0.628E+00       0.001       32.256   0.100E-07
     TRS4 it   3 1.00000000   0.431E+00       0.001       32.256   0.100E-07
     TRS4 it   4 1.00000000   0.228E+00       0.001       32.256   0.100E-07
     TRS4 it   5 1.00000000   0.795E-01       0.001       32.256   0.100E-07
     TRS4 it   6 1.00000000   0.115E-01       0.001       32.256   0.100E-07
     TRS4 it   7 1.00000000   0.302E-03       0.001       32.256   0.100E-07
     TRS4 it   8 1.00000000   0.287E-06       0.001       32.256   0.100E-07
     TRS4 it   9 1.00000000   0.337E-12       0.002       16.534   0.100E-07
     Final TRS4 iteration    9 1.00000000   0.337E-12
     Chemical potential (mu):      -0.01055
 
 PAO| energy:  -7.7186562346274954      penalty:   1.8417573759884489E-005
 PAO|LS| adapt:  T F T
 PAO|LS| adapt: scan_steps:    0.0000000000000000        0.0000000000000000       0.48121629363370888     
 PAO|LS| adapt: energies:   -7.7208892101174884        0.0000000000000000       -7.7186562346274954     
 PAO| ======================= Iteration:         8 =============================

     Lanczos converged:  T threshold:   0.100E-02
     Est. extremal eigenvalues:    0.278E+01   0.168E+00
     Est. condition number :    0.165E+02

 Order=           3
     NS sqrt iter    1 1.00000000   0.704E+00       0.001       61.105
     NS sqrt iter    2 1.00000000   0.334E+00       0.001      106.269
     NS sqrt iter    3 1.00000000   0.806E-01       0.001      103.406
     NS sqrt iter    4 1.00000000   0.245E-02       0.001      103.611
     NS sqrt iter    5 1.00000000   0.151E-06       0.001       75.705
     Symmetrizing Results
     Final NS sqrt iter    5 1.00000000   0.554E-09

     Est. extremal eigenvalues     -0.91578     1.69744  converged:  T
     TRS4 it   1 1.00000000   0.886E+00       0.000       16.128   0.100E-07
     TRS4 it   2 1.00000000   0.627E+00       0.001       32.256   0.100E-07
     TRS4 it   3 1.00000000   0.430E+00       0.001       32.256   0.100E-07
     TRS4 it   4 1.00000000   0.226E+00       0.001       32.256   0.100E-07
     TRS4 it   5 1.00000000   0.785E-01       0.001       32.256   0.100E-07
     TRS4 it   6 1.00000000   0.115E-01       0.001       32.256   0.100E-07
     TRS4 it   7 1.00000000   0.307E-03       0.001       32.256   0.100E-07
     TRS4 it   8 1.00000000   0.303E-06       0.001       32.256   0.100E-07
     TRS4 it   9 1.00000000   0.375E-12       0.001       32.256   0.100E-07
     Final TRS4 iteration    9 1.00000000   0.375E-12
     Chemical potential (mu):      -0.01130
 
 PAO| energy:  -7.7410510057379911      penalty:   1.3239664204704707E-005
 PAO|LS| adapt:  T T T
 PAO|LS| adapt: scan_steps:    0.0000000000000000       0.24060814681685444       0.48121629363370888     
 PAO|LS| adapt: energies:   -7.7208892101174884       -7.7410510057379911       -7.7186562346274954     
 PAO|LS| adapt: suggested step_size:   0.23429570039782358     
 PAO|LS| adapt: predicted energy  -7.7410656514787135     
 PAO| ======================= Iteration:         9 =============================

     Lanczos converged:  T threshold:   0.100E-02
     Est. extremal eigenvalues:    0.278E+01   0.168E+00
     Est. condition number :    0.165E+02

 Order=           3
     NS sqrt iter    1 1.00000000   0.704E+00       0.001       55.700
     NS sqrt iter    2 1.00000000   0.334E+00       0.001      103.742
     NS sqrt iter    3 1.00000000   0.808E-01       0.001      104.808
     NS sqrt iter    4 1.00000000   0.246E-02       0.001      104.635
     NS sqrt iter    5 1.00000000   0.154E-06       0.001       73.137
     Symmetrizing Results
     Final NS sqrt iter    5 1.00000000   0.565E-09

     Est. extremal eigenvalues     -0.91576     1.69747  converged:  T
     TRS4 it   1 1.00000000   0.886E+00       0.000       16.128   0.100E-07
     TRS4 it   2 1.00000000   0.627E+00       0.001       32.256   0.100E-07
     TRS4 it   3 1.00000000   0.430E+00       0.001       32.256   0.100E-07
     TRS4 it   4 1.00000000   0.226E+00       0.001       32.256   0.100E-07
     TRS4 it   5 1.00000000   0.785E-01       0.001       32.256   0.100E-07
     TRS4 it   6 1.00000000   0.115E-01       0.001       32.256   0.100E-07
     TRS4 it   7 1.00000000   0.307E-03       0.001       32.256   0.100E-07
     TRS4 it   8 1.00000000   0.303E-06       0.001       32.256   0.100E-07
     TRS4 it   9 1.00000000   0.375E-12       0.001       32.256   0.100E-07
     Final TRS4 iteration    9 1.00000000   0.375E-12
     Chemical potential (mu):      -0.01130
 
 PAO| energy:  -7.7410749391736173      penalty:   1.3173432306295053E-005
 PAO|CG| trace_G_new    4.0029258603118456E-002
 PAO|CG| trace_G_prev   0.17417215872924824     
 PAO|CG| trace_G_mix   -1.4565289095670357E-003
 PAO|CG| trace_D   0.17417215872924824     
 PAO|CG| trace_D_Gnew   1.4565289095670357E-003
 PAO|CG| beta:   0.23818839827997668     
 PAO| norm of gradient:  0.20007313313665695     
 PAO| energy improvement:  -2.0185729056128920E-002
 PAO| step      9                   -7.741074939  0.125E-01  0.234E+00     0.060
 PAO|LS| adapt:  T F F
 PAO|LS| adapt: scan_steps:    0.0000000000000000        0.0000000000000000        0.0000000000000000     
 PAO|LS| adapt: energies:   -7.7410749391736173        0.0000000000000000        0.0000000000000000     
 PAO| ======================= Iteration:        10 =============================

     Lanczos converged:  T threshold:   0.100E-02
     Est. extremal eigenvalues:    0.275E+01   0.174E+00
     Est. condition number :    0.158E+02

 Order=           3
     NS sqrt iter    1 1.00000000   0.696E+00       0.001       60.297
     NS sqrt iter    2 1.00000000   0.326E+00       0.001      102.370
     NS sqrt iter    3 1.00000000   0.753E-01       0.001      104.810
     NS sqrt iter    4 1.00000000   0.201E-02       0.001      101.863
     NS sqrt iter    5 1.00000000   0.853E-07       0.001       71.040
     Symmetrizing Results
     Final NS sqrt iter    5 1.00000000   0.653E-09

     Est. extremal eigenvalues     -0.91671     1.69918  converged:  T
     TRS4 it   1 1.00000000   0.886E+00       0.000       16.128   0.100E-07
     TRS4 it   2 1.00000000   0.627E+00       0.001       32.256   0.100E-07
     TRS4 it   3 1.00000000   0.429E+00       0.001       32.256   0.100E-07
     TRS4 it   4 1.00000000   0.225E+00       0.001       32.256   0.100E-07
     TRS4 it   5 1.00000000   0.770E-01       0.001       32.256   0.100E-07
     TRS4 it   6 1.00000000   0.110E-01       0.001       32.256   0.100E-07
     TRS4 it   7 1.00000000   0.276E-03       0.001       32.256   0.100E-07
     TRS4 it   8 1.00000000   0.240E-06       0.001       32.256   0.100E-07
     TRS4 it   9 1.00000000   0.237E-12       0.001       32.256   0.100E-07
     Final TRS4 iteration    9 1.00000000   0.237E-12
     Chemical potential (mu):      -0.00844
 
 PAO| energy:  -7.7465268748451992      penalty:   1.3828099228844744E-005
 PAO|LS| adapt:  T T F
 PAO|LS| adapt: scan_steps:    0.0000000000000000       0.23429570039782358        0.0000000000000000     
 PAO|LS| adapt: energies:   -7.7410749391736173       -7.7465268748451992        0.0000000000000000     
 PAO| ======================= Iteration:        11 =============================

     Lanczos converged:  T threshold:   0.100E-02
     Est. extremal eigenvalues:    0.271E+01   0.180E+00
     Est. condition number :    0.151E+02

 Order=           3
     NS sqrt iter    1 1.00000000   0.689E+00       0.001       57.760
     NS sqrt iter    2 1.00000000   0.317E+00       0.001      103.579
     NS sqrt iter    3 1.00000000   0.700E-01       0.001      101.947
     NS sqrt iter    4 1.00000000   0.163E-02       0.001       95.645
     NS sqrt iter    5 1.00000000   0.461E-07       0.001       56.660
     Symmetrizing Results
     Final NS sqrt iter    5 1.00000000   0.590E-09

     Est. extremal eigenvalues     -0.91640     1.70195  converged:  T
     TRS4 it   1 1.00000000   0.887E+00       0.000       16.128   0.100E-07
     TRS4 it   2 1.00000000   0.627E+00       0.001       32.256   0.100E-07
     TRS4 it   3 1.00000000   0.428E+00       0.001       32.256   0.100E-07
     TRS4 it   4 1.00000000   0.223E+00       0.001       32.256   0.100E-07
     TRS4 it   5 1.00000000   0.754E-01       0.001       32.256   0.100E-07
     TRS4 it   6 1.00000000   0.105E-01       0.001       32.256   0.100E-07
     TRS4 it   7 1.00000000   0.247E-03       0.001       32.256   0.100E-07
     TRS4 it   8 1.00000000   0.189E-06       0.001       32.256   0.100E-07
     TRS4 it   9 1.00000000   0.146E-12       0.001       32.256   0.100E-07
     Final TRS4 iteration    9 1.00000000   0.146E-12
     Chemical potential (mu):      -0.00547
 
 PAO| energy:  -7.7445859390374938      penalty:   1.5271578727727253E-005
 PAO|LS| adapt:  T T T
 PAO|LS| adapt: scan_steps:    0.0000000000000000       0.23429570039782358       0.46859140079564715     
 PAO|LS| adapt: energies:   -7.7410749391736173       -7.7465268748451992       -7.7445859390374938     
 PAO|LS| adapt: suggested step_size:   0.28993119835746839     
 PAO|LS| adapt: predicted energy  -7.7467353040069709     
 PAO| ======================= Iteration:        12 =============================

     Lanczos converged:  T threshold:   0.100E-02
     Est. extremal eigenvalues:    0.274E+01   0.175E+00
     Est. condition number :    0.156E+02

 Order=           3
     NS sqrt iter    1 1.00000000   0.695E+00       0.001       53.527
     NS sqrt iter    2 1.00000000   0.324E+00       0.001       98.290
     NS sqrt iter    3 1.00000000   0.740E-01       0.001       95.932
     NS sqrt iter    4 1.00000000   0.192E-02       0.001       91.872
     NS sqrt iter    5 1.00000000   0.739E-07       0.001       63.537
     Symmetrizing Results
     Final NS sqrt iter    5 1.00000000   0.582E-09

     Est. extremal eigenvalues     -0.91675     1.69974  converged:  T
     TRS4 it   1 1.00000000   0.886E+00       0.000       16.128   0.100E-07
     TRS4 it   2 1.00000000   0.627E+00       0.001       32.256   0.100E-07
     TRS4 it   3 1.00000000   0.429E+00       0.001       32.256   0.100E-07
     TRS4 it   4 1.00000000   0.224E+00       0.001       32.256   0.100E-07
     TRS4 it   5 1.00000000   0.766E-01       0.001       32.256   0.100E-07
     TRS4 it   6 1.00000000   0.108E-01       0.001       32.256   0.100E-07
     TRS4 it   7 1.00000000   0.269E-03       0.001       32.256   0.100E-07
     TRS4 it   8 1.00000000   0.227E-06       0.001       32.256   0.100E-07
     TRS4 it   9 1.00000000   0.211E-12       0.001       32.256   0.100E-07
     Final TRS4 iteration    9 1.00000000   0.211E-12
     Chemical potential (mu):      -0.00774
 
 PAO| energy:  -7.7467182565995261      penalty:   1.4090680287275823E-005
 PAO|CG| trace_G_new    1.3760493280622644E-002
 PAO|CG| trace_G_prev    4.0029258603118456E-002
 PAO|CG| trace_G_mix   -6.2175925085449077E-004
 PAO|CG| trace_D    4.9216835306111963E-002
 PAO|CG| trace_D_Gnew   2.7072586642929103E-004
 PAO|CG| beta:   0.35929350263701099     
 PAO| norm of gradient:  0.11730512896128048     
 PAO| energy improvement:  -5.6433174259087338E-003
 PAO| step     12                   -7.746718257  0.733E-02  0.290E+00     0.062
 PAO|LS| adapt:  T F F
 PAO|LS| adapt: scan_steps:    0.0000000000000000        0.0000000000000000        0.0000000000000000     
 PAO|LS| adapt: energies:   -7.7467182565995261        0.0000000000000000        0.0000000000000000     
 PAO| ======================= Iteration:        13 =============================

     Lanczos converged:  T threshold:   0.100E-02
     Est. extremal eigenvalues:    0.271E+01   0.180E+00
     Est. condition number :    0.150E+02

 Order=           3
     NS sqrt iter    1 1.00000000   0.688E+00       0.001       58.966
     NS sqrt iter    2 1.00000000   0.316E+00       0.001      103.556
     NS sqrt iter    3 1.00000000   0.697E-01       0.001      103.689
     NS sqrt iter    4 1.00000000   0.162E-02       0.001      101.692
     NS sqrt iter    5 1.00000000   0.449E-07       0.001       60.123
     Symmetrizing Results
     Final NS sqrt iter    5 1.00000000   0.578E-09

     Est. extremal eigenvalues     -0.91737     1.69439  converged:  T
     TRS4 it   1 1.00000000   0.886E+00       0.000       16.128   0.100E-07
     TRS4 it   2 1.00000000   0.624E+00       0.001       32.256   0.100E-07
     TRS4 it   3 1.00000000   0.425E+00       0.001       32.256   0.100E-07
     TRS4 it   4 1.00000000   0.219E+00       0.001       32.256   0.100E-07
     TRS4 it   5 1.00000000   0.729E-01       0.001       32.256   0.100E-07
     TRS4 it   6 1.00000000   0.976E-02       0.001       32.256   0.100E-07
     TRS4 it   7 1.00000000   0.215E-03       0.001       32.256   0.100E-07
     TRS4 it   8 1.00000000   0.143E-06       0.002       16.370   0.100E-07
     TRS4 it   9 1.00000000   0.838E-13       0.001       32.256   0.100E-07
     Final TRS4 iteration    9 1.00000000   0.838E-13
     Chemical potential (mu):      -0.00336
 
 PAO| energy:  -7.7491101236212510      penalty:   1.4548132222995514E-005
 PAO|LS| adapt:  T T F
 PAO|LS| adapt: scan_steps:    0.0000000000000000       0.28993119835746839        0.0000000000000000     
 PAO|LS| adapt: energies:   -7.7467182565995261       -7.7491101236212510        0.0000000000000000     
 PAO| ======================= Iteration:        14 =============================

     Lanczos converged:  T threshold:   0.100E-02
     Est. extremal eigenvalues:    0.267E+01   0.184E+00
     Est. condition number :    0.145E+02

 Order=           3
     NS sqrt iter    1 1.00000000   0.681E+00       0.001       55.557
     NS sqrt iter    2 1.00000000   0.309E+00       0.001      100.403
     NS sqrt iter    3 1.00000000   0.656E-01       0.001      101.867
     NS sqrt iter    4 1.00000000   0.136E-02       0.001       97.212
     NS sqrt iter    5 1.00000000   0.267E-07       0.001       53.586
     Symmetrizing Results
     Final NS sqrt iter    5 1.00000000   0.536E-08

     Est. extremal eigenvalues     -0.91732     1.68927  converged:  T
     TRS4 it   1 1.00000000   0.886E+00       0.000       16.128   0.100E-07
     TRS4 it   2 1.00000000   0.621E+00       0.001       32.256   0.100E-07
     TRS4 it   3 1.00000000   0.421E+00       0.001       32.256   0.100E-07
     TRS4 it   4 1.00000000   0.215E+00       0.001       32.256   0.100E-07
     TRS4 it   5 1.00000000   0.694E-01       0.001       32.256   0.100E-07
     TRS4 it   6 1.00000000   0.878E-02       0.001       32.256   0.100E-07
     TRS4 it   7 1.00000000   0.172E-03       0.001       32.256   0.100E-07
     TRS4 it   8 1.00000000   0.901E-07       0.001       32.256   0.100E-07
     TRS4 it   9 1.00000000   0.328E-13       0.001       32.256   0.100E-07
     Final TRS4 iteration    9 1.00000000   0.328E-13
     Chemical potential (mu):       0.00085
 
 PAO| energy:  -7.7484213653117573      penalty:   1.5576909625626173E-005
 PAO|LS| adapt:  T T T
 PAO|LS| adapt: scan_steps:    0.0000000000000000       0.28993119835746839       0.57986239671493678     
 PAO|LS| adapt: energies:   -7.7467182565995261       -7.7491101236212510       -7.7484213653117573     
 PAO|LS| adapt: suggested step_size:   0.37007472390507623     
 PAO|LS| adapt: predicted energy  -7.7492278180409633     
 PAO| ======================= Iteration:        15 =============================

     Lanczos converged:  T threshold:   0.100E-02
     Est. extremal eigenvalues:    0.270E+01   0.181E+00
     Est. condition number :    0.149E+02

 Order=           3
     NS sqrt iter    1 1.00000000   0.686E+00       0.001       60.806
     NS sqrt iter    2 1.00000000   0.314E+00       0.001      102.432
     NS sqrt iter    3 1.00000000   0.685E-01       0.001      107.328
     NS sqrt iter    4 1.00000000   0.154E-02       0.001      106.311
     NS sqrt iter    5 1.00000000   0.390E-07       0.001       62.115
     Symmetrizing Results
     Final NS sqrt iter    5 1.00000000   0.359E-09

     Est. extremal eigenvalues     -0.91742     1.69295  converged:  T
     TRS4 it   1 1.00000000   0.886E+00       0.000       16.128   0.100E-07
     TRS4 it   2 1.00000000   0.623E+00       0.001       32.256   0.100E-07
     TRS4 it   3 1.00000000   0.424E+00       0.001       32.256   0.100E-07
     TRS4 it   4 1.00000000   0.218E+00       0.001       32.256   0.100E-07
     TRS4 it   5 1.00000000   0.719E-01       0.001       32.256   0.100E-07
     TRS4 it   6 1.00000000   0.947E-02       0.001       32.256   0.100E-07
     TRS4 it   7 1.00000000   0.202E-03       0.001       32.256   0.100E-07
     TRS4 it   8 1.00000000   0.126E-06       0.001       32.256   0.100E-07
     TRS4 it   9 1.00000000   0.643E-13       0.001       32.256   0.100E-07
     Final TRS4 iteration    9 1.00000000   0.643E-13
     Chemical potential (mu):      -0.00218
 
 PAO| energy:  -7.7492240604071068      penalty:   1.4770884557891153E-005
 PAO|CG| trace_G_new    3.0040512365665352E-003
 PAO|CG| trace_G_prev    1.3760493280622644E-002
 PAO|CG| trace_G_mix    1.0526870211136805E-004
 PAO|CG| trace_D    1.9919444086367567E-002
 PAO|CG| trace_D_Gnew   3.9187155987386693E-005
 PAO|CG| beta:   0.21065978343503114     
 PAO| norm of gradient:   5.4809225834402509E-002
 PAO| energy improvement:  -2.5058038075806977E-003
 PAO| step     15                   -7.749224060  0.343E-02  0.370E+00     0.063
 PAO|LS| adapt:  T F F
 PAO|LS| adapt: scan_steps:    0.0000000000000000        0.0000000000000000        0.0000000000000000     
 PAO|LS| adapt: energies:   -7.7492240604071068        0.0000000000000000        0.0000000000000000     
 PAO| ======================= Iteration:        16 =============================

     Lanczos converged:  T threshold:   0.100E-02
     Est. extremal eigenvalues:    0.269E+01   0.182E+00
     Est. condition number :    0.148E+02

 Order=           3
     NS sqrt iter    1 1.00000000   0.684E+00       0.001       60.878
     NS sqrt iter    2 1.00000000   0.313E+00       0.001      109.389
     NS sqrt iter    3 1.00000000   0.679E-01       0.001      105.164
     NS sqrt iter    4 1.00000000   0.149E-02       0.001      104.808
     NS sqrt iter    5 1.00000000   0.347E-07       0.001       59.633
     Symmetrizing Results
     Final NS sqrt iter    5 1.00000000   0.323E-08

     Est. extremal eigenvalues     -0.91745     1.69153  converged:  T
     TRS4 it   1 1.00000000   0.886E+00       0.000       16.128   0.100E-07
     TRS4 it   2 1.00000000   0.622E+00       0.001       32.256   0.100E-07
     TRS4 it   3 1.00000000   0.422E+00       0.001       32.256   0.100E-07
     TRS4 it   4 1.00000000   0.216E+00       0.001       32.256   0.100E-07
     TRS4 it   5 1.00000000   0.706E-01       0.001       32.256   0.100E-07
     TRS4 it   6 1.00000000   0.915E-02       0.001       32.256   0.100E-07
     TRS4 it   7 1.00000000   0.189E-03       0.001       32.256   0.100E-07
     TRS4 it   8 1.00000000   0.111E-06       0.001       32.256   0.100E-07
     TRS4 it   9 1.00000000   0.512E-13       0.001       32.256   0.100E-07
     Final TRS4 iteration    9 1.00000000   0.512E-13
     Chemical potential (mu):      -0.00135
 
 PAO| energy:  -7.7493583229464900      penalty:   1.4632181657964199E-005
 PAO|LS| adapt:  T T F
 PAO|LS| adapt: scan_steps:    0.0000000000000000       0.37007472390507623        0.0000000000000000     
 PAO|LS| adapt: energies:   -7.7492240604071068       -7.7493583229464900        0.0000000000000000     
 PAO| ======================= Iteration:        17 =============================

     Lanczos converged:  T threshold:   0.100E-02
     Est. extremal eigenvalues:    0.268E+01   0.183E+00
     Est. condition number :    0.147E+02

 Order=           3
     NS sqrt iter    1 1.00000000   0.682E+00       0.001       57.353
     NS sqrt iter    2 1.00000000   0.312E+00       0.001      105.375
     NS sqrt iter    3 1.00000000   0.672E-01       0.001      100.035
     NS sqrt iter    4 1.00000000   0.144E-02       0.001      106.283
     NS sqrt iter    5 1.00000000   0.309E-07       0.001       57.362
     Symmetrizing Results
     Final NS sqrt iter    5 1.00000000   0.348E-08

     Est. extremal eigenvalues     -0.91735     1.69019  converged:  T
     TRS4 it   1 1.00000000   0.886E+00       0.000       16.128   0.100E-07
     TRS4 it   2 1.00000000   0.621E+00       0.001       32.256   0.100E-07
     TRS4 it   3 1.00000000   0.421E+00       0.001       32.256   0.100E-07
     TRS4 it   4 1.00000000   0.214E+00       0.001       32.256   0.100E-07
     TRS4 it   5 1.00000000   0.694E-01       0.001       32.256   0.100E-07
     TRS4 it   6 1.00000000   0.883E-02       0.001       32.256   0.100E-07
     TRS4 it   7 1.00000000   0.177E-03       0.001       32.256   0.100E-07
     TRS4 it   8 1.00000000   0.988E-07       0.002       15.405   0.100E-07
     TRS4 it   9 1.00000000   0.395E-13       0.001       32.256   0.100E-07
     Final TRS4 iteration    9 1.00000000   0.395E-13
     Chemical potential (mu):      -0.00052
 
 PAO| energy:  -7.7475366356030158      penalty:   1.4635431771423334E-005
 PAO|LS| adapt:  T T T
 PAO|LS| adapt: scan_steps:    0.0000000000000000       0.37007472390507623       0.74014944781015246     
 PAO|LS| adapt: energies:   -7.7492240604071068       -7.7493583229464900       -7.7475366356030158     
 PAO|LS| adapt: suggested step_size:   0.21044045260864708     
 PAO|LS| adapt: predicted energy  -7.7495402935132223     
 PAO| ======================= Iteration:        18 =============================

     Lanczos converged:  T threshold:   0.100E-02
     Est. extremal eigenvalues:    0.269E+01   0.182E+00
     Est. condition number :    0.148E+02

 Order=           3
     NS sqrt iter    1 1.00000000   0.685E+00       0.001       60.179
     NS sqrt iter    2 1.00000000   0.314E+00       0.001      103.162
     NS sqrt iter    3 1.00000000   0.682E-01       0.001      104.706
     NS sqrt iter    4 1.00000000   0.151E-02       0.001      102.064
     NS sqrt iter    5 1.00000000   0.365E-07       0.001       59.013
     Symmetrizing Results
     Final NS sqrt iter    5 1.00000000   0.333E-08

     Est. extremal eigenvalues     -0.91746     1.69213  converged:  T
     TRS4 it   1 1.00000000   0.886E+00       0.000       16.128   0.100E-07
     TRS4 it   2 1.00000000   0.623E+00       0.001       32.256   0.100E-07
     TRS4 it   3 1.00000000   0.423E+00       0.001       32.256   0.100E-07
     TRS4 it   4 1.00000000   0.217E+00       0.001       32.256   0.100E-07
     TRS4 it   5 1.00000000   0.712E-01       0.001       32.256   0.100E-07
     TRS4 it   6 1.00000000   0.929E-02       0.001       32.256   0.100E-07
     TRS4 it   7 1.00000000   0.195E-03       0.001       32.256   0.100E-07
     TRS4 it   8 1.00000000   0.117E-06       0.001       32.256   0.100E-07
     TRS4 it   9 1.00000000   0.557E-13       0.001       32.256   0.100E-07
     Final TRS4 iteration    9 1.00000000   0.557E-13
     Chemical potential (mu):      -0.00170
 
 PAO| energy:  -7.7495396994366326      penalty:   1.4675024551210190E-005
 PAO|CG| trace_G_new    8.0797541893567278E-004
 PAO|CG| trace_G_prev    3.0040512365665352E-003
 PAO|CG| trace_G_mix    1.6976407107297957E-006
 PAO|CG| trace_D    3.8715169344865122E-003
 PAO|CG| trace_D_Gnew  -2.1869220716086951E-006
 PAO|CG| beta:   0.26839681308048330     
 PAO| norm of gradient:   2.8424908424402581E-002
 PAO| energy improvement:  -3.1563902952580492E-004
 PAO| step     18                   -7.749539699  0.178E-02  0.210E+00     0.060
 PAO|LS| adapt:  T F F
 PAO|LS| adapt: scan_steps:    0.0000000000000000        0.0000000000000000        0.0000000000000000     
 PAO|LS| adapt: energies:   -7.7495396994366326        0.0000000000000000        0.0000000000000000     
 PAO| ======================= Iteration:        19 =============================

     Lanczos converged:  T threshold:   0.100E-02
     Est. extremal eigenvalues:    0.269E+01   0.181E+00
     Est. condition number :    0.148E+02

 Order=           3
     NS sqrt iter    1 1.00000000   0.685E+00       0.001       59.796
     NS sqrt iter    2 1.00000000   0.314E+00       0.001      104.674
     NS sqrt iter    3 1.00000000   0.684E-01       0.001      105.308
     NS sqrt iter    4 1.00000000   0.152E-02       0.001      105.975
     NS sqrt iter    5 1.00000000   0.368E-07       0.001       53.845
     Symmetrizing Results
     Final NS sqrt iter    5 1.00000000   0.342E-08

     Est. extremal eigenvalues     -0.91746     1.69231  converged:  T
     TRS4 it   1 1.00000000   0.886E+00       0.000       16.128   0.100E-07
     TRS4 it   2 1.00000000   0.623E+00       0.001       32.256   0.100E-07
     TRS4 it   3 1.00000000   0.423E+00       0.002       16.606   0.100E-07
     TRS4 it   4 1.00000000   0.217E+00       0.001       32.256   0.100E-07
     TRS4 it   5 1.00000000   0.711E-01       0.001       32.256   0.100E-07
     TRS4 it   6 1.00000000   0.928E-02       0.001       32.256   0.100E-07
     TRS4 it   7 1.00000000   0.195E-03       0.001       32.256   0.100E-07
     TRS4 it   8 1.00000000   0.119E-06       0.001       32.256   0.100E-07
     TRS4 it   9 1.00000000   0.575E-13       0.001       32.256   0.100E-07
     Final TRS4 iteration    9 1.00000000   0.575E-13
     Chemical potential (mu):      -0.00193
 
 PAO| energy:  -7.7496700570184931      penalty:   1.4409556142497177E-005
 PAO|LS| adapt:  T T F
 PAO|LS| adapt: scan_steps:    0.0000000000000000       0.21044045260864708        0.0000000000000000     
 PAO|LS| adapt: energies:   -7.7495396994366326       -7.7496700570184931        0.0000000000000000     
 PAO| ======================= Iteration:        20 =============================

     Lanczos converged:  T threshold:   0.100E-02
     Est. extremal eigenvalues:    0.269E+01   0.181E+00
     Est. condition number :    0.148E+02

 Order=           3
     NS sqrt iter    1 1.00000000   0.685E+00       0.001       62.044
     NS sqrt iter    2 1.00000000   0.314E+00       0.001      101.673
     NS sqrt iter    3 1.00000000   0.686E-01       0.001      106.695
     NS sqrt iter    4 1.00000000   0.152E-02       0.001      106.322
     NS sqrt iter    5 1.00000000   0.373E-07       0.001       61.389
     Symmetrizing Results
     Final NS sqrt iter    5 1.00000000   0.350E-09

     Est. extremal eigenvalues     -0.91746     1.69248  converged:  T
     TRS4 it   1 1.00000000   0.886E+00       0.000       16.128   0.100E-07
     TRS4 it   2 1.00000000   0.622E+00       0.001       32.256   0.100E-07
     TRS4 it   3 1.00000000   0.423E+00       0.001       32.256   0.100E-07
     TRS4 it   4 1.00000000   0.217E+00       0.001       32.256   0.100E-07
     TRS4 it   5 1.00000000   0.710E-01       0.001       32.256   0.100E-07
     TRS4 it   6 1.00000000   0.927E-02       0.001       32.256   0.100E-07
     TRS4 it   7 1.00000000   0.196E-03       0.001       32.256   0.100E-07
     TRS4 it   8 1.00000000   0.120E-06       0.001       32.256   0.100E-07
     TRS4 it   9 1.00000000   0.594E-13       0.001       32.256   0.100E-07
     Final TRS4 iteration    9 1.00000000   0.594E-13
     Chemical potential (mu):      -0.00216
 
 PAO| energy:  -7.7497203420984375      penalty:   1.4156395896075093E-005
 PAO|LS| adapt:  T T F
 PAO|LS| adapt: scan_steps:    0.0000000000000000       0.42088090521729415        0.0000000000000000     
 PAO|LS| adapt: energies:   -7.7495396994366326       -7.7497203420984375        0.0000000000000000     
 PAO| ======================= Iteration:        21 =============================

     Lanczos converged:  T threshold:   0.100E-02
     Est. extremal eigenvalues:    0.269E+01   0.181E+00
     Est. condition number :    0.149E+02

 Order=           3
     NS sqrt iter    1 1.00000000   0.684E+00       0.001       61.770
     NS sqrt iter    2 1.00000000   0.315E+00       0.001      105.355
     NS sqrt iter    3 1.00000000   0.690E-01       0.001      105.348
     NS sqrt iter    4 1.00000000   0.154E-02       0.001      104.875
     NS sqrt iter    5 1.00000000   0.381E-07       0.001       62.964
     Symmetrizing Results
     Final NS sqrt iter    5 1.00000000   0.359E-09

     Est. extremal eigenvalues     -0.91745     1.69284  converged:  T
     TRS4 it   1 1.00000000   0.886E+00       0.000       16.128   0.100E-07
     TRS4 it   2 1.00000000   0.622E+00       0.001       32.256   0.100E-07
     TRS4 it   3 1.00000000   0.423E+00       0.001       32.256   0.100E-07
     TRS4 it   4 1.00000000   0.216E+00       0.001       32.256   0.100E-07
     TRS4 it   5 1.00000000   0.708E-01       0.001       32.256   0.100E-07
     TRS4 it   6 1.00000000   0.926E-02       0.001       32.256   0.100E-07
     TRS4 it   7 1.00000000   0.197E-03       0.001       32.256   0.100E-07
     TRS4 it   8 1.00000000   0.123E-06       0.001       32.256   0.100E-07
     TRS4 it   9 1.00000000   0.629E-13       0.001       32.256   0.100E-07
     Final TRS4 iteration    9 1.00000000   0.629E-13
     Chemical potential (mu):      -0.00264
 
 PAO| energy:  -7.7495778011940617      penalty:   1.3686585227389147E-005
 PAO|LS| Need extra step
 PAO|LS| adapt:  T T T
 PAO|LS| adapt: scan_steps:    0.0000000000000000       0.42088090521729415       0.84176181043458831     
 PAO|LS| adapt: energies:   -7.7495396994366326       -7.7497203420984375       -7.7495778011940617     
 PAO|LS| adapt: suggested step_size:   0.44569080249433096     
 PAO|LS| adapt: predicted energy  -7.7497209035997283     
 PAO| ======================= Iteration:        22 =============================

     Lanczos converged:  T threshold:   0.100E-02
     Est. extremal eigenvalues:    0.269E+01   0.181E+00
     Est. condition number :    0.148E+02

 Order=           3
     NS sqrt iter    1 1.00000000   0.685E+00       0.001       59.079
     NS sqrt iter    2 1.00000000   0.314E+00       0.001      102.951
     NS sqrt iter    3 1.00000000   0.686E-01       0.001      107.451
     NS sqrt iter    4 1.00000000   0.153E-02       0.001      106.557
     NS sqrt iter    5 1.00000000   0.373E-07       0.001       61.232
     Symmetrizing Results
     Final NS sqrt iter    5 1.00000000   0.350E-09

     Est. extremal eigenvalues     -0.91746     1.69250  converged:  T
     TRS4 it   1 1.00000000   0.886E+00       0.000       16.128   0.100E-07
     TRS4 it   2 1.00000000   0.622E+00       0.001       32.256   0.100E-07
     TRS4 it   3 1.00000000   0.423E+00       0.001       32.256   0.100E-07
     TRS4 it   4 1.00000000   0.217E+00       0.001       32.256   0.100E-07
     TRS4 it   5 1.00000000   0.710E-01       0.001       32.256   0.100E-07
     TRS4 it   6 1.00000000   0.927E-02       0.001       32.256   0.100E-07
     TRS4 it   7 1.00000000   0.196E-03       0.001       32.256   0.100E-07
     TRS4 it   8 1.00000000   0.120E-06       0.001       32.256   0.100E-07
     TRS4 it   9 1.00000000   0.595E-13       0.001       32.256   0.100E-07
     Final TRS4 iteration    9 1.00000000   0.595E-13
     Chemical potential (mu):      -0.00219
 
 PAO| energy:  -7.7497209601050354      penalty:   1.4127353938806153E-005
 PAO|CG| trace_G_new    2.2924891953853509E-004
 PAO|CG| trace_G_prev    8.0797541893567278E-004
 PAO|CG| trace_G_mix    4.0289342390889468E-006
 PAO|CG| trace_D    1.0880412266272943E-003
 PAO|CG| trace_D_Gnew  -2.2616998828677396E-006
 PAO|CG| beta:   0.27874608561250935     
 PAO| norm of gradient:   1.5140968249703686E-002
 PAO| energy improvement:  -1.8126066840284949E-004
 PAO| step     22                   -7.749720960  0.946E-03  0.446E+00     0.078
 PAO|LS| adapt:  T F F
 PAO|LS| adapt: scan_steps:    0.0000000000000000        0.0000000000000000        0.0000000000000000     
 PAO|LS| adapt: energies:   -7.7497209601050354        0.0000000000000000        0.0000000000000000     
 PAO| ======================= Iteration:        23 =============================

     Lanczos converged:  T threshold:   0.100E-02
     Est. extremal eigenvalues:    0.269E+01   0.181E+00
     Est. condition number :    0.148E+02

 Order=           3
     NS sqrt iter    1 1.00000000   0.684E+00       0.001       59.231
     NS sqrt iter    2 1.00000000   0.314E+00       0.001      101.290
     NS sqrt iter    3 1.00000000   0.686E-01       0.001      106.147
     NS sqrt iter    4 1.00000000   0.152E-02       0.001      105.334
     NS sqrt iter    5 1.00000000   0.371E-07       0.001       63.872
     Symmetrizing Results
     Final NS sqrt iter    5 1.00000000   0.350E-09

     Est. extremal eigenvalues     -0.91746     1.69244  converged:  T
     TRS4 it   1 1.00000000   0.886E+00       0.000       16.128   0.100E-07
     TRS4 it   2 1.00000000   0.623E+00       0.001       32.256   0.100E-07
     TRS4 it   3 1.00000000   0.423E+00       0.001       32.256   0.100E-07
     TRS4 it   4 1.00000000   0.217E+00       0.001       32.256   0.100E-07
     TRS4 it   5 1.00000000   0.712E-01       0.001       32.256   0.100E-07
     TRS4 it   6 1.00000000   0.933E-02       0.001       32.256   0.100E-07
     TRS4 it   7 1.00000000   0.198E-03       0.001       32.256   0.100E-07
     TRS4 it   8 1.00000000   0.124E-06       0.001       32.256   0.100E-07
     TRS4 it   9 1.00000000   0.621E-13       0.002       16.981   0.100E-07
     Final TRS4 iteration    9 1.00000000   0.621E-13
     Chemical potential (mu):      -0.00246
 
 PAO| energy:  -7.7497598850139982      penalty:   1.3482201549763308E-005
 PAO|LS| adapt:  T T F
 PAO|LS| adapt: scan_steps:    0.0000000000000000       0.44569080249433096        0.0000000000000000     
 PAO|LS| adapt: energies:   -7.7497209601050354       -7.7497598850139982        0.0000000000000000     
 PAO| ======================= Iteration:        24 =============================

     Lanczos converged:  T threshold:   0.100E-02
     Est. extremal eigenvalues:    0.269E+01   0.181E+00
     Est. condition number :    0.148E+02

 Order=           3
     NS sqrt iter    1 1.00000000   0.684E+00       0.001       60.775
     NS sqrt iter    2 1.00000000   0.314E+00       0.001      104.596
     NS sqrt iter    3 1.00000000   0.686E-01       0.001      105.831
     NS sqrt iter    4 1.00000000   0.152E-02       0.001      105.363
     NS sqrt iter    5 1.00000000   0.370E-07       0.001       62.481
     Symmetrizing Results
     Final NS sqrt iter    5 1.00000000   0.352E-09

     Est. extremal eigenvalues     -0.91745     1.69238  converged:  T
     TRS4 it   1 1.00000000   0.886E+00       0.000       16.128   0.100E-07
     TRS4 it   2 1.00000000   0.623E+00       0.001       32.256   0.100E-07
     TRS4 it   3 1.00000000   0.423E+00       0.001       32.256   0.100E-07
     TRS4 it   4 1.00000000   0.217E+00       0.001       32.256   0.100E-07
     TRS4 it   5 1.00000000   0.714E-01       0.001       32.256   0.100E-07
     TRS4 it   6 1.00000000   0.938E-02       0.001       32.256   0.100E-07
     TRS4 it   7 1.00000000   0.201E-03       0.001       32.256   0.100E-07
     TRS4 it   8 1.00000000   0.127E-06       0.001       32.256   0.100E-07
     TRS4 it   9 1.00000000   0.663E-13       0.001       32.256   0.100E-07
     Final TRS4 iteration    9 1.00000000   0.663E-13
     Chemical potential (mu):      -0.00273
 
 PAO| energy:  -7.7496711372958824      penalty:   1.2863251723240597E-005
 PAO|LS| adapt:  T T T
 PAO|LS| adapt: scan_steps:    0.0000000000000000       0.44569080249433096       0.89138160498866192     
 PAO|LS| adapt: energies:   -7.7497209601050354       -7.7497598850139982       -7.7496711372958824     
 PAO|LS| adapt: suggested step_size:   0.35872788686373663     
 PAO|LS| adapt: predicted energy  -7.7497623153629780     
 PAO| ======================= Iteration:        25 =============================

     Lanczos converged:  T threshold:   0.100E-02
     Est. extremal eigenvalues:    0.269E+01   0.181E+00
     Est. condition number :    0.148E+02

 Order=           3
     NS sqrt iter    1 1.00000000   0.684E+00       0.001       60.379
     NS sqrt iter    2 1.00000000   0.314E+00       0.001      107.766
     NS sqrt iter    3 1.00000000   0.686E-01       0.001       99.692
     NS sqrt iter    4 1.00000000   0.152E-02       0.001      105.566
     NS sqrt iter    5 1.00000000   0.372E-07       0.001       62.336
     Symmetrizing Results
     Final NS sqrt iter    5 1.00000000   0.350E-09

     Est. extremal eigenvalues     -0.91746     1.69245  converged:  T
     TRS4 it   1 1.00000000   0.886E+00       0.000       16.128   0.100E-07
     TRS4 it   2 1.00000000   0.623E+00       0.001       32.256   0.100E-07
     TRS4 it   3 1.00000000   0.423E+00       0.001       32.256   0.100E-07
     TRS4 it   4 1.00000000   0.217E+00       0.001       32.256   0.100E-07
     TRS4 it   5 1.00000000   0.711E-01       0.001       32.256   0.100E-07
     TRS4 it   6 1.00000000   0.931E-02       0.001       32.256   0.100E-07
     TRS4 it   7 1.00000000   0.198E-03       0.001       32.256   0.100E-07
     TRS4 it   8 1.00000000   0.123E-06       0.001       32.256   0.100E-07
     TRS4 it   9 1.00000000   0.623E-13       0.001       32.256   0.100E-07
     Final TRS4 iteration    9 1.00000000   0.623E-13
     Chemical potential (mu):      -0.00241
 
 PAO| energy:  -7.7497622866837004      penalty:   1.3606009212332475E-005
 PAO|CG| trace_G_new    7.9645325002221520E-005
 PAO|CG| trace_G_prev    2.2924891953853509E-004
 PAO|CG| trace_G_mix    2.8766346773414331E-007
 PAO|CG| trace_D    3.1504992850607907E-004
 PAO|CG| trace_D_Gnew  -3.0380129245949842E-007
 PAO|CG| beta:   0.34616373195664257     
 PAO| norm of gradient:   8.9244229506574551E-003
 PAO| energy improvement:  -4.1326578664957481E-005
 PAO| step     25                   -7.749762287  0.558E-03  0.359E+00     0.060
 PAO|LS| adapt:  T F F
 PAO|LS| adapt: scan_steps:    0.0000000000000000        0.0000000000000000        0.0000000000000000     
 PAO|LS| adapt: energies:   -7.7497622866837004        0.0000000000000000        0.0000000000000000     
 PAO| ======================= Iteration:        26 =============================

     Lanczos converged:  T threshold:   0.100E-02
     Est. extremal eigenvalues:    0.269E+01   0.182E+00
     Est. condition number :    0.148E+02

 Order=           3
     NS sqrt iter    1 1.00000000   0.684E+00       0.001       60.719
     NS sqrt iter    2 1.00000000   0.314E+00       0.001      100.400
     NS sqrt iter    3 1.00000000   0.685E-01       0.001      104.051
     NS sqrt iter    4 1.00000000   0.152E-02       0.001      107.772
     NS sqrt iter    5 1.00000000   0.366E-07       0.001       62.080
     Symmetrizing Results
     Final NS sqrt iter    5 1.00000000   0.347E-08

     Est. extremal eigenvalues     -0.91746     1.69191  converged:  T
     TRS4 it   1 1.00000000   0.886E+00       0.000       16.128   0.100E-07
     TRS4 it   2 1.00000000   0.622E+00       0.001       32.256   0.100E-07
     TRS4 it   3 1.00000000   0.423E+00       0.001       32.256   0.100E-07
     TRS4 it   4 1.00000000   0.217E+00       0.001       32.256   0.100E-07
     TRS4 it   5 1.00000000   0.711E-01       0.001       32.256   0.100E-07
     TRS4 it   6 1.00000000   0.931E-02       0.001       32.256   0.100E-07
     TRS4 it   7 1.00000000   0.197E-03       0.001       32.256   0.100E-07
     TRS4 it   8 1.00000000   0.122E-06       0.001       32.256   0.100E-07
     TRS4 it   9 1.00000000   0.607E-13       0.001       32.256   0.100E-07
     Final TRS4 iteration    9 1.00000000   0.607E-13
     Chemical potential (mu):      -0.00239
 
 PAO| energy:  -7.7497689304497746      penalty:   1.3038084958626163E-005
 PAO|LS| adapt:  T T F
 PAO|LS| adapt: scan_steps:    0.0000000000000000       0.35872788686373663        0.0000000000000000     
 PAO|LS| adapt: energies:   -7.7497622866837004       -7.7497689304497746        0.0000000000000000     
 PAO| ======================= Iteration:        27 =============================

     Lanczos converged:  T threshold:   0.100E-02
     Est. extremal eigenvalues:    0.269E+01   0.182E+00
     Est. condition number :    0.148E+02

 Order=           3
     NS sqrt iter    1 1.00000000   0.684E+00       0.001       58.160
     NS sqrt iter    2 1.00000000   0.314E+00       0.001      103.966
     NS sqrt iter    3 1.00000000   0.684E-01       0.001      104.572
     NS sqrt iter    4 1.00000000   0.151E-02       0.001      104.388
     NS sqrt iter    5 1.00000000   0.362E-07       0.001       57.968
     Symmetrizing Results
     Final NS sqrt iter    5 1.00000000   0.340E-08

     Est. extremal eigenvalues     -0.91746     1.69137  converged:  T
     TRS4 it   1 1.00000000   0.886E+00       0.000       16.128   0.100E-07
     TRS4 it   2 1.00000000   0.622E+00       0.001       32.256   0.100E-07
     TRS4 it   3 1.00000000   0.423E+00       0.001       32.256   0.100E-07
     TRS4 it   4 1.00000000   0.217E+00       0.001       32.256   0.100E-07
     TRS4 it   5 1.00000000   0.711E-01       0.001       32.256   0.100E-07
     TRS4 it   6 1.00000000   0.930E-02       0.001       32.256   0.100E-07
     TRS4 it   7 1.00000000   0.197E-03       0.001       32.256   0.100E-07
     TRS4 it   8 1.00000000   0.122E-06       0.001       32.256   0.100E-07
     TRS4 it   9 1.00000000   0.610E-13       0.001       32.256   0.100E-07
     Final TRS4 iteration    9 1.00000000   0.610E-13
     Chemical potential (mu):      -0.00237
 
 PAO| energy:  -7.7497315796424688      penalty:   1.2484927007814150E-005
 PAO|LS| adapt:  T T T
 PAO|LS| adapt: scan_steps:    0.0000000000000000       0.35872788686373663       0.71745577372747327     
 PAO|LS| adapt: energies:   -7.7497622866837004       -7.7497689304497746       -7.7497315796424688     
 PAO|LS| adapt: suggested step_size:   0.23353662841341757     
 PAO|LS| adapt: predicted energy  -7.7497716095369569     
 PAO| ======================= Iteration:        28 =============================

     Lanczos converged:  T threshold:   0.100E-02
     Est. extremal eigenvalues:    0.269E+01   0.181E+00
     Est. condition number :    0.148E+02

 Order=           3
     NS sqrt iter    1 1.00000000   0.684E+00       0.001       57.414
     NS sqrt iter    2 1.00000000   0.314E+00       0.001      102.275
     NS sqrt iter    3 1.00000000   0.685E-01       0.001      104.650
     NS sqrt iter    4 1.00000000   0.152E-02       0.001      105.458
     NS sqrt iter    5 1.00000000   0.369E-07       0.001       62.137
     Symmetrizing Results
     Final NS sqrt iter    5 1.00000000   0.350E-09

     Est. extremal eigenvalues     -0.91746     1.69210  converged:  T
     TRS4 it   1 1.00000000   0.886E+00       0.000       16.128   0.100E-07
     TRS4 it   2 1.00000000   0.622E+00       0.001       32.256   0.100E-07
     TRS4 it   3 1.00000000   0.423E+00       0.001       32.256   0.100E-07
     TRS4 it   4 1.00000000   0.217E+00       0.001       32.256   0.100E-07
     TRS4 it   5 1.00000000   0.711E-01       0.001       32.256   0.100E-07
     TRS4 it   6 1.00000000   0.931E-02       0.001       32.256   0.100E-07
     TRS4 it   7 1.00000000   0.198E-03       0.001       32.256   0.100E-07
     TRS4 it   8 1.00000000   0.123E-06       0.001       32.256   0.100E-07
     TRS4 it   9 1.00000000   0.617E-13       0.001       32.256   0.100E-07
     Final TRS4 iteration    9 1.00000000   0.617E-13
     Chemical potential (mu):      -0.00240
 
 PAO| energy:  -7.7497716053517731      penalty:   1.3234597519726498E-005
 PAO|CG| trace_G_new    1.8299263708522496E-005
 PAO|CG| trace_G_prev    7.9645325002221520E-005
 PAO|CG| trace_G_mix    6.3730556949311548E-008
 PAO|CG| trace_D    1.1760787661643846E-004
 PAO|CG| trace_D_Gnew  -3.3537609987712550E-008
 PAO|CG| beta:   0.22895924087276368     
 PAO| norm of gradient:   4.2777638677844870E-003
 PAO| energy improvement:  -9.3186680727441740E-006
 PAO| step     28                   -7.749771605  0.267E-03  0.234E+00     0.059
 PAO|LS| adapt:  T F F
 PAO|LS| adapt: scan_steps:    0.0000000000000000        0.0000000000000000        0.0000000000000000     
 PAO|LS| adapt: energies:   -7.7497716053517731        0.0000000000000000        0.0000000000000000     
 PAO| ======================= Iteration:        29 =============================

     Lanczos converged:  T threshold:   0.100E-02
     Est. extremal eigenvalues:    0.269E+01   0.181E+00
     Est. condition number :    0.148E+02

 Order=           3
     NS sqrt iter    1 1.00000000   0.684E+00       0.001       60.069
     NS sqrt iter    2 1.00000000   0.314E+00       0.001      102.556
     NS sqrt iter    3 1.00000000   0.685E-01       0.001      103.842
     NS sqrt iter    4 1.00000000   0.152E-02       0.001      103.697
     NS sqrt iter    5 1.00000000   0.367E-07       0.001       60.143
     Symmetrizing Results
     Final NS sqrt iter    5 1.00000000   0.345E-08

     Est. extremal eigenvalues     -0.91746     1.69198  converged:  T
     TRS4 it   1 1.00000000   0.886E+00       0.000       16.128   0.100E-07
     TRS4 it   2 1.00000000   0.622E+00       0.001       32.256   0.100E-07
     TRS4 it   3 1.00000000   0.423E+00       0.001       32.256   0.100E-07
     TRS4 it   4 1.00000000   0.217E+00       0.001       32.256   0.100E-07
     TRS4 it   5 1.00000000   0.711E-01       0.001       32.256   0.100E-07
     TRS4 it   6 1.00000000   0.930E-02       0.001       32.256   0.100E-07
     TRS4 it   7 1.00000000   0.197E-03       0.001       32.256   0.100E-07
     TRS4 it   8 1.00000000   0.122E-06       0.001       32.256   0.100E-07
     TRS4 it   9 1.00000000   0.611E-13       0.002       15.564   0.100E-07
     Final TRS4 iteration    9 1.00000000   0.611E-13
     Chemical potential (mu):      -0.00235
 
 PAO| energy:  -7.7497752266238349      penalty:   1.2900690444440137E-005
 PAO|LS| adapt:  T T F
 PAO|LS| adapt: scan_steps:    0.0000000000000000       0.23353662841341757        0.0000000000000000     
 PAO|LS| adapt: energies:   -7.7497716053517731       -7.7497752266238349        0.0000000000000000     
 PAO| ======================= Iteration:        30 =============================

     Lanczos converged:  T threshold:   0.100E-02
     Est. extremal eigenvalues:    0.269E+01   0.182E+00
     Est. condition number :    0.148E+02

 Order=           3
     NS sqrt iter    1 1.00000000   0.684E+00       0.001       61.072
     NS sqrt iter    2 1.00000000   0.314E+00       0.001      106.343
     NS sqrt iter    3 1.00000000   0.684E-01       0.001      104.586
     NS sqrt iter    4 1.00000000   0.152E-02       0.001      102.442
     NS sqrt iter    5 1.00000000   0.366E-07       0.001       60.333
     Symmetrizing Results
     Final NS sqrt iter    5 1.00000000   0.341E-08

     Est. extremal eigenvalues     -0.91746     1.69186  converged:  T
     TRS4 it   1 1.00000000   0.886E+00       0.000       16.128   0.100E-07
     TRS4 it   2 1.00000000   0.622E+00       0.001       32.256   0.100E-07
     TRS4 it   3 1.00000000   0.423E+00       0.001       32.256   0.100E-07
     TRS4 it   4 1.00000000   0.217E+00       0.001       32.256   0.100E-07
     TRS4 it   5 1.00000000   0.710E-01       0.001       32.256   0.100E-07
     TRS4 it   6 1.00000000   0.929E-02       0.001       32.256   0.100E-07
     TRS4 it   7 1.00000000   0.197E-03       0.001       32.256   0.100E-07
     TRS4 it   8 1.00000000   0.121E-06       0.001       32.256   0.100E-07
     TRS4 it   9 1.00000000   0.602E-13       0.001       32.256   0.100E-07
     Final TRS4 iteration    9 1.00000000   0.602E-13
     Chemical potential (mu):      -0.00231
 
 PAO| energy:  -7.7497775437501062      penalty:   1.2571341982696720E-005
 PAO|LS| adapt:  T T F
 PAO|LS| adapt: scan_steps:    0.0000000000000000       0.46707325682683515        0.0000000000000000     
 PAO|LS| adapt: energies:   -7.7497716053517731       -7.7497775437501062        0.0000000000000000     
 PAO| ======================= Iteration:        31 =============================

     Lanczos converged:  T threshold:   0.100E-02
     Est. extremal eigenvalues:    0.269E+01   0.182E+00
     Est. condition number :    0.148E+02

 Order=           3
     NS sqrt iter    1 1.00000000   0.684E+00       0.001       62.857
     NS sqrt iter    2 1.00000000   0.314E+00       0.001      106.825
     NS sqrt iter    3 1.00000000   0.683E-01       0.001       82.803
     NS sqrt iter    4 1.00000000   0.151E-02       0.001      103.623
     NS sqrt iter    5 1.00000000   0.364E-07       0.001       60.073
     Symmetrizing Results
     Final NS sqrt iter    5 1.00000000   0.334E-08

     Est. extremal eigenvalues     -0.91746     1.69161  converged:  T
     TRS4 it   1 1.00000000   0.886E+00       0.000       16.128   0.100E-07
     TRS4 it   2 1.00000000   0.622E+00       0.001       32.256   0.100E-07
     TRS4 it   3 1.00000000   0.423E+00       0.001       32.256   0.100E-07
     TRS4 it   4 1.00000000   0.217E+00       0.001       32.256   0.100E-07
     TRS4 it   5 1.00000000   0.709E-01       0.001       32.256   0.100E-07
     TRS4 it   6 1.00000000   0.926E-02       0.001       32.256   0.100E-07
     TRS4 it   7 1.00000000   0.196E-03       0.001       32.256   0.100E-07
     TRS4 it   8 1.00000000   0.120E-06       0.001       32.256   0.100E-07
     TRS4 it   9 1.00000000   0.596E-13       0.001       32.256   0.100E-07
     Final TRS4 iteration    9 1.00000000   0.596E-13
     Chemical potential (mu):      -0.00221
 
 PAO| energy:  -7.7497782603828353      penalty:   1.1926275645722467E-005
 PAO|LS| Need extra step
 PAO|LS| adapt:  T T F
 PAO|LS| adapt: scan_steps:    0.0000000000000000       0.93414651365367030        0.0000000000000000     
 PAO|LS| adapt: energies:   -7.7497716053517731       -7.7497782603828353        0.0000000000000000     
 PAO| ======================= Iteration:        32 =============================

     Lanczos converged:  T threshold:   0.100E-02
     Est. extremal eigenvalues:    0.269E+01   0.182E+00
     Est. condition number :    0.148E+02

 Order=           3
     NS sqrt iter    1 1.00000000   0.683E+00       0.002       27.676
[...]
     NS sqrt iter    5 1.00000000   0.295E-09       0.001       24.791
     Symmetrizing Results
     Final NS sqrt iter    5 1.00000000   0.545E-10

     Est. extremal eigenvalues     -0.91733     1.47284  converged:  T
     TRS4 it   1 1.00000000   0.838E+00       0.001       16.128   0.100E-07
     TRS4 it   2 1.00000000   0.599E+00       0.001       29.578   0.100E-07
     TRS4 it   3 1.00000000   0.429E+00       0.001       32.256   0.100E-07
     TRS4 it   4 1.00000000   0.259E+00       0.001       32.256   0.100E-07
     TRS4 it   5 1.00000000   0.120E+00       0.001       32.256   0.100E-07
     TRS4 it   6 1.00000000   0.318E-01       0.001       32.256   0.100E-07
     TRS4 it   7 1.00000000   0.302E-02       0.001       32.256   0.100E-07
     TRS4 it   8 1.00000000   0.330E-04       0.001       32.256   0.100E-07
     TRS4 it   9 1.00000000   0.432E-08       0.001       32.256   0.100E-07
     Final TRS4 iteration    9 1.00000000   0.432E-08
     Chemical potential (mu):      -0.08090
 
 PAO| energy:  -7.7499023930103794      penalty:   1.4531492416052971E-011
 PAO|CG| warming up with steepest descent
 PAO|CG| beta:    0.0000000000000000     
 PAO| norm of gradient:   7.1593380601688846E-006
 PAO| energy improvement:  -1.0631495683810499E-011
 PAO| step    871                   -7.749902393  0.447E-06  0.232E+00     0.112
 PAO| converged after          871  steps :-)
 PAO| Recalculating energy after mixing.

     Lanczos converged:  T threshold:   0.100E-02
     Est. extremal eigenvalues:    0.244E+01   0.219E+00
     Est. condition number :    0.111E+02

 Order=           3
     NS sqrt iter    1 1.00000000   0.617E+00       0.001       45.801
     NS sqrt iter    2 1.00000000   0.259E+00       0.001      107.391
     NS sqrt iter    3 1.00000000   0.409E-01       0.001      101.897
     NS sqrt iter    4 1.00000000   0.340E-03       0.001      109.568
     NS sqrt iter    5 1.00000000   0.295E-09       0.001       36.864
     Symmetrizing Results
     Final NS sqrt iter    5 1.00000000   0.545E-10

     Est. extremal eigenvalues     -0.91733     1.47284  converged:  T
     TRS4 it   1 1.00000000   0.838E+00       0.001       16.128   0.100E-07
     TRS4 it   2 1.00000000   0.599E+00       0.001       32.256   0.100E-07
     TRS4 it   3 1.00000000   0.429E+00       0.001       32.256   0.100E-07
     TRS4 it   4 1.00000000   0.259E+00       0.001       32.256   0.100E-07
     TRS4 it   5 1.00000000   0.120E+00       0.001       32.256   0.100E-07
     TRS4 it   6 1.00000000   0.318E-01       0.001       32.256   0.100E-07
     TRS4 it   7 1.00000000   0.302E-02       0.001       32.256   0.100E-07
     TRS4 it   8 1.00000000   0.330E-04       0.001       32.256   0.100E-07
     TRS4 it   9 1.00000000   0.432E-08       0.001       32.256   0.100E-07
     Final TRS4 iteration    9 1.00000000   0.432E-08
     Chemical potential (mu):      -0.08090
 
 PAO| energy:  -7.7499023930077175      penalty:   1.4667246925640786E-011
 PAO| Writing restart file.
     Est. extremal eigenvalues     -0.91733     1.47284  converged:  T
     TRS4 it   1 1.00000000   0.838E+00       0.001       16.128   0.100E-07
     TRS4 it   2 1.00000000   0.599E+00       0.001       32.256   0.100E-07
     TRS4 it   3 1.00000000   0.429E+00       0.001       32.256   0.100E-07
     TRS4 it   4 1.00000000   0.259E+00       0.001       32.256   0.100E-07
     TRS4 it   5 1.00000000   0.120E+00       0.001       32.256   0.100E-07
     TRS4 it   6 1.00000000   0.318E-01       0.001       32.256   0.100E-07
     TRS4 it   7 1.00000000   0.302E-02       0.001       32.256   0.100E-07
     TRS4 it   8 1.00000000   0.330E-04       0.001       32.256   0.100E-07
     TRS4 it   9 1.00000000   0.432E-08       0.001       32.256   0.100E-07
     Final TRS4 iteration    9 1.00000000   0.432E-08
     Chemical potential (mu):      -0.08090

 SCF     1       -34.446574825       -34.446574825    3.144255

*********************************************************
 Using MIXING_FRACTION=0.450 to mix KS matrix:  iscf=  2
 KS_nw=0.450*KS + 0.550*KS_old
*********************************************************
     Est. extremal eigenvalues     -0.91733     1.47284  converged:  T
     TRS4 it   1 1.00000000   0.838E+00       0.003        5.286   0.100E-07
     TRS4 it   2 1.00000000   0.599E+00       0.002       15.490   0.100E-07
     TRS4 it   3 1.00000000   0.429E+00       0.001       32.256   0.100E-07
     TRS4 it   4 1.00000000   0.259E+00       0.001       32.256   0.100E-07
     TRS4 it   5 1.00000000   0.120E+00       0.001       32.256   0.100E-07
     TRS4 it   6 1.00000000   0.318E-01       0.001       32.058   0.100E-07
     TRS4 it   7 1.00000000   0.302E-02       0.001       28.945   0.100E-07
     TRS4 it   8 1.00000000   0.330E-04       0.001       31.698   0.100E-07
     TRS4 it   9 1.00000000   0.432E-08       0.001       29.801   0.100E-07
     Final TRS4 iteration    9 1.00000000   0.432E-08
     Chemical potential (mu):      -0.08090

 SCF     2       -34.446574825        -0.000000000    3.794671


 SCF run converged in     2 steps.

 PAO| Storing density matrix for ASPC guess in slot:           1

 ENERGY| Total FORCE_EVAL ( QS ) energy [a.u.]:              -34.446574825331943

 -------------------------------------------------------------------------------
 -                                                                             -
 -                                DBCSR STATISTICS                             -
 -                                                                             -
 -------------------------------------------------------------------------------
 COUNTER                                    TOTAL       BLAS       SMM       ACC
 flops     5 x     5 x     4                30000       0.0%    100.0%      0.0%
 flops    13 x     5 x     4                31200       0.0%    100.0%      0.0%
 flops     5 x    13 x     4                31200       0.0%    100.0%      0.0%
 flops    13 x    13 x     4                60840       0.0%    100.0%      0.0%
 flops     4 x     4 x     5              6816000       0.0%    100.0%      0.0%
 flops     5 x     4 x     5              8310400       0.0%    100.0%      0.0%
 flops     4 x     4 x    13              8860800       0.0%    100.0%      0.0%
 flops    13 x     4 x     5             10803520       0.0%    100.0%      0.0%
 flops     5 x     4 x    13             10803520       0.0%    100.0%      0.0%
 flops     5 x     4 x     4             12771840       0.0%    100.0%      0.0%
 flops    13 x     4 x    13             14044576       0.0%    100.0%      0.0%
 flops    13 x     4 x     4             16647072       0.0%    100.0%      0.0%
 flops     4 x     4 x     4            863551104       0.0%    100.0%      0.0%
 flops inhomo. stacks                           0       0.0%      0.0%      0.0%
 flops total                       952.762072E+06       0.0%    100.0%      0.0%
 flops max/rank                    952.762072E+06       0.0%    100.0%      0.0%
 matmuls inhomo. stacks                         0       0.0%      0.0%      0.0%
 matmuls total                            7024041       0.0%    100.0%      0.0%
 number of processed stacks                 56081       0.0%    100.0%      0.0%
 average stack size                                     0.0     125.2       0.0
 marketing flops                     1.557210E+09
 -------------------------------------------------------------------------------
 # multiplications                          46943
 max memory usage/rank             506.843136E+06
 # max total images/rank                        1
 # max 3D layers                                1
 # MPI messages exchanged                       0
 -------------------------------------------------------------------------------

 -------------------------------------------------------------------------------
 -                                                                             -
 -                                DBM STATISTICS                               -
 -                                                                             -
 -------------------------------------------------------------------------------
    M  x    N  x    K                                          COUNT     PERCENT
 -------------------------------------------------------------------------------

 -------------------------------------------------------------------------------
 -                                                                             -
 -                                GRID STATISTICS                              -
 -                                                                             -
 -------------------------------------------------------------------------------
 LP    KERNEL             BACKEND                              COUNT     PERCENT
 2     collocate ortho    REF                                  56970      30.72%
 2     integrate ortho    REF                                  56970      30.72%
 3     collocate ortho    REF                                  29385      15.84%
 3     integrate ortho    REF                                  29385      15.84%
 4     collocate ortho    REF                                   6375       3.44%
 4     integrate ortho    REF                                   6375       3.44%
 0     collocate general  REF                                      6       0.00%
 -------------------------------------------------------------------------------

 MEMORY| Estimated peak process memory [MiB]                                 484

 -------------------------------------------------------------------------------
 -                                                                             -
 -                           R E F E R E N C E S                               -
 -                                                                             -
 -------------------------------------------------------------------------------
 
 CP2K version 2023.1 (Development Version), the CP2K developers group (2023).
 CP2K is freely available from https://www.cp2k.org/ .

 Kuehne,Thomas D.; Iannuzzi,Marcella; Del Ben,Mauro;
 Rybkin,Vladimir V.; Seewald,Patrick; Stein,Frederick; Laino,Teodoro;
 Khaliullin,Rustam Z.; Schuett,Ole; Schiffmann,Florian; Golze,Dorothea;
 Wilhelm,Jan; Chulkov,Sergey; Bani-Hashemian,Mohammad Hossein;
 Weber,Valery; Borstnik,Urban; Taillefumier,Mathieu;
 Jakobovits,Alice Shoshana; Lazzaro,Alfio; Pabst,Hans; Mueller,Tiziano;
 Schade,Robert; Guidon,Manuel; Andermatt,Samuel; Holmberg,Nico;
 Schenter,Gregory K.; Hehn,Anna; Bussy,Augustin; Belleflamme,Fabian;
 Tabacchi,Gloria; Gloess,Andreas; Lass,Michael; Bethune,Iain;
 Mundy,Christopher J.; Plessl,Christian; Watkins,Matt;
 VandeVondele,Joost; Krack,Matthias; Hutter,Juerg. 
 The Journal of Chemical Physics, 152 (19), (2020). 
 CP2K: An electronic structure and molecular dynamics software package -
 Quickstep: Efficient and accurate electronic structure calculations.
 https://doi.org/10.1063/5.0007045

 Schuett, O; VandeVondele, J. 
 Journal of Chemical Theory and Computation, 14, (2018). 
 Machine Learning Adaptive Basis Sets for Efficient Large Scale
 Density Functional Theory Simulation.
 https://doi.org/10.1021/acs.jctc.8b00378

 Schuett, Ole; Messmer, Peter; Hutter, Juerg; VandeVondele, Joost. 
 Electronic Structure Calculations on Graphics Processing Units, John
 Wiley & Sons, Ltd, 173-190 (2016). 
 GPU-Accelerated Sparse Matrix-Matrix Multiplication for
 Linear Scaling Density Functional Theory.
 https://doi.org/10.1002/9781118670712.ch8

 Heinecke, A; Henry, G; Hutchinson, M; Pabst, H. 
 Proceedings of Intl. Supercomputing Conference, 981-991 (2016). 
 LIBXSMM: Accelerating Small Matrix Multiplications
 by Runtime Code Generation.
 https://doi.org/10.1109/SC.2016.83

 Borstnik, U; VandeVondele, J; Weber, V; Hutter, J. 
 PARALLEL COMPUTING, 40 (5-6), 47-58 (2014). 
 Sparse matrix multiplication: The distributed block-compressed sparse
 row library.
 https://doi.org/10.1016/j.parco.2014.03.012

 Hutter, J; Iannuzzi, M; Schiffmann, F; VandeVondele, J. 
 WIREs Comput Mol Sci., 4 (1), 15-25 (2014). 
 CP2K: atomistic simulations of condensed matter systems.
 https://doi.org/10.1002/wcms.1159

 VandeVondele, J; Borstnik, U; Hutter, J. 
 JOURNAL OF CHEMICAL THEORY AND COMPUTATION, 8 (10), 3565-3573 (2012). 
 Linear Scaling Self-Consistent Field Calculations with Millions of Atoms
 in the Condensed Phase.
 https://doi.org/10.1021/ct200897x

 VandeVondele, J; Hutter, J. 
 JOURNAL OF CHEMICAL PHYSICS, 127 (11), 114105 (2007). 
 Gaussian basis sets for accurate calculations on molecular systems in
 gas and condensed phases.
 https://doi.org/10.1063/1.2770708

 Krack, M. 
 THEORETICAL CHEMISTRY ACCOUNTS, 114 (1-3), 145-152 (2005). 
 Pseudopotentials for H to Kr optimized for gradient-corrected
 exchange-correlation functionals.
 https://doi.org/10.1007/s00214-005-0655-y

 VandeVondele, J; Krack, M; Mohamed, F; Parrinello, M; Chassaing, T;
 Hutter, J. COMPUTER PHYSICS COMMUNICATIONS, 167 (2), 103-128 (2005). 
 QUICKSTEP: Fast and accurate density functional calculations using a
 mixed Gaussian and plane waves approach.
 https://doi.org/10.1016/j.cpc.2004.12.014

 Frigo, M; Johnson, SG. 
 PROCEEDINGS OF THE IEEE, 93 (2), 216-231 (2005). 
 The design and implementation of FFTW3.
 https://doi.org/10.1109/JPROC.2004.840301

 Niklasson, AMN; Tymczak, CJ; Challacombe, M. 
 JOURNAL OF CHEMICAL PHYSICS, 118 (19), 8611-8620 (2003). 
 Trace resetting density matrix purification in O(N)
 self-consistent-field theory.
 https://doi.org/10.1063/1.1559913

 Hartwigsen, C; Goedecker, S; Hutter, J. 
 PHYSICAL REVIEW B, 58 (7), 3641-3662 (1998). 
 Relativistic separable dual-space Gaussian pseudopotentials from H to Rn.
 https://doi.org/10.1103/PhysRevB.58.3641

 Lippert, G; Hutter, J; Parrinello, M. 
 MOLECULAR PHYSICS, 92 (3), 477-487 (1997). 
 A hybrid Gaussian and plane wave density functional scheme.
 https://doi.org/10.1080/002689797170220

 Perdew, JP; Burke, K; Ernzerhof, M. 
 PHYSICAL REVIEW LETTERS, 77 (18), 3865-3868 (1996). 
 Generalized gradient approximation made simple.
 https://doi.org/10.1103/PhysRevLett.77.3865

 Goedecker, S; Teter, M; Hutter, J. 
 PHYSICAL REVIEW B, 54 (3), 1703-1710 (1996). 
 Separable dual-space Gaussian pseudopotentials.
 https://doi.org/10.1103/PhysRevB.54.1703


 -------------------------------------------------------------------------------
 -                                                                             -
 -                                T I M I N G                                  -
 -                                                                             -
 -------------------------------------------------------------------------------
 SUBROUTINE                       CALLS  ASD         SELF TIME        TOTAL TIME
                                MAXIMUM       AVERAGE  MAXIMUM  AVERAGE  MAXIMUM
 CP2K                                 1  1.0    0.021    0.021   64.806   64.806
 qs_energies                          1  2.0    0.000    0.000   64.094   64.094
 ls_scf                               1  3.0    0.000    0.000   63.890   63.890
 ls_scf_main                          7  4.0    0.002    0.002   42.539   42.539
 ls_scf_dm_to_ks                     14  5.0    0.001    0.001   42.338   42.338
 qs_ks_update_qs_env                 15  6.0    0.000    0.000   34.319   34.319
 rebuild_ks_matrix                   15  7.0    0.000    0.000   34.318   34.318
 qs_ks_build_kohn_sham_matrix        15  8.0    0.005    0.005   34.318   34.318
 qs_vxc_create                       15  9.0    0.001    0.001   21.030   21.030
 xc_vxc_pw_create                    15 10.0    0.436    0.436   21.030   21.030
 pw_transfer                        286 11.1    0.040    0.040   17.481   17.481
 pao_update                           7  4.0    0.018    0.018   17.385   17.385
 fft_wrap_pw1pw2                    256 12.3    0.006    0.006   17.070   17.070
 fft_wrap_pw1pw2_200                166 13.7    1.804    1.804   16.443   16.443
 pao_calc_energy                    877  5.0    0.007    0.007   15.746   15.746
 dbcsr_multiply_generic           46943  8.4    0.782    0.782   12.462   12.462
 xc_pw_derive                        90 12.0    0.002    0.002   12.115   12.115
 qs_rho_update_rho_low               15  6.0    0.000    0.000   11.889   11.889
 calculate_rho_elec                  15  7.0    0.069    0.069   11.889   11.889
 xc_rho_set_and_dset_create          15 11.0    0.496    0.496   11.670   11.670
 sum_up_and_integrate                15  9.0    0.307    0.307   10.625   10.625
 integrate_v_rspace                  15 10.0    0.002    0.002   10.318   10.318
 xc_pw_divergence                    15 11.0    0.001    0.001    8.605    8.605
 grid_integrate_task_list            15 11.0    8.243    8.243    8.243    8.243
 pao_dm_trs4                        877  6.0    0.005    0.005    8.108    8.108
 grid_collocate_task_list            15  8.0    7.919    7.919    7.919    7.919
 density_matrix_trs4                891  7.0    0.251    0.251    7.814    7.814
 fft3d_s                            257 14.2    7.788    7.788    7.813    7.813
 ls_scf_init_matrix_S               884  7.0    0.006    0.006    7.588    7.588
 pao_rebuild_S                      877  6.0    0.003    0.003    7.523    7.523
 matrix_sqrt_Newton_Schulz          884  8.0    0.172    0.172    6.852    6.852
 xc_functional_eval                  15 12.0    0.000    0.000    5.059    5.059
 pbe_lda_eval                        15 13.0    5.059    5.059    5.059    5.059
 multiply_cannon                  46943  9.4    1.930    1.930    4.670    4.670
 make_m2s                         93886  9.4    0.298    0.298    4.668    4.668
 make_images                      93886 10.4    1.149    1.149    4.133    4.133
 density_rs2pw                       15  8.0    0.002    0.002    3.901    3.901
 pao_guess_initial_P                  1  4.0    0.000    0.000    3.881    3.881
 pao_read_preopt_dm                   1  5.0    0.000    0.000    3.881    3.881
 pw_gather_s                        121 13.8    3.749    3.749    3.749    3.749
 pw_scatter_s                       135 14.7    3.633    3.633    3.633    3.633
 arnoldi_extremal                  1775  8.5    0.006    0.006    2.541    2.541
 arnoldi_normal_ev                 1775  9.5    0.020    0.020    2.535    2.535
 pw_derive                           90 13.0    2.383    2.383    2.383    2.383
 potential_pw2rs                     15 11.0    0.006    0.006    2.073    2.073
 build_subspace                    1775 10.5    0.104    0.104    1.993    1.993
 dbcsr_matrix_vector_mult         42552 11.5    0.212    0.212    1.846    1.846
 pao_calc_AB                       1152  5.8    0.002    0.002    1.630    1.630
 pao_calc_AB_equi                  1152  6.8    0.050    0.050    1.628    1.628
 pw_copy                            180 11.8    1.499    1.499    1.499    1.499
 pao_calc_grad_lnv_wrt_AB           274  7.0    0.012    0.012    1.466    1.466
 dbcsr_finalize                  112304  9.6    0.278    0.278    1.381    1.381
 dbcsr_create_new                360487 10.7    0.816    0.816    1.308    1.308
 -------------------------------------------------------------------------------

 The number of warnings for this run is : 0
 
 -------------------------------------------------------------------------------
  **** **** ******  **  PROGRAM ENDED AT                 2023-02-01 10:49:00.452
 ***** ** ***  *** **   PROGRAM RAN ON                                    moritz
 **    ****   ******    PROGRAM RAN BY                                       ole
 ***** **    ** ** **   PROGRAM PROCESS ID                                148755
  **** **  *******  **  PROGRAM STOPPED IN /home/ole/git/pao_ml_equivar/2H2O_MD/
                                           frame_1050
