       6
 i =       50, time =       10.000, E =       -34.4465819001
  O         2.8405543494        4.3325999496        3.4178790075
  H         1.9824411947        4.4750224447        3.8604100613
  H         2.5405030737        3.7121570714        2.6913062586
  O         5.9247749579        4.3228192496        4.7582693146
  H         6.2198374798        3.5252064643        5.2147481175
  H         4.9841131131        4.2206394377        4.6637040911