 DBCSR| CPU Multiplication driver                                           BLAS
 DBCSR| Multrec recursion limit                                              512
 DBCSR| Multiplication stack size                                           1000
 DBCSR| Maximum elements for images                                    UNLIMITED
 DBCSR| Multiplicative factor virtual images                                   1
 DBCSR| Use multiplication densification                                       T
 DBCSR| Multiplication size stacks                                             3


  **** **** ******  **  PROGRAM STARTED AT               2019-03-28 17:32:21.691
 ***** ** ***  *** **   PROGRAM STARTED ON        oleschuett.zrh.corp.google.com
 **    ****   ******    PROGRAM STARTED BY                            oleschuett
 ***** **    ** ** **   PROGRAM PROCESS ID                                 30944
  **** **  *******  **  PROGRAM STARTED IN /usr/local/google/home/oleschuett/git
                                           /pao_ml_equivar/2H2O_rotations/phi_17

 CP2K| version string:                    CP2K version 7.0 (Development Version)
 CP2K| source code revision number:                                git:d9814d431
 CP2K| cp2kflags: libint fftw3 libxc libderiv_max_am1=5 libint_max_am=6         
 CP2K| is freely available from                            https://www.cp2k.org/
 CP2K| Program compiled at                          Mon Mar 25 16:50:07 CET 2019
 CP2K| Program compiled on                        oleschuett.zrh.corp.google.com
 CP2K| Program compiled for                                                local
 CP2K| Data directory path       /usr/local/google/home/oleschuett/git/cp2k/data
 CP2K| Input file name                                            2H2O_pao44.inp

 GLOBAL| Force Environment number                                              1
 GLOBAL| Basis set file name                                        BASIS_MOLOPT
 GLOBAL| Potential file name                                      GTH_POTENTIALS
 GLOBAL| MM Potential file name                                     MM_POTENTIAL
 GLOBAL| Coordinate file name                                         coords.xyz
 GLOBAL| Method name                                                        CP2K
 GLOBAL| Project name                                                 2H2O_pao44
 GLOBAL| Preferred FFT library                                             FFTW3
 GLOBAL| Preferred diagonalization lib.                                       SL
 GLOBAL| Run type                                                         ENERGY
 GLOBAL| All-to-all communication in single precision                          F
 GLOBAL| FFTs using library dependent lengths                                  F
 GLOBAL| Global print level                                                  LOW
 GLOBAL| MPI I/O enabled                                                       T
 GLOBAL| Total number of message passing processes                             1
 GLOBAL| Number of threads for this process                                    1
 GLOBAL| This output is from process                                           0
 GLOBAL| CPU model name :  Intel(R) Xeon(R) CPU E5-1650 v4 @ 3.60GHz

 MEMORY| system memory details [Kb]
 MEMORY|                        rank 0           min           max       average
 MEMORY| MemTotal             65953612      65953612      65953612      65953612
 MEMORY| MemFree               4395956       4395956       4395956       4395956
 MEMORY| Buffers               2548000       2548000       2548000       2548000
 MEMORY| Cached               25390348      25390348      25390348      25390348
 MEMORY| Slab                  3623792       3623792       3623792       3623792
 MEMORY| SReclaimable          2422904       2422904       2422904       2422904
 MEMORY| MemLikelyFree        34757208      34757208      34757208      34757208


 GENERATE|  Preliminary Number of Bonds generated:                             0
 GENERATE|  Achieved consistency in connectivity generation.

 *******************************************************************************
 *******************************************************************************
 **                                                                           **
 **     #####                         ##              ##                      **
 **    ##   ##            ##          ##              ##                      **
 **   ##     ##                       ##            ######                    **
 **   ##     ##  ##   ##  ##   #####  ##  ##   ####   ##    #####    #####    **
 **   ##     ##  ##   ##  ##  ##      ## ##   ##      ##   ##   ##  ##   ##   **
 **   ##  ## ##  ##   ##  ##  ##      ####     ###    ##   ######   ######    **
 **    ##  ###   ##   ##  ##  ##      ## ##      ##   ##   ##       ##        **
 **     #######   #####   ##   #####  ##  ##  ####    ##    #####   ##        **
 **           ##                                                    ##        **
 **                                                                           **
 **                                                ... make the atoms dance   **
 **                                                                           **
 **            Copyright (C) by CP2K developers group (2000 - 2018)           **
 **                                                                           **
 *******************************************************************************


 TOTAL NUMBERS AND MAXIMUM NUMBERS

  Total number of            - Atomic kinds:                                   2
                             - Atoms:                                          6
                             - Shell sets:                                     6
                             - Shells:                                        22
                             - Primitive Cartesian functions:                 42
                             - Cartesian basis functions:                     48
                             - Spherical basis functions:                     46

  Maximum angular momentum of- Orbital basis functions:                        2
                             - Local part of the GTH pseudopotential:          2
                             - Non-local part of the GTH pseudopotential:      0

 ------------------------------ Linear scaling SCF -----------------------------
 eps_scf:                                                              0.100E-07
 eps_filter:                                                           0.100E-07
 mixing_fraction:                                                      0.450E+00
 max_scf:                                                                     25
 fixed chemical potential (mu)                                                 F
 has unit metric:                                                              F
 Computing inv(S):                                                             T
 Computing sqrt(S):                                                            T
 Computing s preconditioner                                                    F
 sign sqrt order:                                                              3
 Extrapolation order:                                                          1
 Use single precision matrices                                                 F
 S preconditioner type                                                      NONE
 Polarized Atomic Orbitals (PAO)                                               T
 Purification method                                   Trace resetting 4th order
 Cluster type                                                             ATOMIC
 Computing Chebyshev                                                       FALSE
 Using PAO                                                                     T
 -------------------------------------------------------------------------------

 
 PAO|                                  EPS_PAO                           0.1E-04
 PAO|                                  MIXING                            0.5E+00
 PAO|                                  MAX_PAO                              1000
 PAO|                                  MAX_CYCLES                           1000
 PAO|                                  PARAMETERIZATION                   DIRECT
 PAO|                                  PRECONDITION                            F
 PAO|                                  REGULARIZATION                    0.0E+00
 PAO|                                  EPS_PGF                           0.1E-09
 PAO|                                  PENALTY_DISTANCE                  0.1E+00
 PAO|                                  PENALTY_STRENGTH                  0.5E-02
 PAO|                                  LINPOT_PRECONDITION_DELTA         0.0E+00
 PAO|                                  LINPOT_INITGUESS_DELT             0.0E+00
 PAO|                                  LINPOT_REGULARIZATION_DELTA       0.0E+00
 PAO|                                  LINPOT_REGULARIZATION_STRENGTH    0.0E+00
 PAO|                                  OPTIMIZER                              CG
 PAO|                                  CG_INIT_STEPS                           2
 PAO|                                  CG_RESET_LIMIT                    0.1E+00
 PAO|                                  CHECK_UNITARY_TOL                -0.1E+01
 PAO|                                  CHECK_GRADIENT_TOL               -0.1E+01
 PAO|                                  NUM_GRADIENT_ORDER                      2
 PAO|                                  NUM_GRADIENT_EPS                  0.1E-07
 PAO|                                  PRINT%RESTART%WRITE_CYCLES            100
 PAO|                                  RESTART_FILE 
 PAO|                                  PREOPT_DM_FILE 2H2O_ref_LS_DM_SPIN_1_RESTART.dm
 PAO|                                  MACHINE_LEARNING%METHOD        GAUSSIAN_P
 PAO|                                  MACHINE_LEARNING%PRIOR               ZERO
 PAO|                                  MACHINE_LEARNING%DESCRIPTOR     POTENTIAL
 PAO|                                  MACHINE_LEARNING%TOLERANCE        0.1E-01
 PAO|                                  MACHINE_LEARNING%GP_NOISE_VAR     0.1E+00
 PAO|                                  MACHINE_LEARNING%GP_SCALE         0.5E-01
 

 Calculating atomic Fock matrix for atomic kind: O

 Electronic structure
    Total number of core electrons                                          2.00
    Total number of valence electrons                                       6.00
    Total number of electrons                                               8.00
    Multiplicity                                                   not specified
    S   [  2.00] 2.00
    P      4.00


 *******************************************************************************
                  Iteration          Convergence                     Energy [au]
 *******************************************************************************
                          1        0.708315                     -15.576645311500
                          2        0.608879                     -15.587933561584
                          3        0.102828E-01                 -15.656849565404
                          4        0.113889E-02                 -15.656866888140
                          5        0.434197E-03                 -15.656867072159
                          6        0.263771E-03                 -15.656867091904
                          7        0.478536E-06                 -15.656867103452

 Energy components [Hartree]           Total Energy ::          -15.656867103452
                                        Band Energy ::           -3.000198112285
                                     Kinetic Energy ::           11.759971203220
                                   Potential Energy ::          -27.416838306672
                                      Virial (-V/T) ::            2.331369510426
                                        Core Energy ::          -26.140716385623
                                          XC Energy ::           -3.154051012914
                                     Coulomb Energy ::           13.637900295084
                       Total Pseudopotential Energy ::          -37.935781716540
                       Local Pseudopotential Energy ::          -39.218907440693
                    Nonlocal Pseudopotential Energy ::            1.283125724153
                                        Confinement ::            0.350941276976

 Orbital energies  State     L     Occupation   Energy[a.u.]          Energy[eV]

                       1     0          2.000      -0.864471          -23.523463

                       1     1          4.000      -0.317814           -8.648154


 Total Electron Density at R=0:                                         0.000068

 Calculating atomic Fock matrix for atomic kind: H

 Electronic structure
    Total number of core electrons                                          0.00
    Total number of valence electrons                                       1.00
    Total number of electrons                                               1.00
    Multiplicity                                                   not specified
    S      1.00


 *******************************************************************************
                  Iteration          Convergence                     Energy [au]
 *******************************************************************************
                          1        0.437545E-02                  -0.424159432110
                          2        0.531356E-03                  -0.424178438213
                          3        0.259176E-06                  -0.424178722480

 Energy components [Hartree]           Total Energy ::           -0.424178722480
                                        Band Energy ::           -0.199015229016
                                     Kinetic Energy ::            0.464007633961
                                   Potential Energy ::           -0.888186356441
                                      Virial (-V/T) ::            1.914163240935
                                        Core Energy ::           -0.479160803564
                                          XC Energy ::           -0.244352904054
                                     Coulomb Energy ::            0.299334985138
                       Total Pseudopotential Energy ::           -0.962295316385
                       Local Pseudopotential Energy ::           -0.962295316385
                    Nonlocal Pseudopotential Energy ::            0.000000000000
                                        Confinement ::            0.191268788606

 Orbital energies  State     L     Occupation   Energy[a.u.]          Energy[eV]

                       1     0          1.000      -0.199015           -5.415480


 Total Electron Density at R=0:                                         0.242907
 PAO| Made initial guess for matrix_X with norm:   4.8989794855663558     

     Lanczos converged:  T threshold:   0.100E-02
     Est. extremal eigenvalues:    0.336E+01   0.114E+00
     Est. condition number :    0.294E+02
     NS sqrt iter    1 1.00000000   0.820E+00       0.002       42.040
     NS sqrt iter    2 1.00000000   0.440E+00       0.002       66.866
     NS sqrt iter    3 1.00000000   0.170E+00       0.002       67.533
     NS sqrt iter    4 1.00000000   0.206E-01       0.002       68.495
     NS sqrt iter    5 1.00000000   0.533E-04       0.002       50.403
     Final NS sqrt iter    5 1.00000000   0.423E-08

 PAO| Read restart DM 2H2O_ref_LS_DM_SPIN_1_RESTART.dm with checksum:    73.461307867322020     
 PAO| Quickstep energy from restart density:  -34.450487882484900     
 PAO| ======================= Iteration:         1 =============================

     Lanczos converged:  T threshold:   0.100E-02
     Est. extremal eigenvalues:    0.336E+01   0.114E+00
     Est. condition number :    0.294E+02
     NS sqrt iter    1 1.00000000   0.820E+00       0.002       42.753
     NS sqrt iter    2 1.00000000   0.440E+00       0.002       67.455
     NS sqrt iter    3 1.00000000   0.170E+00       0.002       67.762
     NS sqrt iter    4 1.00000000   0.206E-01       0.002       68.308
     NS sqrt iter    5 1.00000000   0.533E-04       0.002       57.869
     Final NS sqrt iter    5 1.00000000   0.423E-08

     Est. extremal eigenvalues     -0.91978     1.88523  converged:  T
     TRS4 it   1 1.00000000   0.882E+00       0.001       16.128   0.100E-07
     TRS4 it   2 1.00000000   0.691E+00       0.001       32.256   0.100E-07
     TRS4 it   3 1.00000000   0.499E+00       0.001       32.256   0.100E-07
     TRS4 it   4 1.00000000   0.312E+00       0.001       32.256   0.100E-07
     TRS4 it   5 1.00000000   0.155E+00       0.001       32.256   0.100E-07
     TRS4 it   6 1.00000000   0.485E-01       0.001       32.256   0.100E-07
     TRS4 it   7 1.00000000   0.667E-02       0.001       32.256   0.100E-07
     TRS4 it   8 1.00000000   0.177E-03       0.001       32.256   0.100E-07
     TRS4 it   9 1.00000000   0.139E-06       0.001       32.256   0.100E-07
     TRS4 it  10 1.00000000   0.879E-13       0.001       32.256   0.100E-07
     Final TRS4 iteration   10 1.00000000   0.879E-13
     Chemical potential (mu):      -0.06518
 
 PAO| energy:  -7.6216966309178940      penalty:   2.5884498452564452E-033
 PAO|CG| warming up with steepest descent
 PAO|CG| beta:    0.0000000000000000     
 PAO| norm of gradient:  0.78337041890942705     
 PAO|LS| adapt:  T F F
 PAO|LS| adapt: scan_steps:    0.0000000000000000        0.0000000000000000        0.0000000000000000     
 PAO|LS| adapt: energies:   -7.6216966309178940        0.0000000000000000        0.0000000000000000     
 PAO| ======================= Iteration:         2 =============================

     Lanczos converged:  T threshold:   0.100E-02
     Est. extremal eigenvalues:    0.327E+01   0.127E+00
     Est. condition number :    0.257E+02
     NS sqrt iter    1 1.00000000   0.804E+00       0.001       43.490
     NS sqrt iter    2 1.00000000   0.425E+00       0.002       67.093
     NS sqrt iter    3 1.00000000   0.153E+00       0.002       68.126
     NS sqrt iter    4 1.00000000   0.142E-01       0.002       68.676
     NS sqrt iter    5 1.00000000   0.169E-04       0.002       54.770
     Final NS sqrt iter    5 1.00000000   0.431E-09

     Est. extremal eigenvalues     -0.92345     1.83049  converged:  T
     TRS4 it   1 1.00000000   0.879E+00       0.001       16.128   0.100E-07
     TRS4 it   2 1.00000000   0.673E+00       0.001       32.256   0.100E-07
     TRS4 it   3 1.00000000   0.483E+00       0.001       32.256   0.100E-07
     TRS4 it   4 1.00000000   0.292E+00       0.001       32.256   0.100E-07
     TRS4 it   5 1.00000000   0.135E+00       0.001       32.256   0.100E-07
     TRS4 it   6 1.00000000   0.372E-01       0.001       32.256   0.100E-07
     TRS4 it   7 1.00000000   0.399E-02       0.001       32.256   0.100E-07
     TRS4 it   8 1.00000000   0.638E-04       0.001       32.256   0.100E-07
     TRS4 it   9 1.00000000   0.181E-07       0.001       32.256   0.100E-07
     Final TRS4 iteration    9 1.00000000   0.181E-07
     Chemical potential (mu):      -0.05314
 
 PAO| energy:  -7.6771863168396379      penalty:   2.2476055192186574E-008
 PAO|LS| adapt:  T T F
 PAO|LS| adapt: scan_steps:    0.0000000000000000       0.10000000000000001        0.0000000000000000     
 PAO|LS| adapt: energies:   -7.6216966309178940       -7.6771863168396379        0.0000000000000000     
 PAO| ======================= Iteration:         3 =============================

     Lanczos converged:  T threshold:   0.100E-02
     Est. extremal eigenvalues:    0.318E+01   0.139E+00
     Est. condition number :    0.229E+02
     NS sqrt iter    1 1.00000000   0.787E+00       0.002       42.589
     NS sqrt iter    2 1.00000000   0.408E+00       0.002       67.352
     NS sqrt iter    3 1.00000000   0.136E+00       0.002       67.866
     NS sqrt iter    4 1.00000000   0.978E-02       0.002       68.399
     NS sqrt iter    5 1.00000000   0.558E-05       0.002       54.237
     Final NS sqrt iter    5 1.00000000   0.477E-10

     Est. extremal eigenvalues     -0.92687     1.78624  converged:  T
     TRS4 it   1 1.00000000   0.876E+00       0.001       16.128   0.100E-07
     TRS4 it   2 1.00000000   0.656E+00       0.001       32.256   0.100E-07
     TRS4 it   3 1.00000000   0.467E+00       0.001       32.256   0.100E-07
     TRS4 it   4 1.00000000   0.272E+00       0.001       32.256   0.100E-07
     TRS4 it   5 1.00000000   0.117E+00       0.001       32.256   0.100E-07
     TRS4 it   6 1.00000000   0.277E-01       0.001       32.256   0.100E-07
     TRS4 it   7 1.00000000   0.220E-02       0.001       32.256   0.100E-07
     TRS4 it   8 1.00000000   0.195E-04       0.001       32.256   0.100E-07
     TRS4 it   9 1.00000000   0.170E-08       0.001       32.256   0.100E-07
     Final TRS4 iteration    9 1.00000000   0.170E-08
     Chemical potential (mu):      -0.04013
 
 PAO| energy:  -7.7202614512222167      penalty:   3.5961675062539010E-007
 PAO|LS| adapt:  T T F
 PAO|LS| adapt: scan_steps:    0.0000000000000000       0.20000000000000001        0.0000000000000000     
 PAO|LS| adapt: energies:   -7.6216966309178940       -7.7202614512222167        0.0000000000000000     
 PAO| ======================= Iteration:         4 =============================

     Lanczos converged:  T threshold:   0.100E-02
     Est. extremal eigenvalues:    0.298E+01   0.157E+00
     Est. condition number :    0.190E+02
     NS sqrt iter    1 1.00000000   0.750E+00       0.002       42.950
     NS sqrt iter    2 1.00000000   0.374E+00       0.002       68.032
     NS sqrt iter    3 1.00000000   0.106E+00       0.002       67.694
     NS sqrt iter    4 1.00000000   0.476E-02       0.002       67.884
     NS sqrt iter    5 1.00000000   0.791E-06       0.002       55.093
     Final NS sqrt iter    5 1.00000000   0.105E-11

     Est. extremal eigenvalues     -0.93221     1.72169  converged:  T
     TRS4 it   1 1.00000000   0.871E+00       0.001       16.128   0.100E-07
     TRS4 it   2 1.00000000   0.629E+00       0.001       32.256   0.100E-07
     TRS4 it   3 1.00000000   0.438E+00       0.001       32.256   0.100E-07
     TRS4 it   4 1.00000000   0.235E+00       0.001       32.256   0.100E-07
     TRS4 it   5 1.00000000   0.851E-01       0.001       32.256   0.100E-07
     TRS4 it   6 1.00000000   0.142E-01       0.001       32.256   0.100E-07
     TRS4 it   7 1.00000000   0.551E-03       0.001       32.256   0.100E-07
     TRS4 it   8 1.00000000   0.119E-05       0.001       32.256   0.100E-07
     TRS4 it   9 1.00000000   0.630E-11       0.001       32.256   0.100E-07
     Final TRS4 iteration    9 1.00000000   0.630E-11
     Chemical potential (mu):      -0.01143
 
 PAO| energy:  -7.7675398295636073      penalty:   5.7538669504206720E-006
 PAO|LS| Need extra step
 PAO|LS| adapt:  T T F
 PAO|LS| adapt: scan_steps:    0.0000000000000000       0.40000000000000002        0.0000000000000000     
 PAO|LS| adapt: energies:   -7.6216966309178940       -7.7675398295636073        0.0000000000000000     
 PAO| ======================= Iteration:         5 =============================

     Lanczos converged:  T threshold:   0.100E-02
     Est. extremal eigenvalues:    0.263E+01   0.184E+00
     Est. condition number :    0.143E+02
     NS sqrt iter    1 1.00000000   0.687E+00       0.002       42.393
     NS sqrt iter    2 1.00000000   0.313E+00       0.002       67.696
     NS sqrt iter    3 1.00000000   0.654E-01       0.002       68.044
     NS sqrt iter    4 1.00000000   0.131E-02       0.002       68.237
     NS sqrt iter    5 1.00000000   0.221E-07       0.001       39.498
     Final NS sqrt iter    5 1.00000000   0.232E-08

     Est. extremal eigenvalues     -0.93347     1.64948  converged:  T
     TRS4 it   1 1.00000000   0.865E+00       0.001       16.128   0.100E-07
     TRS4 it   2 1.00000000   0.592E+00       0.001       32.256   0.100E-07
     TRS4 it   3 1.00000000   0.389E+00       0.001       32.256   0.100E-07
     TRS4 it   4 1.00000000   0.178E+00       0.001       32.256   0.100E-07
     TRS4 it   5 1.00000000   0.453E-01       0.001       32.256   0.100E-07
     TRS4 it   6 1.00000000   0.363E-02       0.001       32.256   0.100E-07
     TRS4 it   7 1.00000000   0.302E-04       0.001       32.256   0.100E-07
     TRS4 it   8 1.00000000   0.264E-08       0.001       32.256   0.100E-07
     Final TRS4 iteration    8 1.00000000   0.264E-08
     Chemical potential (mu):       0.03815
 
 PAO| energy:  -7.7128188092432168      penalty:   9.2061862730086479E-005
 PAO|LS| Need extra step
 PAO|LS| adapt:  T T T
 PAO|LS| adapt: scan_steps:    0.0000000000000000       0.40000000000000002       0.80000000000000004     
 PAO|LS| adapt: energies:   -7.6216966309178940       -7.7675398295636073       -7.7128188092432168     
 PAO|LS| adapt: suggested step_size:   0.49086583718177862     
 PAO|LS| adapt: predicted energy  -7.7727147627007058     
 PAO| ======================= Iteration:         6 =============================

     Lanczos converged:  T threshold:   0.100E-02
     Est. extremal eigenvalues:    0.290E+01   0.164E+00
     Est. condition number :    0.177E+02
     NS sqrt iter    1 1.00000000   0.734E+00       0.001       43.320
     NS sqrt iter    2 1.00000000   0.359E+00       0.002       67.366
     NS sqrt iter    3 1.00000000   0.946E-01       0.002       68.202
     NS sqrt iter    4 1.00000000   0.349E-02       0.002       68.088
     NS sqrt iter    5 1.00000000   0.346E-06       0.002       53.792
     Final NS sqrt iter    5 1.00000000   0.159E-09

     Est. extremal eigenvalues     -0.93370     1.70011  converged:  T
     TRS4 it   1 1.00000000   0.869E+00       0.001       16.128   0.100E-07
     TRS4 it   2 1.00000000   0.619E+00       0.001       32.256   0.100E-07
     TRS4 it   3 1.00000000   0.425E+00       0.001       32.256   0.100E-07
     TRS4 it   4 1.00000000   0.220E+00       0.001       32.256   0.100E-07
     TRS4 it   5 1.00000000   0.733E-01       0.001       32.256   0.100E-07
     TRS4 it   6 1.00000000   0.103E-01       0.001       32.256   0.100E-07
     TRS4 it   7 1.00000000   0.276E-03       0.001       32.256   0.100E-07
     TRS4 it   8 1.00000000   0.285E-06       0.001       32.256   0.100E-07
     TRS4 it   9 1.00000000   0.359E-12       0.001       32.256   0.100E-07
     Final TRS4 iteration    9 1.00000000   0.359E-12
     Chemical potential (mu):       0.00245
 
 PAO| energy:  -7.7719986379918469      penalty:   1.3048814739439991E-005
 PAO|CG| warming up with steepest descent
 PAO|CG| beta:    0.0000000000000000     
 PAO| norm of gradient:  0.41765005243955822     
 PAO| energy improvement: -0.15030200707395291     
 PAO| step      6                   -7.771998638  0.261E-01  0.491E+00     0.123
 PAO|LS| adapt:  T F F
 PAO|LS| adapt: scan_steps:    0.0000000000000000        0.0000000000000000        0.0000000000000000     
 PAO|LS| adapt: energies:   -7.7719986379918469        0.0000000000000000        0.0000000000000000     
 PAO| ======================= Iteration:         7 =============================

     Lanczos converged:  T threshold:   0.100E-02
     Est. extremal eigenvalues:    0.281E+01   0.178E+00
     Est. condition number :    0.158E+02
     NS sqrt iter    1 1.00000000   0.716E+00       0.001       43.247
     NS sqrt iter    2 1.00000000   0.338E+00       0.002       67.484
     NS sqrt iter    3 1.00000000   0.791E-01       0.002       67.290
     NS sqrt iter    4 1.00000000   0.212E-02       0.002       68.432
     NS sqrt iter    5 1.00000000   0.866E-07       0.002       50.593
     Final NS sqrt iter    5 1.00000000   0.910E-09

     Est. extremal eigenvalues     -0.93543     1.68762  converged:  T
     TRS4 it   1 1.00000000   0.868E+00       0.001       16.128   0.100E-07
     TRS4 it   2 1.00000000   0.617E+00       0.001       32.256   0.100E-07
     TRS4 it   3 1.00000000   0.425E+00       0.001       32.256   0.100E-07
     TRS4 it   4 1.00000000   0.221E+00       0.001       32.256   0.100E-07
     TRS4 it   5 1.00000000   0.739E-01       0.001       32.256   0.100E-07
     TRS4 it   6 1.00000000   0.102E-01       0.001       32.256   0.100E-07
     TRS4 it   7 1.00000000   0.256E-03       0.001       32.256   0.100E-07
     TRS4 it   8 1.00000000   0.232E-06       0.001       32.256   0.100E-07
     TRS4 it   9 1.00000000   0.234E-12       0.001       32.256   0.100E-07
     Final TRS4 iteration    9 1.00000000   0.234E-12
     Chemical potential (mu):       0.00465
 
 PAO| energy:  -7.7660863354161975      penalty:   1.9790299629253841E-005
 PAO|LS| adapt:  T F T
 PAO|LS| adapt: scan_steps:    0.0000000000000000        0.0000000000000000       0.49086583718177862     
 PAO|LS| adapt: energies:   -7.7719986379918469        0.0000000000000000       -7.7660863354161975     
 PAO| ======================= Iteration:         8 =============================

     Lanczos converged:  T threshold:   0.100E-02
     Est. extremal eigenvalues:    0.285E+01   0.171E+00
     Est. condition number :    0.167E+02
     NS sqrt iter    1 1.00000000   0.725E+00       0.001       43.011
     NS sqrt iter    2 1.00000000   0.349E+00       0.002       67.024
     NS sqrt iter    3 1.00000000   0.867E-01       0.002       67.252
     NS sqrt iter    4 1.00000000   0.274E-02       0.002       68.144
     NS sqrt iter    5 1.00000000   0.176E-06       0.001       53.483
     Final NS sqrt iter    5 1.00000000   0.824E-09

     Est. extremal eigenvalues     -0.93551     1.69321  converged:  T
     TRS4 it   1 1.00000000   0.868E+00       0.001       16.128   0.100E-07
     TRS4 it   2 1.00000000   0.617E+00       0.001       32.256   0.100E-07
     TRS4 it   3 1.00000000   0.424E+00       0.001       32.256   0.100E-07
     TRS4 it   4 1.00000000   0.220E+00       0.001       32.256   0.100E-07
     TRS4 it   5 1.00000000   0.734E-01       0.001       32.256   0.100E-07
     TRS4 it   6 1.00000000   0.103E-01       0.001       32.256   0.100E-07
     TRS4 it   7 1.00000000   0.273E-03       0.001       32.256   0.100E-07
     TRS4 it   8 1.00000000   0.273E-06       0.001       32.256   0.100E-07
     TRS4 it   9 1.00000000   0.328E-12       0.001       32.256   0.100E-07
     Final TRS4 iteration    9 1.00000000   0.328E-12
     Chemical potential (mu):       0.00309
 
 PAO| energy:  -7.7916845326088584      penalty:   1.4157139816860887E-005
 PAO|LS| adapt:  T T T
 PAO|LS| adapt: scan_steps:    0.0000000000000000       0.24543291859088931       0.49086583718177862     
 PAO|LS| adapt: energies:   -7.7719986379918469       -7.7916845326088584       -7.7660863354161975     
 PAO|LS| adapt: suggested step_size:   0.22941102636841892     
 PAO|LS| adapt: predicted energy  -7.7917810215753729     
 PAO| ======================= Iteration:         9 =============================

     Lanczos converged:  T threshold:   0.100E-02
     Est. extremal eigenvalues:    0.286E+01   0.170E+00
     Est. condition number :    0.168E+02
     NS sqrt iter    1 1.00000000   0.725E+00       0.001       43.501
     NS sqrt iter    2 1.00000000   0.349E+00       0.002       67.502
     NS sqrt iter    3 1.00000000   0.872E-01       0.002       68.268
     NS sqrt iter    4 1.00000000   0.278E-02       0.002       68.485
     NS sqrt iter    5 1.00000000   0.185E-06       0.002       53.249
     Final NS sqrt iter    5 1.00000000   0.881E-09

     Est. extremal eigenvalues     -0.93545     1.69362  converged:  T
     TRS4 it   1 1.00000000   0.868E+00       0.001       16.128   0.100E-07
     TRS4 it   2 1.00000000   0.617E+00       0.001       32.256   0.100E-07
     TRS4 it   3 1.00000000   0.424E+00       0.001       32.256   0.100E-07
     TRS4 it   4 1.00000000   0.220E+00       0.001       32.256   0.100E-07
     TRS4 it   5 1.00000000   0.734E-01       0.001       32.256   0.100E-07
     TRS4 it   6 1.00000000   0.103E-01       0.001       32.256   0.100E-07
     TRS4 it   7 1.00000000   0.273E-03       0.001       32.256   0.100E-07
     TRS4 it   8 1.00000000   0.275E-06       0.001       32.256   0.100E-07
     TRS4 it   9 1.00000000   0.333E-12       0.001       32.256   0.100E-07
     Final TRS4 iteration    9 1.00000000   0.333E-12
     Chemical potential (mu):       0.00301
 
 PAO| energy:  -7.7918050900032725      penalty:   1.3985037556990560E-005
 PAO|CG| trace_G_new    3.6950422040933524E-002
 PAO|CG| trace_G_prev   0.17443156630276574     
 PAO|CG| trace_G_mix   -1.4546844340548181E-003
 PAO|CG| trace_D   0.17443156630276574     
 PAO|CG| trace_D_Gnew   1.4546844340548181E-003
 PAO|CG| beta:   0.22017291531010807     
 PAO| norm of gradient:  0.19222492564944205     
 PAO| energy improvement:  -1.9806452011425613E-002
 PAO| step      9                   -7.791805090  0.120E-01  0.229E+00     0.077
 PAO|LS| adapt:  T F F
 PAO|LS| adapt: scan_steps:    0.0000000000000000        0.0000000000000000        0.0000000000000000     
 PAO|LS| adapt: energies:   -7.7918050900032725        0.0000000000000000        0.0000000000000000     
 PAO| ======================= Iteration:        10 =============================

     Lanczos converged:  T threshold:   0.100E-02
     Est. extremal eigenvalues:    0.282E+01   0.176E+00
     Est. condition number :    0.160E+02
     NS sqrt iter    1 1.00000000   0.718E+00       0.001       43.517
     NS sqrt iter    2 1.00000000   0.341E+00       0.002       67.572
     NS sqrt iter    3 1.00000000   0.816E-01       0.002       68.358
     NS sqrt iter    4 1.00000000   0.229E-02       0.002       68.431
     NS sqrt iter    5 1.00000000   0.103E-06       0.002       50.963
     Final NS sqrt iter    5 1.00000000   0.106E-08

     Est. extremal eigenvalues     -0.93634     1.68996  converged:  T
     TRS4 it   1 1.00000000   0.867E+00       0.001       16.128   0.100E-07
     TRS4 it   2 1.00000000   0.616E+00       0.001       32.256   0.100E-07
     TRS4 it   3 1.00000000   0.422E+00       0.001       32.256   0.100E-07
     TRS4 it   4 1.00000000   0.217E+00       0.001       32.256   0.100E-07
     TRS4 it   5 1.00000000   0.714E-01       0.001       32.256   0.100E-07
     TRS4 it   6 1.00000000   0.968E-02       0.001       32.256   0.100E-07
     TRS4 it   7 1.00000000   0.238E-03       0.001       32.256   0.100E-07
     TRS4 it   8 1.00000000   0.203E-06       0.001       32.256   0.100E-07
     TRS4 it   9 1.00000000   0.180E-12       0.001       32.256   0.100E-07
     Final TRS4 iteration    9 1.00000000   0.180E-12
     Chemical potential (mu):       0.00621
 
 PAO| energy:  -7.7968560346849092      penalty:   1.4528690445528202E-005
 PAO|LS| adapt:  T T F
 PAO|LS| adapt: scan_steps:    0.0000000000000000       0.22941102636841892        0.0000000000000000     
 PAO|LS| adapt: energies:   -7.7918050900032725       -7.7968560346849092        0.0000000000000000     
 PAO| ======================= Iteration:        11 =============================

     Lanczos converged:  T threshold:   0.100E-02
     Est. extremal eigenvalues:    0.278E+01   0.182E+00
     Est. condition number :    0.153E+02
     NS sqrt iter    1 1.00000000   0.710E+00       0.001       43.500
     NS sqrt iter    2 1.00000000   0.333E+00       0.002       67.917
     NS sqrt iter    3 1.00000000   0.762E-01       0.002       68.089
     NS sqrt iter    4 1.00000000   0.187E-02       0.002       68.385
     NS sqrt iter    5 1.00000000   0.567E-07       0.001       48.331
     Final NS sqrt iter    5 1.00000000   0.545E-09

     Est. extremal eigenvalues     -0.93625     1.68774  converged:  T
     TRS4 it   1 1.00000000   0.866E+00       0.001       16.128   0.100E-07
     TRS4 it   2 1.00000000   0.615E+00       0.001       32.256   0.100E-07
     TRS4 it   3 1.00000000   0.421E+00       0.001       32.256   0.100E-07
     TRS4 it   4 1.00000000   0.215E+00       0.001       32.256   0.100E-07
     TRS4 it   5 1.00000000   0.696E-01       0.001       32.256   0.100E-07
     TRS4 it   6 1.00000000   0.912E-02       0.001       32.256   0.100E-07
     TRS4 it   7 1.00000000   0.207E-03       0.001       32.256   0.100E-07
     TRS4 it   8 1.00000000   0.150E-06       0.001       32.256   0.100E-07
     TRS4 it   9 1.00000000   0.951E-13       0.001       32.256   0.100E-07
     Final TRS4 iteration    9 1.00000000   0.951E-13
     Chemical potential (mu):       0.00952
 
 PAO| energy:  -7.7954453752602841      penalty:   1.5745468957152373E-005
 PAO|LS| adapt:  T T T
 PAO|LS| adapt: scan_steps:    0.0000000000000000       0.22941102636841892       0.45882205273683785     
 PAO|LS| adapt: energies:   -7.7918050900032725       -7.7968560346849092       -7.7954453752602841     
 PAO|LS| adapt: suggested step_size:   0.29403287284424823     
 PAO|LS| adapt: predicted energy  -7.7971123889224652     
 PAO| ======================= Iteration:        12 =============================

     Lanczos converged:  T threshold:   0.100E-02
     Est. extremal eigenvalues:    0.281E+01   0.177E+00
     Est. condition number :    0.158E+02
     NS sqrt iter    1 1.00000000   0.716E+00       0.002       42.916
     NS sqrt iter    2 1.00000000   0.339E+00       0.002       67.522
     NS sqrt iter    3 1.00000000   0.800E-01       0.002       68.013
     NS sqrt iter    4 1.00000000   0.216E-02       0.002       68.636
     NS sqrt iter    5 1.00000000   0.872E-07       0.001       51.018
     Final NS sqrt iter    5 1.00000000   0.833E-09

     Est. extremal eigenvalues     -0.93641     1.68919  converged:  T
     TRS4 it   1 1.00000000   0.866E+00       0.001       16.128   0.100E-07
     TRS4 it   2 1.00000000   0.616E+00       0.001       32.256   0.100E-07
     TRS4 it   3 1.00000000   0.422E+00       0.001       32.256   0.100E-07
     TRS4 it   4 1.00000000   0.217E+00       0.001       32.256   0.100E-07
     TRS4 it   5 1.00000000   0.709E-01       0.001       32.256   0.100E-07
     TRS4 it   6 1.00000000   0.952E-02       0.001       32.256   0.100E-07
     TRS4 it   7 1.00000000   0.229E-03       0.001       32.256   0.100E-07
     TRS4 it   8 1.00000000   0.186E-06       0.001       32.256   0.100E-07
     TRS4 it   9 1.00000000   0.151E-12       0.001       32.256   0.100E-07
     Final TRS4 iteration    9 1.00000000   0.151E-12
     Chemical potential (mu):       0.00713
 
 PAO| energy:  -7.7970961965228369      penalty:   1.4795646736969785E-005
 PAO|CG| trace_G_new    1.1859513524569714E-002
 PAO|CG| trace_G_prev    3.6950422040933524E-002
 PAO|CG| trace_G_mix   -4.5643879764148908E-004
 PAO|CG| trace_D    4.4765622070922634E-002
 PAO|CG| trace_D_Gnew   2.0851339175831070E-004
 PAO|CG| beta:   0.33331019354982311     
 PAO| norm of gradient:  0.10890139358414894     
 PAO| energy improvement:  -5.2911065195644369E-003
 PAO| step     12                   -7.797096197  0.681E-02  0.294E+00     0.077
 PAO|LS| adapt:  T F F
 PAO|LS| adapt: scan_steps:    0.0000000000000000        0.0000000000000000        0.0000000000000000     
 PAO|LS| adapt: energies:   -7.7970961965228369        0.0000000000000000        0.0000000000000000     
 PAO| ======================= Iteration:        13 =============================

     Lanczos converged:  T threshold:   0.100E-02
     Est. extremal eigenvalues:    0.277E+01   0.182E+00
     Est. condition number :    0.153E+02
     NS sqrt iter    1 1.00000000   0.708E+00       0.001       43.434
     NS sqrt iter    2 1.00000000   0.332E+00       0.002       67.283
     NS sqrt iter    3 1.00000000   0.757E-01       0.002       68.695
     NS sqrt iter    4 1.00000000   0.184E-02       0.002       68.345
     NS sqrt iter    5 1.00000000   0.548E-07       0.001       48.870
     Final NS sqrt iter    5 1.00000000   0.537E-09

     Est. extremal eigenvalues     -0.93690     1.68321  converged:  T
     TRS4 it   1 1.00000000   0.866E+00       0.001       16.128   0.100E-07
     TRS4 it   2 1.00000000   0.613E+00       0.001       32.256   0.100E-07
     TRS4 it   3 1.00000000   0.418E+00       0.001       32.256   0.100E-07
     TRS4 it   4 1.00000000   0.212E+00       0.001       32.256   0.100E-07
     TRS4 it   5 1.00000000   0.674E-01       0.001       32.256   0.100E-07
     TRS4 it   6 1.00000000   0.855E-02       0.001       32.256   0.100E-07
     TRS4 it   7 1.00000000   0.182E-03       0.001       32.256   0.100E-07
     TRS4 it   8 1.00000000   0.114E-06       0.001       32.256   0.100E-07
     TRS4 it   9 1.00000000   0.568E-13       0.001       32.256   0.100E-07
     Final TRS4 iteration    9 1.00000000   0.568E-13
     Chemical potential (mu):       0.01173
 
 PAO| energy:  -7.7991705898994610      penalty:   1.5108339022011675E-005
 PAO|LS| adapt:  T T F
 PAO|LS| adapt: scan_steps:    0.0000000000000000       0.29403287284424823        0.0000000000000000     
 PAO|LS| adapt: energies:   -7.7970961965228369       -7.7991705898994610        0.0000000000000000     
 PAO| ======================= Iteration:        14 =============================

     Lanczos converged:  T threshold:   0.100E-02
     Est. extremal eigenvalues:    0.274E+01   0.186E+00
     Est. condition number :    0.148E+02
     NS sqrt iter    1 1.00000000   0.702E+00       0.001       43.188
     NS sqrt iter    2 1.00000000   0.325E+00       0.002       67.925
     NS sqrt iter    3 1.00000000   0.716E-01       0.002       68.579
     NS sqrt iter    4 1.00000000   0.157E-02       0.002       68.381
     NS sqrt iter    5 1.00000000   0.343E-07       0.001       44.003
     Final NS sqrt iter    5 1.00000000   0.221E-08

     Est. extremal eigenvalues     -0.93687     1.67757  converged:  T
     TRS4 it   1 1.00000000   0.865E+00       0.001       16.128   0.100E-07
     TRS4 it   2 1.00000000   0.610E+00       0.001       30.129   0.100E-07
     TRS4 it   3 1.00000000   0.414E+00       0.001       30.781   0.100E-07
     TRS4 it   4 1.00000000   0.207E+00       0.001       30.999   0.100E-07
     TRS4 it   5 1.00000000   0.641E-01       0.001       32.256   0.100E-07
     TRS4 it   6 1.00000000   0.767E-02       0.001       32.256   0.100E-07
     TRS4 it   7 1.00000000   0.145E-03       0.001       32.256   0.100E-07
     TRS4 it   8 1.00000000   0.704E-07       0.001       32.256   0.100E-07
     Final TRS4 iteration    8 1.00000000   0.704E-07
     Chemical potential (mu):       0.01355
 
 PAO| energy:  -7.7985103131988138      penalty:   1.5905133737979425E-005
 PAO|LS| adapt:  T T T
 PAO|LS| adapt: scan_steps:    0.0000000000000000       0.29403287284424823       0.58806574568849646     
 PAO|LS| adapt: energies:   -7.7970961965228369       -7.7991705898994610       -7.7985103131988138     
 PAO|LS| adapt: suggested step_size:   0.37005608168217641     
 PAO|LS| adapt: predicted energy  -7.7992619960799496     
 PAO| ======================= Iteration:        15 =============================

     Lanczos converged:  T threshold:   0.100E-02
     Est. extremal eigenvalues:    0.277E+01   0.183E+00
     Est. condition number :    0.151E+02
     NS sqrt iter    1 1.00000000   0.707E+00       0.002       41.360
     NS sqrt iter    2 1.00000000   0.330E+00       0.002       64.009
     NS sqrt iter    3 1.00000000   0.746E-01       0.002       64.136
     NS sqrt iter    4 1.00000000   0.177E-02       0.002       64.694
     NS sqrt iter    5 1.00000000   0.486E-07       0.002       44.769
     Final NS sqrt iter    5 1.00000000   0.348E-09

     Est. extremal eigenvalues     -0.93694     1.68172  converged:  T
     TRS4 it   1 1.00000000   0.866E+00       0.001       16.128   0.100E-07
     TRS4 it   2 1.00000000   0.612E+00       0.001       32.256   0.100E-07
     TRS4 it   3 1.00000000   0.417E+00       0.001       32.256   0.100E-07
     TRS4 it   4 1.00000000   0.211E+00       0.001       32.256   0.100E-07
     TRS4 it   5 1.00000000   0.665E-01       0.001       32.256   0.100E-07
     TRS4 it   6 1.00000000   0.831E-02       0.001       32.256   0.100E-07
     TRS4 it   7 1.00000000   0.171E-03       0.001       32.256   0.100E-07
     TRS4 it   8 1.00000000   0.101E-06       0.001       32.256   0.100E-07
     TRS4 it   9 1.00000000   0.434E-13       0.001       32.256   0.100E-07
     Final TRS4 iteration    9 1.00000000   0.434E-13
     Chemical potential (mu):       0.01290
 
 PAO| energy:  -7.7992589677750157      penalty:   1.5264907786444372E-005
 PAO|CG| trace_G_new    2.6198052641533010E-003
 PAO|CG| trace_G_prev    1.1859513524569714E-002
 PAO|CG| trace_G_mix    6.5169656098743273E-005
 PAO|CG| trace_D    1.6693781700621402E-002
 PAO|CG| trace_D_Gnew   3.4095836884923440E-005
 PAO|CG| beta:   0.21540812806208631     
 PAO| norm of gradient:   5.1184033293140363E-002
 PAO| energy improvement:  -2.1627712521787856E-003
 PAO| step     15                   -7.799258968  0.320E-02  0.370E+00     0.078
 PAO|LS| adapt:  T F F
 PAO|LS| adapt: scan_steps:    0.0000000000000000        0.0000000000000000        0.0000000000000000     
 PAO|LS| adapt: energies:   -7.7992589677750157        0.0000000000000000        0.0000000000000000     
 PAO| ======================= Iteration:        16 =============================

     Lanczos converged:  T threshold:   0.100E-02
     Est. extremal eigenvalues:    0.276E+01   0.183E+00
     Est. condition number :    0.150E+02
     NS sqrt iter    1 1.00000000   0.705E+00       0.001       45.215
     NS sqrt iter    2 1.00000000   0.329E+00       0.002       71.630
     NS sqrt iter    3 1.00000000   0.739E-01       0.002       71.563
     NS sqrt iter    4 1.00000000   0.172E-02       0.002       72.212
     NS sqrt iter    5 1.00000000   0.444E-07       0.001       49.280
     Final NS sqrt iter    5 1.00000000   0.332E-09

     Est. extremal eigenvalues     -0.93697     1.68159  converged:  T
     TRS4 it   1 1.00000000   0.866E+00       0.001       16.128   0.100E-07
     TRS4 it   2 1.00000000   0.611E+00       0.001       32.256   0.100E-07
     TRS4 it   3 1.00000000   0.416E+00       0.001       32.256   0.100E-07
     TRS4 it   4 1.00000000   0.209E+00       0.001       32.256   0.100E-07
     TRS4 it   5 1.00000000   0.654E-01       0.001       32.256   0.100E-07
     TRS4 it   6 1.00000000   0.805E-02       0.001       30.130   0.100E-07
     TRS4 it   7 1.00000000   0.162E-03       0.001       30.188   0.100E-07
     TRS4 it   8 1.00000000   0.906E-07       0.001       30.244   0.100E-07
     TRS4 it   9 1.00000000   0.354E-13       0.001       31.326   0.100E-07
     Final TRS4 iteration    9 1.00000000   0.354E-13
     Chemical potential (mu):       0.01373
 
 PAO| energy:  -7.7993860339602925      penalty:   1.5046568524164462E-005
 PAO|LS| adapt:  T T F
 PAO|LS| adapt: scan_steps:    0.0000000000000000       0.37005608168217641        0.0000000000000000     
 PAO|LS| adapt: energies:   -7.7992589677750157       -7.7993860339602925        0.0000000000000000     
 PAO| ======================= Iteration:        17 =============================

     Lanczos converged:  T threshold:   0.100E-02
     Est. extremal eigenvalues:    0.275E+01   0.184E+00
     Est. condition number :    0.149E+02
     NS sqrt iter    1 1.00000000   0.703E+00       0.002       39.031
     NS sqrt iter    2 1.00000000   0.327E+00       0.002       63.604
     NS sqrt iter    3 1.00000000   0.733E-01       0.002       63.384
     NS sqrt iter    4 1.00000000   0.167E-02       0.002       64.619
     NS sqrt iter    5 1.00000000   0.406E-07       0.002       43.945
     Final NS sqrt iter    5 1.00000000   0.292E-09

     Est. extremal eigenvalues     -0.93687     1.68154  converged:  T
     TRS4 it   1 1.00000000   0.866E+00       0.001       16.128   0.100E-07
     TRS4 it   2 1.00000000   0.611E+00       0.001       32.256   0.100E-07
     TRS4 it   3 1.00000000   0.415E+00       0.001       32.256   0.100E-07
     TRS4 it   4 1.00000000   0.207E+00       0.001       32.256   0.100E-07
     TRS4 it   5 1.00000000   0.644E-01       0.001       32.256   0.100E-07
     TRS4 it   6 1.00000000   0.780E-02       0.001       32.256   0.100E-07
     TRS4 it   7 1.00000000   0.152E-03       0.001       32.256   0.100E-07
     TRS4 it   8 1.00000000   0.815E-07       0.001       32.256   0.100E-07
     TRS4 it   9 1.00000000   0.289E-13       0.001       27.942   0.100E-07
     Final TRS4 iteration    9 1.00000000   0.289E-13
     Chemical potential (mu):       0.01454
 
 PAO| energy:  -7.7978279566713367      penalty:   1.4953594842178700E-005
 PAO|LS| adapt:  T T T
 PAO|LS| adapt: scan_steps:    0.0000000000000000       0.37005608168217641       0.74011216336435282     
 PAO|LS| adapt: energies:   -7.7992589677750157       -7.7993860339602925       -7.7978279566713367     
 PAO|LS| adapt: suggested step_size:   0.21293166765793645     
 PAO|LS| adapt: predicted energy  -7.7995379344371782     
 PAO| ======================= Iteration:        18 =============================

     Lanczos converged:  T threshold:   0.100E-02
     Est. extremal eigenvalues:    0.276E+01   0.183E+00
     Est. condition number :    0.151E+02
     NS sqrt iter    1 1.00000000   0.706E+00       0.001       45.305
     NS sqrt iter    2 1.00000000   0.329E+00       0.002       70.787
     NS sqrt iter    3 1.00000000   0.742E-01       0.002       71.722
     NS sqrt iter    4 1.00000000   0.174E-02       0.002       72.446
     NS sqrt iter    5 1.00000000   0.461E-07       0.001       49.610
     Final NS sqrt iter    5 1.00000000   0.343E-09

     Est. extremal eigenvalues     -0.93697     1.68163  converged:  T
     TRS4 it   1 1.00000000   0.866E+00       0.001       16.128   0.100E-07
     TRS4 it   2 1.00000000   0.612E+00       0.001       32.256   0.100E-07
     TRS4 it   3 1.00000000   0.416E+00       0.001       32.256   0.100E-07
     TRS4 it   4 1.00000000   0.210E+00       0.001       32.256   0.100E-07
     TRS4 it   5 1.00000000   0.659E-01       0.001       32.256   0.100E-07
     TRS4 it   6 1.00000000   0.816E-02       0.001       32.256   0.100E-07
     TRS4 it   7 1.00000000   0.166E-03       0.001       32.256   0.100E-07
     TRS4 it   8 1.00000000   0.949E-07       0.001       32.256   0.100E-07
     TRS4 it   9 1.00000000   0.381E-13       0.001       32.256   0.100E-07
     Final TRS4 iteration    9 1.00000000   0.381E-13
     Chemical potential (mu):       0.01338
 
 PAO| energy:  -7.7995374596743767      penalty:   1.5124229240237183E-005
 PAO|CG| trace_G_new    7.3071178219042115E-004
 PAO|CG| trace_G_prev    2.6198052641533010E-003
 PAO|CG| trace_G_mix    1.7342400453221658E-006
 PAO|CG| trace_D    3.3797187394597481E-003
 PAO|CG| trace_D_Gnew  -1.8144232763300185E-006
 PAO|CG| beta:   0.27825638497626975     
 PAO| norm of gradient:   2.7031681083321865E-002
 PAO| energy improvement:  -2.7849189936102192E-004
 PAO| step     18                   -7.799537460  0.169E-02  0.213E+00     0.080
 PAO|LS| adapt:  T F F
 PAO|LS| adapt: scan_steps:    0.0000000000000000        0.0000000000000000        0.0000000000000000     
 PAO|LS| adapt: energies:   -7.7995374596743767        0.0000000000000000        0.0000000000000000     
 PAO| ======================= Iteration:        19 =============================

     Lanczos converged:  T threshold:   0.100E-02
     Est. extremal eigenvalues:    0.276E+01   0.183E+00
     Est. condition number :    0.151E+02
     NS sqrt iter    1 1.00000000   0.706E+00       0.002       32.708
     NS sqrt iter    2 1.00000000   0.329E+00       0.002       59.895
     NS sqrt iter    3 1.00000000   0.744E-01       0.002       64.204
     NS sqrt iter    4 1.00000000   0.175E-02       0.002       64.037
     NS sqrt iter    5 1.00000000   0.466E-07       0.002       44.686
     Final NS sqrt iter    5 1.00000000   0.349E-09

     Est. extremal eigenvalues     -0.93697     1.68195  converged:  T
     TRS4 it   1 1.00000000   0.866E+00       0.001       16.128   0.100E-07
     TRS4 it   2 1.00000000   0.612E+00       0.001       30.762   0.100E-07
     TRS4 it   3 1.00000000   0.416E+00       0.001       32.256   0.100E-07
     TRS4 it   4 1.00000000   0.209E+00       0.001       32.256   0.100E-07
     TRS4 it   5 1.00000000   0.658E-01       0.001       32.256   0.100E-07
     TRS4 it   6 1.00000000   0.815E-02       0.001       32.256   0.100E-07
     TRS4 it   7 1.00000000   0.166E-03       0.001       32.256   0.100E-07
     TRS4 it   8 1.00000000   0.964E-07       0.001       32.256   0.100E-07
     TRS4 it   9 1.00000000   0.402E-13       0.001       32.256   0.100E-07
     Final TRS4 iteration    9 1.00000000   0.402E-13
     Chemical potential (mu):       0.01311
 
 PAO| energy:  -7.7996561719162383      penalty:   1.4834203969528046E-005
 PAO|LS| adapt:  T T F
 PAO|LS| adapt: scan_steps:    0.0000000000000000       0.21293166765793645        0.0000000000000000     
 PAO|LS| adapt: energies:   -7.7995374596743767       -7.7996561719162383        0.0000000000000000     
 PAO| ======================= Iteration:        20 =============================

     Lanczos converged:  T threshold:   0.100E-02
     Est. extremal eigenvalues:    0.276E+01   0.183E+00
     Est. condition number :    0.151E+02
     NS sqrt iter    1 1.00000000   0.706E+00       0.001       43.708
     NS sqrt iter    2 1.00000000   0.330E+00       0.002       71.207
     NS sqrt iter    3 1.00000000   0.747E-01       0.002       71.155
     NS sqrt iter    4 1.00000000   0.176E-02       0.002       69.498
     NS sqrt iter    5 1.00000000   0.471E-07       0.001       50.376
     Final NS sqrt iter    5 1.00000000   0.373E-09

     Est. extremal eigenvalues     -0.93697     1.68227  converged:  T
     TRS4 it   1 1.00000000   0.866E+00       0.001       16.128   0.100E-07
     TRS4 it   2 1.00000000   0.612E+00       0.001       32.256   0.100E-07
     TRS4 it   3 1.00000000   0.416E+00       0.001       32.256   0.100E-07
     TRS4 it   4 1.00000000   0.209E+00       0.001       32.256   0.100E-07
     TRS4 it   5 1.00000000   0.657E-01       0.001       32.256   0.100E-07
     TRS4 it   6 1.00000000   0.814E-02       0.001       32.256   0.100E-07
     TRS4 it   7 1.00000000   0.167E-03       0.001       32.256   0.100E-07
     TRS4 it   8 1.00000000   0.979E-07       0.001       32.256   0.100E-07
     TRS4 it   9 1.00000000   0.416E-13       0.001       32.256   0.100E-07
     Final TRS4 iteration    9 1.00000000   0.416E-13
     Chemical potential (mu):       0.01283
 
 PAO| energy:  -7.7997005059975564      penalty:   1.4556677229409964E-005
 PAO|LS| adapt:  T T F
 PAO|LS| adapt: scan_steps:    0.0000000000000000       0.42586333531587289        0.0000000000000000     
 PAO|LS| adapt: energies:   -7.7995374596743767       -7.7997005059975564        0.0000000000000000     
 PAO| ======================= Iteration:        21 =============================

     Lanczos converged:  T threshold:   0.100E-02
     Est. extremal eigenvalues:    0.276E+01   0.182E+00
     Est. condition number :    0.151E+02
     NS sqrt iter    1 1.00000000   0.705E+00       0.002       39.120
     NS sqrt iter    2 1.00000000   0.330E+00       0.002       70.701
     NS sqrt iter    3 1.00000000   0.751E-01       0.002       58.567
     NS sqrt iter    4 1.00000000   0.178E-02       0.002       57.943
     NS sqrt iter    5 1.00000000   0.482E-07       0.002       41.740
     Final NS sqrt iter    5 1.00000000   0.376E-09

     Est. extremal eigenvalues     -0.93696     1.68291  converged:  T
     TRS4 it   1 1.00000000   0.866E+00       0.001       16.128   0.100E-07
     TRS4 it   2 1.00000000   0.611E+00       0.001       25.673   0.100E-07
     TRS4 it   3 1.00000000   0.416E+00       0.001       30.619   0.100E-07
     TRS4 it   4 1.00000000   0.209E+00       0.001       32.256   0.100E-07
     TRS4 it   5 1.00000000   0.655E-01       0.001       32.256   0.100E-07
     TRS4 it   6 1.00000000   0.813E-02       0.001       32.256   0.100E-07
     TRS4 it   7 1.00000000   0.168E-03       0.001       32.256   0.100E-07
     TRS4 it   8 1.00000000   0.101E-06       0.001       32.256   0.100E-07
     TRS4 it   9 1.00000000   0.445E-13       0.001       32.256   0.100E-07
     Final TRS4 iteration    9 1.00000000   0.445E-13
     Chemical potential (mu):       0.01228
 
 PAO| energy:  -7.7995635779581711      penalty:   1.4038545616073633E-005
 PAO|LS| Need extra step
 PAO|LS| adapt:  T T T
 PAO|LS| adapt: scan_steps:    0.0000000000000000       0.42586333531587289       0.85172667063174579     
 PAO|LS| adapt: energies:   -7.7995374596743767       -7.7997005059975564       -7.7995635779581711     
 PAO|LS| adapt: suggested step_size:   0.44440295209229258     
 PAO|LS| adapt: predicted energy  -7.7997007902571607     
 PAO| ======================= Iteration:        22 =============================

     Lanczos converged:  T threshold:   0.100E-02
     Est. extremal eigenvalues:    0.276E+01   0.183E+00
     Est. condition number :    0.151E+02
     NS sqrt iter    1 1.00000000   0.706E+00       0.002       38.363
     NS sqrt iter    2 1.00000000   0.330E+00       0.002       64.059
     NS sqrt iter    3 1.00000000   0.747E-01       0.002       62.366
     NS sqrt iter    4 1.00000000   0.176E-02       0.002       62.708
     NS sqrt iter    5 1.00000000   0.471E-07       0.002       43.467
     Final NS sqrt iter    5 1.00000000   0.374E-09

     Est. extremal eigenvalues     -0.93697     1.68229  converged:  T
     TRS4 it   1 1.00000000   0.866E+00       0.001       16.128   0.100E-07
     TRS4 it   2 1.00000000   0.612E+00       0.001       32.256   0.100E-07
     TRS4 it   3 1.00000000   0.416E+00       0.001       32.256   0.100E-07
     TRS4 it   4 1.00000000   0.209E+00       0.001       32.256   0.100E-07
     TRS4 it   5 1.00000000   0.657E-01       0.001       32.256   0.100E-07
     TRS4 it   6 1.00000000   0.814E-02       0.001       32.256   0.100E-07
     TRS4 it   7 1.00000000   0.167E-03       0.001       32.256   0.100E-07
     TRS4 it   8 1.00000000   0.980E-07       0.001       32.256   0.100E-07
     TRS4 it   9 1.00000000   0.416E-13       0.001       32.256   0.100E-07
     Final TRS4 iteration    9 1.00000000   0.416E-13
     Chemical potential (mu):       0.01281
 
 PAO| energy:  -7.7997008257016605      penalty:   1.4533099097165877E-005
 PAO|CG| trace_G_new    2.2515293522451919E-004
 PAO|CG| trace_G_prev    7.3071178219042115E-004
 PAO|CG| trace_G_mix    3.1041520789403407E-006
 PAO|CG| trace_D    9.9340171619862350E-004
 PAO|CG| trace_D_Gnew  -1.9053631482081831E-006
 PAO|CG| beta:   0.30388011875209320     
 PAO| norm of gradient:   1.5005096974845554E-002
 PAO| energy improvement:  -1.6336602728372895E-004
 PAO| step     22                   -7.799700826  0.938E-03  0.444E+00     0.109
 PAO|LS| adapt:  T F F
 PAO|LS| adapt: scan_steps:    0.0000000000000000        0.0000000000000000        0.0000000000000000     
 PAO|LS| adapt: energies:   -7.7997008257016605        0.0000000000000000        0.0000000000000000     
 PAO| ======================= Iteration:        23 =============================

     Lanczos converged:  T threshold:   0.100E-02
     Est. extremal eigenvalues:    0.276E+01   0.183E+00
     Est. condition number :    0.151E+02
     NS sqrt iter    1 1.00000000   0.705E+00       0.002       38.964
     NS sqrt iter    2 1.00000000   0.330E+00       0.002       61.298
     NS sqrt iter    3 1.00000000   0.747E-01       0.002       61.486
     NS sqrt iter    4 1.00000000   0.176E-02       0.002       59.212
     NS sqrt iter    5 1.00000000   0.472E-07       0.002       40.349
     Final NS sqrt iter    5 1.00000000   0.376E-09

     Est. extremal eigenvalues     -0.93697     1.68208  converged:  T
     TRS4 it   1 1.00000000   0.866E+00       0.001       16.128   0.100E-07
     TRS4 it   2 1.00000000   0.612E+00       0.001       30.646   0.100E-07
     TRS4 it   3 1.00000000   0.416E+00       0.001       27.269   0.100E-07
     TRS4 it   4 1.00000000   0.209E+00       0.001       27.602   0.100E-07
     TRS4 it   5 1.00000000   0.658E-01       0.001       32.256   0.100E-07
     TRS4 it   6 1.00000000   0.818E-02       0.001       32.256   0.100E-07
     TRS4 it   7 1.00000000   0.168E-03       0.001       32.256   0.100E-07
     TRS4 it   8 1.00000000   0.100E-06       0.001       32.256   0.100E-07
     TRS4 it   9 1.00000000   0.430E-13       0.001       32.256   0.100E-07
     Final TRS4 iteration    9 1.00000000   0.430E-13
     Chemical potential (mu):       0.01251
 
 PAO| energy:  -7.7997508579353063      penalty:   1.3849270844619912E-005
 PAO|LS| adapt:  T T F
 PAO|LS| adapt: scan_steps:    0.0000000000000000       0.44440295209229258        0.0000000000000000     
 PAO|LS| adapt: energies:   -7.7997008257016605       -7.7997508579353063        0.0000000000000000     
 PAO| ======================= Iteration:        24 =============================

     Lanczos converged:  T threshold:   0.100E-02
     Est. extremal eigenvalues:    0.276E+01   0.183E+00
     Est. condition number :    0.151E+02
     NS sqrt iter    1 1.00000000   0.705E+00       0.002       40.155
     NS sqrt iter    2 1.00000000   0.330E+00       0.002       63.546
     NS sqrt iter    3 1.00000000   0.748E-01       0.002       64.935
     NS sqrt iter    4 1.00000000   0.176E-02       0.002       64.467
     NS sqrt iter    5 1.00000000   0.472E-07       0.002       45.360
     Final NS sqrt iter    5 1.00000000   0.378E-09

     Est. extremal eigenvalues     -0.93697     1.68186  converged:  T
     TRS4 it   1 1.00000000   0.866E+00       0.001       16.128   0.100E-07
     TRS4 it   2 1.00000000   0.612E+00       0.001       26.794   0.100E-07
     TRS4 it   3 1.00000000   0.416E+00       0.001       32.256   0.100E-07
     TRS4 it   4 1.00000000   0.209E+00       0.001       32.256   0.100E-07
     TRS4 it   5 1.00000000   0.659E-01       0.001       32.256   0.100E-07
     TRS4 it   6 1.00000000   0.821E-02       0.001       32.256   0.100E-07
     TRS4 it   7 1.00000000   0.170E-03       0.001       32.256   0.100E-07
     TRS4 it   8 1.00000000   0.103E-06       0.001       32.256   0.100E-07
     TRS4 it   9 1.00000000   0.455E-13       0.001       32.256   0.100E-07
     Final TRS4 iteration    9 1.00000000   0.455E-13
     Chemical potential (mu):       0.01222
 
 PAO| energy:  -7.7996996682728676      penalty:   1.3193989073930687E-005
 PAO|LS| adapt:  T T T
 PAO|LS| adapt: scan_steps:    0.0000000000000000       0.44440295209229258       0.88880590418458516     
 PAO|LS| adapt: energies:   -7.7997008257016605       -7.7997508579353063       -7.7996996682728676     
 PAO|LS| adapt: suggested step_size:   0.44186217389974031     
 PAO|LS| adapt: predicted energy  -7.7997508595896434     
 PAO| ======================= Iteration:        25 =============================

     Lanczos converged:  T threshold:   0.100E-02
     Est. extremal eigenvalues:    0.276E+01   0.183E+00
     Est. condition number :    0.151E+02
     NS sqrt iter    1 1.00000000   0.705E+00       0.001       45.358
     NS sqrt iter    2 1.00000000   0.330E+00       0.002       70.556
     NS sqrt iter    3 1.00000000   0.747E-01       0.002       71.779
     NS sqrt iter    4 1.00000000   0.176E-02       0.002       71.223
     NS sqrt iter    5 1.00000000   0.472E-07       0.001       50.115
     Final NS sqrt iter    5 1.00000000   0.376E-09

     Est. extremal eigenvalues     -0.93697     1.68208  converged:  T
     TRS4 it   1 1.00000000   0.866E+00       0.001       16.128   0.100E-07
     TRS4 it   2 1.00000000   0.612E+00       0.001       32.256   0.100E-07
     TRS4 it   3 1.00000000   0.416E+00       0.001       32.256   0.100E-07
     TRS4 it   4 1.00000000   0.209E+00       0.001       32.256   0.100E-07
     TRS4 it   5 1.00000000   0.658E-01       0.001       29.128   0.100E-07
     TRS4 it   6 1.00000000   0.818E-02       0.001       30.421   0.100E-07
     TRS4 it   7 1.00000000   0.168E-03       0.001       29.706   0.100E-07
     TRS4 it   8 1.00000000   0.100E-06       0.001       32.256   0.100E-07
     TRS4 it   9 1.00000000   0.435E-13       0.001       32.256   0.100E-07
     Final TRS4 iteration    9 1.00000000   0.435E-13
     Chemical potential (mu):       0.01251
 
 PAO| energy:  -7.7997508586539581      penalty:   1.3853098764259157E-005
 PAO|CG| trace_G_new    8.1244626124259180E-005
 PAO|CG| trace_G_prev    2.2515293522451919E-004
 PAO|CG| trace_G_mix    7.3865260996092050E-007
 PAO|CG| trace_D    3.1804475960055847E-004
 PAO|CG| trace_D_Gnew  -3.6832238518076671E-007
 PAO|CG| beta:   0.35756128799306519     
 PAO| norm of gradient:   9.0135800947381151E-003
 PAO| energy improvement:  -5.0032952297662803E-005
 PAO| step     25                   -7.799750859  0.563E-03  0.442E+00     0.081
 PAO|LS| adapt:  T F F
 PAO|LS| adapt: scan_steps:    0.0000000000000000        0.0000000000000000        0.0000000000000000     
 PAO|LS| adapt: energies:   -7.7997508586539581        0.0000000000000000        0.0000000000000000     
 PAO| ======================= Iteration:        26 =============================

     Lanczos converged:  T threshold:   0.100E-02
     Est. extremal eigenvalues:    0.276E+01   0.183E+00
     Est. condition number :    0.151E+02
     NS sqrt iter    1 1.00000000   0.705E+00       0.002       37.920
     NS sqrt iter    2 1.00000000   0.329E+00       0.002       61.609
     NS sqrt iter    3 1.00000000   0.746E-01       0.002       61.729
     NS sqrt iter    4 1.00000000   0.175E-02       0.002       61.810
     NS sqrt iter    5 1.00000000   0.468E-07       0.002       42.723
     Final NS sqrt iter    5 1.00000000   0.352E-09

     Est. extremal eigenvalues     -0.93697     1.68172  converged:  T
     TRS4 it   1 1.00000000   0.866E+00       0.001       16.128   0.100E-07
     TRS4 it   2 1.00000000   0.611E+00       0.001       32.013   0.100E-07
     TRS4 it   3 1.00000000   0.416E+00       0.001       32.256   0.100E-07
     TRS4 it   4 1.00000000   0.209E+00       0.001       32.256   0.100E-07
     TRS4 it   5 1.00000000   0.657E-01       0.001       32.251   0.100E-07
     TRS4 it   6 1.00000000   0.815E-02       0.001       32.132   0.100E-07
     TRS4 it   7 1.00000000   0.167E-03       0.001       32.075   0.100E-07
     TRS4 it   8 1.00000000   0.988E-07       0.001       32.063   0.100E-07
     TRS4 it   9 1.00000000   0.422E-13       0.001       31.721   0.100E-07
     Final TRS4 iteration    9 1.00000000   0.422E-13
     Chemical potential (mu):       0.01265
 
 PAO| energy:  -7.7997552432918127      penalty:   1.3127960450508899E-005
 PAO|LS| adapt:  T T F
 PAO|LS| adapt: scan_steps:    0.0000000000000000       0.44186217389974031        0.0000000000000000     
 PAO|LS| adapt: energies:   -7.7997508586539581       -7.7997552432918127        0.0000000000000000     
 PAO| ======================= Iteration:        27 =============================

     Lanczos converged:  T threshold:   0.100E-02
     Est. extremal eigenvalues:    0.276E+01   0.183E+00
     Est. condition number :    0.151E+02
     NS sqrt iter    1 1.00000000   0.705E+00       0.002       39.443
     NS sqrt iter    2 1.00000000   0.329E+00       0.002       62.280
     NS sqrt iter    3 1.00000000   0.745E-01       0.002       61.272
     NS sqrt iter    4 1.00000000   0.175E-02       0.002       62.142
     NS sqrt iter    5 1.00000000   0.465E-07       0.002       43.005
     Final NS sqrt iter    5 1.00000000   0.350E-09

     Est. extremal eigenvalues     -0.93698     1.68136  converged:  T
     TRS4 it   1 1.00000000   0.866E+00       0.001       16.128   0.100E-07
     TRS4 it   2 1.00000000   0.611E+00       0.001       32.256   0.100E-07
     TRS4 it   3 1.00000000   0.416E+00       0.001       32.013   0.100E-07
     TRS4 it   4 1.00000000   0.209E+00       0.001       32.256   0.100E-07
     TRS4 it   5 1.00000000   0.656E-01       0.001       32.256   0.100E-07
     TRS4 it   6 1.00000000   0.813E-02       0.001       32.044   0.100E-07
     TRS4 it   7 1.00000000   0.166E-03       0.001       32.220   0.100E-07
     TRS4 it   8 1.00000000   0.973E-07       0.001       32.256   0.100E-07
     TRS4 it   9 1.00000000   0.408E-13       0.001       32.256   0.100E-07
     Final TRS4 iteration    9 1.00000000   0.408E-13
     Chemical potential (mu):       0.01279
 
 PAO| energy:  -7.7996963792491059      penalty:   1.2426727254489980E-005
 PAO|LS| adapt:  T T T
 PAO|LS| adapt: scan_steps:    0.0000000000000000       0.44186217389974031       0.88372434779948061     
 PAO|LS| adapt: energies:   -7.7997508586539581       -7.7997552432918127       -7.7996963792491059     
 PAO|LS| adapt: suggested step_size:   0.25156264474660528     
 PAO|LS| adapt: predicted energy  -7.7997611090377985     
 PAO| ======================= Iteration:        28 =============================

     Lanczos converged:  T threshold:   0.100E-02
     Est. extremal eigenvalues:    0.276E+01   0.183E+00
     Est. condition number :    0.151E+02
     NS sqrt iter    1 1.00000000   0.705E+00       0.002       38.686
     NS sqrt iter    2 1.00000000   0.330E+00       0.002       61.153
     NS sqrt iter    3 1.00000000   0.747E-01       0.002       62.786
     NS sqrt iter    4 1.00000000   0.176E-02       0.002       62.130
     NS sqrt iter    5 1.00000000   0.470E-07       0.002       43.526
     Final NS sqrt iter    5 1.00000000   0.353E-09

     Est. extremal eigenvalues     -0.93697     1.68187  converged:  T
     TRS4 it   1 1.00000000   0.866E+00       0.001       16.128   0.100E-07
     TRS4 it   2 1.00000000   0.611E+00       0.001       32.256   0.100E-07
     TRS4 it   3 1.00000000   0.416E+00       0.001       32.256   0.100E-07
     TRS4 it   4 1.00000000   0.209E+00       0.001       32.256   0.100E-07
     TRS4 it   5 1.00000000   0.657E-01       0.001       32.256   0.100E-07
     TRS4 it   6 1.00000000   0.816E-02       0.001       32.256   0.100E-07
     TRS4 it   7 1.00000000   0.168E-03       0.001       32.256   0.100E-07
     TRS4 it   8 1.00000000   0.994E-07       0.001       32.256   0.100E-07
     TRS4 it   9 1.00000000   0.426E-13       0.001       32.256   0.100E-07
     Final TRS4 iteration    9 1.00000000   0.426E-13
     Chemical potential (mu):       0.01259
 
 PAO| energy:  -7.7997610989322732      penalty:   1.3437310100640980E-005
 PAO|CG| trace_G_new    3.2784746307284299E-005
 PAO|CG| trace_G_prev    8.1244626124259180E-005
 PAO|CG| trace_G_mix    5.9903893762905305E-008
 PAO|CG| trace_D    1.2217006804087727E-004
 PAO|CG| trace_D_Gnew  -3.1023167593135744E-008
 PAO|CG| beta:   0.40279393203767777     
 PAO| norm of gradient:   5.7257965653072498E-003
 PAO| energy improvement:  -1.0240278315087892E-005
 PAO| step     28                   -7.799761099  0.358E-03  0.252E+00     0.086
 PAO|LS| adapt:  T F F
 PAO|LS| adapt: scan_steps:    0.0000000000000000        0.0000000000000000        0.0000000000000000     
 PAO|LS| adapt: energies:   -7.7997610989322732        0.0000000000000000        0.0000000000000000     
 PAO| ======================= Iteration:        29 =============================

     Lanczos converged:  T threshold:   0.100E-02
     Est. extremal eigenvalues:    0.276E+01   0.183E+00
     Est. condition number :    0.151E+02
     NS sqrt iter    1 1.00000000   0.705E+00       0.002       38.983
     NS sqrt iter    2 1.00000000   0.329E+00       0.002       61.684
     NS sqrt iter    3 1.00000000   0.746E-01       0.002       61.720
     NS sqrt iter    4 1.00000000   0.175E-02       0.002       62.090
     NS sqrt iter    5 1.00000000   0.469E-07       0.002       42.925
     Final NS sqrt iter    5 1.00000000   0.352E-09

     Est. extremal eigenvalues     -0.93698     1.68178  converged:  T
     TRS4 it   1 1.00000000   0.866E+00       0.001       16.128   0.100E-07
     TRS4 it   2 1.00000000   0.611E+00       0.001       32.256   0.100E-07
     TRS4 it   3 1.00000000   0.416E+00       0.001       32.256   0.100E-07
     TRS4 it   4 1.00000000   0.209E+00       0.001       32.256   0.100E-07
     TRS4 it   5 1.00000000   0.656E-01       0.001       32.256   0.100E-07
     TRS4 it   6 1.00000000   0.814E-02       0.001       32.256   0.100E-07
     TRS4 it   7 1.00000000   0.167E-03       0.001       32.256   0.100E-07
     TRS4 it   8 1.00000000   0.980E-07       0.001       32.256   0.100E-07
     TRS4 it   9 1.00000000   0.419E-13       0.001       32.256   0.100E-07
     Final TRS4 iteration    9 1.00000000   0.419E-13
     Chemical potential (mu):       0.01273
 
 PAO| energy:  -7.7997683585099891      penalty:   1.2999909800928068E-005
 PAO|LS| adapt:  T T F
 PAO|LS| adapt: scan_steps:    0.0000000000000000       0.25156264474660528        0.0000000000000000     
 PAO|LS| adapt: energies:   -7.7997610989322732       -7.7997683585099891        0.0000000000000000     
 PAO| ======================= Iteration:        30 =============================

     Lanczos converged:  T threshold:   0.100E-02
     Est. extremal eigenvalues:    0.276E+01   0.183E+00
     Est. condition number :    0.151E+02
     NS sqrt iter    1 1.00000000   0.705E+00       0.002       39.814
     NS sqrt iter    2 1.00000000   0.329E+00       0.002       61.691
     NS sqrt iter    3 1.00000000   0.745E-01       0.002       61.958
     NS sqrt iter    4 1.00000000   0.175E-02       0.002       61.451
     NS sqrt iter    5 1.00000000   0.468E-07       0.002       43.440
     Final NS sqrt iter    5 1.00000000   0.351E-09

     Est. extremal eigenvalues     -0.93698     1.68169  converged:  T
     TRS4 it   1 1.00000000   0.866E+00       0.001       16.128   0.100E-07
     TRS4 it   2 1.00000000   0.611E+00       0.001       32.038   0.100E-07
     TRS4 it   3 1.00000000   0.416E+00       0.001       32.256   0.100E-07
     TRS4 it   4 1.00000000   0.209E+00       0.001       32.256   0.100E-07
     TRS4 it   5 1.00000000   0.655E-01       0.001       32.256   0.100E-07
     TRS4 it   6 1.00000000   0.812E-02       0.001       32.256   0.100E-07
     TRS4 it   7 1.00000000   0.166E-03       0.001       32.256   0.100E-07
     TRS4 it   8 1.00000000   0.966E-07       0.001       32.256   0.100E-07
     TRS4 it   9 1.00000000   0.410E-13       0.001       32.256   0.100E-07
     Final TRS4 iteration    9 1.00000000   0.410E-13
     Chemical potential (mu):       0.01288
 
 PAO| energy:  -7.7997736364930716      penalty:   1.2570614194202227E-005
 PAO|LS| adapt:  T T F
 PAO|LS| adapt: scan_steps:    0.0000000000000000       0.50312528949321056        0.0000000000000000     
 PAO|LS| adapt: energies:   -7.7997610989322732       -7.7997736364930716        0.0000000000000000     
 PAO| ======================= Iteration:        31 =============================

     Lanczos converged:  T threshold:   0.100E-02
     Est. extremal eigenvalues:    0.276E+01   0.183E+00
     Est. condition number :    0.151E+02
     NS sqrt iter    1 1.00000000   0.704E+00       0.002       40.736
     NS sqrt iter    2 1.00000000   0.329E+00       0.002       63.978
     NS sqrt iter    3 1.00000000   0.744E-01       0.002       64.306
     NS sqrt iter    4 1.00000000   0.175E-02       0.002       64.216
     NS sqrt iter    5 1.00000000   0.467E-07       0.002       45.038
     Final NS sqrt iter    5 1.00000000   0.350E-09

     Est. extremal eigenvalues     -0.93698     1.68151  converged:  T
     TRS4 it   1 1.00000000   0.866E+00       0.001       16.128   0.100E-07
     TRS4 it   2 1.00000000   0.611E+00       0.001       32.256   0.100E-07
     TRS4 it   3 1.00000000   0.416E+00       0.001       32.256   0.100E-07
     TRS4 it   4 1.00000000   0.209E+00       0.001       32.256   0.100E-07
     TRS4 it   5 1.00000000   0.654E-01       0.001       32.256   0.100E-07
     TRS4 it   6 1.00000000   0.807E-02       0.001       32.256   0.100E-07
     TRS4 it   7 1.00000000   0.164E-03       0.001       32.256   0.100E-07
     TRS4 it   8 1.00000000   0.939E-07       0.001       32.256   0.100E-07
     TRS4 it   9 1.00000000   0.382E-13       0.001       32.256   0.100E-07
     Final TRS4 iteration    9 1.00000000   0.382E-13
     Chemical potential (mu):       0.01317
 
 PAO| energy:  -7.7997782498350778      penalty:   1.1736164153919779E-005
 PAO|LS| Need extra step
 PAO|LS| adapt:  T T F
 PAO|LS| adapt: scan_steps:    0.0000000000000000        1.0062505789864211        0.0000000000000000     
 PAO|LS| adapt: energies:   -7.7997610989322732       -7.7997782498350778        0.0000000000000000     
 PAO| ======================= Iteration:        32 =============================

     Lanczos converged:  T threshold:   0.100E-02
     Est. extremal eigenvalues:    0.276E+01   0.183E+00
     Est. condition number :    0.151E+02
     NS sqrt iter    1 1.00000000   0.704E+00       0.002       40.312
     NS sqrt iter    2 1.00000000   0.328E+00       0.002       63.951
     NS sqrt iter    3 1.00000000   0.741E-01       0.002       62.972
     NS sqrt iter    4 1.00000000   0.174E-02       0.002       63.861
     NS sqrt iter    5 1.00000000   0.465E-07       0.002       44.254
     Final NS sqrt iter    5 1.00000000   0.350E-09

     Est. extremal eigenvalues     -0.93699     1.68111  converged:  T
     TRS4 it   1 1.00000000   0.866E+00       0.001       16.128   0.100E-07
     TRS4 it   2 1.00000000   0.611E+00       0.001       32.256   0.100E-07
     TRS4 it   3 1.00000000   0.415E+00       0.001       32.256   0.100E-07
     TRS4 it   4 1.00000000   0.208E+00       0.001       32.256   0.100E-07
     TRS4 it   5 1.00000000   0.650E-01       0.001       32.256   0.100E-07
     TRS4 it   6 1.00000000   0.798E-02       0.001       32.256   0.100E-07
     TRS4 it   7 1.00000000   0.160E-03       0.001       32.256   0.100E-07
     TRS4 it   8 1.00000000   0.887E-07       0.001       32.256   0.100E-07
     TRS4 it   9 1.00000000   0.340E-13       0.001       32.256   0.100E-07
     Final TRS4 iteration    9 1.00000000   0.340E-13
     Chemical potential (mu):       0.01375
 
 PAO| energy:  -7.7997637140358798      penalty:   1.0162630156477797E-005
 PAO|LS| Need extra step
 PAO|LS| adapt:  T T T
 PAO|LS| adapt: scan_steps:    0.0000000000000000        1.0062505789864211        2.0125011579728422     
 PAO|LS| adapt: energies:   -7.7997610989322732       -7.7997782498350778       -7.7997637140358798     
 PAO|LS| adapt: suggested step_size:    1.0477735105615791     
 PAO|LS| adapt: predicted energy  -7.7997782768131412     
 PAO| ======================= Iteration:        33 =============================

     Lanczos converged:  T threshold:   0.100E-02
     Est. extremal eigenvalues:    0.276E+01   0.183E+00
     Est. condition number :    0.151E+02
     NS sqrt iter    1 1.00000000   0.704E+00       0.002       41.270
     NS sqrt iter    2 1.00000000   0.329E+00       0.002       64.240
     NS sqrt iter    3 1.00000000   0.744E-01       0.002       64.630
     NS sqrt iter    4 1.00000000   0.175E-02       0.002       63.717
     NS sqrt iter    5 1.00000000   0.467E-07       0.002       44.302
     Final NS sqrt iter    5 1.00000000   0.350E-09

     Est. extremal eigenvalues     -0.93698     1.68149  converged:  T
     TRS4 it   1 1.00000000   0.866E+00       0.001       16.128   0.100E-07
     TRS4 it   2 1.00000000   0.611E+00       0.001       32.256   0.100E-07
     TRS4 it   3 1.00000000   0.416E+00       0.001       32.256   0.100E-07
     TRS4 it   4 1.00000000   0.209E+00       0.001       32.256   0.100E-07
     TRS4 it   5 1.00000000   0.653E-01       0.001       32.256   0.100E-07
     TRS4 it   6 1.00000000   0.807E-02       0.001       32.256   0.100E-07
     TRS4 it   7 1.00000000   0.163E-03       0.001       32.256   0.100E-07
[...]
     NS sqrt iter    2 1.00000000   0.278E+00       0.002       65.783
     NS sqrt iter    3 1.00000000   0.494E-01       0.002       65.967
     NS sqrt iter    4 1.00000000   0.803E-03       0.002       66.539
     NS sqrt iter    5 1.00000000   0.681E-08       0.001       27.719
     Final NS sqrt iter    5 1.00000000   0.399E-09

     Est. extremal eigenvalues     -0.93667     1.62993  converged:  T
     TRS4 it   1 1.00000000   0.877E+00       0.001       16.128   0.100E-07
     TRS4 it   2 1.00000000   0.632E+00       0.001       32.256   0.100E-07
     TRS4 it   3 1.00000000   0.455E+00       0.001       32.256   0.100E-07
     TRS4 it   4 1.00000000   0.278E+00       0.001       32.256   0.100E-07
     TRS4 it   5 1.00000000   0.137E+00       0.001       32.256   0.100E-07
     TRS4 it   6 1.00000000   0.430E-01       0.001       32.256   0.100E-07
     TRS4 it   7 1.00000000   0.588E-02       0.001       32.256   0.100E-07
     TRS4 it   8 1.00000000   0.147E-03       0.001       32.256   0.100E-07
     TRS4 it   9 1.00000000   0.968E-07       0.001       32.256   0.100E-07
     TRS4 it  10 1.00000000   0.423E-13       0.001       32.256   0.100E-07
     Final TRS4 iteration   10 1.00000000   0.423E-13
     Chemical potential (mu):      -0.07538
 
 PAO| energy:  -7.7991283787398240      penalty:   3.3492029400605277E-008
 PAO|LS| Need extra step
 PAO|LS| adapt:  T T T
 PAO|LS| adapt: scan_steps:    0.0000000000000000       0.20000000000000001       0.40000000000000002     
 PAO|LS| adapt: energies:   -7.7991283749750915       -7.7991283801055706       -7.7991283787398240     
 PAO|LS| adapt: suggested step_size:   0.25795261207804104     
 PAO|LS| adapt: predicted energy  -7.7991283803782911     
 PAO| ======================= Iteration:       412 =============================

     Lanczos converged:  T threshold:   0.100E-02
     Est. extremal eigenvalues:    0.252E+01   0.190E+00
     Est. condition number :    0.132E+02
     NS sqrt iter    1 1.00000000   0.638E+00       0.002       40.832
     NS sqrt iter    2 1.00000000   0.278E+00       0.002       64.450
     NS sqrt iter    3 1.00000000   0.494E-01       0.002       64.006
     NS sqrt iter    4 1.00000000   0.803E-03       0.002       63.979
     NS sqrt iter    5 1.00000000   0.681E-08       0.001       27.155
     Final NS sqrt iter    5 1.00000000   0.399E-09

     Est. extremal eigenvalues     -0.93667     1.62993  converged:  T
     TRS4 it   1 1.00000000   0.877E+00       0.001       16.128   0.100E-07
     TRS4 it   2 1.00000000   0.632E+00       0.001       22.970   0.100E-07
     TRS4 it   3 1.00000000   0.455E+00       0.001       31.930   0.100E-07
     TRS4 it   4 1.00000000   0.278E+00       0.001       32.217   0.100E-07
     TRS4 it   5 1.00000000   0.137E+00       0.001       32.141   0.100E-07
     TRS4 it   6 1.00000000   0.430E-01       0.001       31.638   0.100E-07
     TRS4 it   7 1.00000000   0.588E-02       0.001       31.991   0.100E-07
     TRS4 it   8 1.00000000   0.147E-03       0.001       32.256   0.100E-07
     TRS4 it   9 1.00000000   0.968E-07       0.001       31.602   0.100E-07
     TRS4 it  10 1.00000000   0.423E-13       0.001       30.824   0.100E-07
     Final TRS4 iteration   10 1.00000000   0.423E-13
     Chemical potential (mu):      -0.07538
 
 PAO| energy:  -7.7991283803782991      penalty:   3.3879644839644823E-008
 PAO|CG| warming up with steepest descent
 PAO|CG| beta:    0.0000000000000000     
 PAO| norm of gradient:   1.3140801473350195E-004
 PAO| energy improvement:  -5.4032076590715405E-009
 PAO| step    412                   -7.799128380  0.821E-05  0.258E+00     0.111
 PAO| converged after          412  steps :-)
 PAO| Recalculating energy after mixing.

     Lanczos converged:  T threshold:   0.100E-02
     Est. extremal eigenvalues:    0.252E+01   0.190E+00
     Est. condition number :    0.132E+02
     NS sqrt iter    1 1.00000000   0.638E+00       0.002       37.579
     NS sqrt iter    2 1.00000000   0.278E+00       0.002       60.722
     NS sqrt iter    3 1.00000000   0.494E-01       0.002       61.995
     NS sqrt iter    4 1.00000000   0.803E-03       0.002       61.787
     NS sqrt iter    5 1.00000000   0.681E-08       0.001       26.473
     Final NS sqrt iter    5 1.00000000   0.399E-09

     Est. extremal eigenvalues     -0.93667     1.62993  converged:  T
     TRS4 it   1 1.00000000   0.877E+00       0.001       16.128   0.100E-07
     TRS4 it   2 1.00000000   0.632E+00       0.001       30.908   0.100E-07
     TRS4 it   3 1.00000000   0.455E+00       0.001       31.699   0.100E-07
     TRS4 it   4 1.00000000   0.278E+00       0.001       31.175   0.100E-07
     TRS4 it   5 1.00000000   0.137E+00       0.001       30.887   0.100E-07
     TRS4 it   6 1.00000000   0.430E-01       0.001       31.282   0.100E-07
     TRS4 it   7 1.00000000   0.588E-02       0.001       31.282   0.100E-07
     TRS4 it   8 1.00000000   0.147E-03       0.001       30.777   0.100E-07
     TRS4 it   9 1.00000000   0.968E-07       0.001       31.319   0.100E-07
     TRS4 it  10 1.00000000   0.422E-13       0.001       31.894   0.100E-07
     Final TRS4 iteration   10 1.00000000   0.422E-13
     Chemical potential (mu):      -0.07538
 
 PAO| energy:  -7.7991283790274890      penalty:   3.4233518753285054E-008
 PAO| Writing restart file.
     Est. extremal eigenvalues     -0.93667     1.62993  converged:  T
     TRS4 it   1 1.00000000   0.877E+00       0.001       16.128   0.100E-07
     TRS4 it   2 1.00000000   0.632E+00       0.001       31.917   0.100E-07
     TRS4 it   3 1.00000000   0.455E+00       0.001       31.673   0.100E-07
     TRS4 it   4 1.00000000   0.278E+00       0.001       32.256   0.100E-07
     TRS4 it   5 1.00000000   0.137E+00       0.001       32.256   0.100E-07
     TRS4 it   6 1.00000000   0.430E-01       0.001       32.256   0.100E-07
     TRS4 it   7 1.00000000   0.588E-02       0.001       32.256   0.100E-07
     TRS4 it   8 1.00000000   0.147E-03       0.001       32.256   0.100E-07
     TRS4 it   9 1.00000000   0.968E-07       0.001       32.256   0.100E-07
     TRS4 it  10 1.00000000   0.422E-13       0.001       32.256   0.100E-07
     Final TRS4 iteration   10 1.00000000   0.422E-13
     Chemical potential (mu):      -0.07538

 SCF     1       -34.449944602       -34.449944602    2.327666

*********************************************************
 Using MIXING_FRACTION=0.450 to mix KS matrix:  iscf=  2
 KS_nw=0.450*KS + 0.550*KS_old
*********************************************************
     Est. extremal eigenvalues     -0.93668     1.62993  converged:  T
     TRS4 it   1 1.00000000   0.877E+00       0.001       16.128   0.100E-07
     TRS4 it   2 1.00000000   0.632E+00       0.001       32.256   0.100E-07
     TRS4 it   3 1.00000000   0.455E+00       0.001       32.256   0.100E-07
     TRS4 it   4 1.00000000   0.278E+00       0.001       32.256   0.100E-07
     TRS4 it   5 1.00000000   0.137E+00       0.001       32.256   0.100E-07
     TRS4 it   6 1.00000000   0.430E-01       0.001       32.256   0.100E-07
     TRS4 it   7 1.00000000   0.588E-02       0.001       32.256   0.100E-07
     TRS4 it   8 1.00000000   0.147E-03       0.001       31.313   0.100E-07
     TRS4 it   9 1.00000000   0.968E-07       0.001       32.256   0.100E-07
     TRS4 it  10 1.00000000   0.429E-13       0.001       32.256   0.100E-07
     Final TRS4 iteration   10 1.00000000   0.429E-13
     Chemical potential (mu):      -0.07538

 SCF     2       -34.449944603        -0.000000000    2.448857

 PAO| Storing density matrix for ASPC guess in slot:           1

 ENERGY| Total FORCE_EVAL ( QS ) energy (a.u.):              -34.449944602582889


 -------------------------------------------------------------------------------
 -                                                                             -
 -                                DBCSR STATISTICS                             -
 -                                                                             -
 -------------------------------------------------------------------------------
 COUNTER                                    TOTAL       BLAS       SMM       ACC
 flops     5 x     5 x     4                20000     100.0%      0.0%      0.0%
 flops    13 x     5 x     4                20800     100.0%      0.0%      0.0%
 flops     5 x    13 x     4                20800     100.0%      0.0%      0.0%
 flops    13 x    13 x     4                40560     100.0%      0.0%      0.0%
 flops     4 x     4 x     5              3237120     100.0%      0.0%      0.0%
 flops     5 x     4 x     5              3955200     100.0%      0.0%      0.0%
 flops     4 x     4 x    13              4208256     100.0%      0.0%      0.0%
 flops    13 x     4 x     5              5141760     100.0%      0.0%      0.0%
 flops     5 x     4 x    13              5141760     100.0%      0.0%      0.0%
 flops     5 x     4 x     4              6311680     100.0%      0.0%      0.0%
 flops    13 x     4 x    13              6684288     100.0%      0.0%      0.0%
 flops    13 x     4 x     4              8391136     100.0%      0.0%      0.0%
 flops     4 x     4 x     4            417827328     100.0%      0.0%      0.0%
 flops inhomo. stacks                           0       0.0%      0.0%      0.0%
 flops total                       461.000688E+06     100.0%      0.0%      0.0%
 flops max/rank                    461.000688E+06     100.0%      0.0%      0.0%
 matmuls inhomo. stacks                         0       0.0%      0.0%      0.0%
 matmuls total                            3398949     100.0%      0.0%      0.0%
 number of processed stacks                 27102     100.0%      0.0%      0.0%
 average stack size                                   125.4       0.0       0.0
 marketing flops                   749.827200E+06
 -------------------------------------------------------------------------------
 # multiplications                          22647
 max memory usage/rank             328.314880E+06
 # max total images/rank                        1
 # max 3D layers                                1
 # MPI messages exchanged                       0
 MPI messages size (bytes):
  total size                         0.000000E+00
  min size                           0.000000E+00
  max size                           0.000000E+00
  average size                       0.000000E+00
 MPI breakdown and total messages size (bytes):
             size <=      128                   0                        0
       128 < size <=     8192                   0                        0
      8192 < size <=    32768                   0                        0
     32768 < size <=   131072                   0                        0
    131072 < size <=  4194304                   0                        0
   4194304 < size <= 16777216                   0                        0
  16777216 < size                               0                        0
 -------------------------------------------------------------------------------

 MEMORY| Estimated peak process memory [MiB]                                 314

 -------------------------------------------------------------------------------
 -                                                                             -
 -                           R E F E R E N C E S                               -
 -                                                                             -
 -------------------------------------------------------------------------------
 
 CP2K version 7.0 (Development Version), the CP2K developers group (2018).
 CP2K is freely available from https://www.cp2k.org/ .

 Schuett, O; VandeVondele, J. 
 Journal of Chemical Theory and Computation, 14, (2018). 
 Machine Learning Adaptive Basis Sets for Efficient Large Scale Density Functional Theory Simulation.
 https://dx.doi.org/10.1021/acs.jctc.8b00378


 Schuett, Ole; Messmer, Peter; Hutter, Juerg; VandeVondele, Joost. 
 Electronic Structure Calculations on Graphics Processing Units, John Wiley & Sons, Ltd, 173-190 (2016). 
 GPU-Accelerated Sparse Matrix-Matrix Multiplication for Linear Scaling Density Functional Theory.
 https://dx.doi.org/10.1002/9781118670712.ch8


 Borstnik, U; VandeVondele, J; Weber, V; Hutter, J. 
 PARALLEL COMPUTING, 40 (5-6), 47-58 (2014). 
 Sparse matrix multiplication: The distributed block-compressed sparse
 row library.
 https://dx.doi.org/10.1016/j.parco.2014.03.012


 Hutter, J; Iannuzzi, M; Schiffmann, F; VandeVondele, J. 
 WILEY INTERDISCIPLINARY REVIEWS-COMPUTATIONAL MOLECULAR SCIENCE, 4 (1), 15-25 (2014). 
 CP2K: atomistic simulations of condensed matter systems.
 https://dx.doi.org/10.1002/wcms.1159


 VandeVondele, J; Borstnik, U; Hutter, J. 
 JOURNAL OF CHEMICAL THEORY AND COMPUTATION, 8 (10), 3565-3573 (2012). 
 Linear Scaling Self-Consistent Field Calculations with Millions of Atoms
 in the Condensed Phase.
 https://dx.doi.org/10.1021/ct200897x


 VandeVondele, J; Hutter, J. 
 JOURNAL OF CHEMICAL PHYSICS, 127 (11), 114105 (2007). 
 Gaussian basis sets for accurate calculations on molecular systems in
 gas and condensed phases.
 https://dx.doi.org/10.1063/1.2770708


 Krack, M. 
 THEORETICAL CHEMISTRY ACCOUNTS, 114 (1-3), 145-152 (2005). 
 Pseudopotentials for H to Kr optimized for gradient-corrected
 exchange-correlation functionals.
 https://dx.doi.org/10.1007/s00214-005-0655-y


 VandeVondele, J; Krack, M; Mohamed, F; Parrinello, M; Chassaing, T;
 Hutter, J. COMPUTER PHYSICS COMMUNICATIONS, 167 (2), 103-128 (2005). 
 QUICKSTEP: Fast and accurate density functional calculations using a
 mixed Gaussian and plane waves approach.
 https://dx.doi.org/10.1016/j.cpc.2004.12.014


 Frigo, M; Johnson, SG. 
 PROCEEDINGS OF THE IEEE, 93 (2), 216-231 (2005). 
 The design and implementation of FFTW3.
 https://dx.doi.org/10.1109/JPROC.2004.840301


 Niklasson, AMN; Tymczak, CJ; Challacombe, M. 
 JOURNAL OF CHEMICAL PHYSICS, 118 (19), 8611-8620 (2003). 
 Trace resetting density matrix purification in O(N)
 self-consistent-field theory.
 https://dx.doi.org/10.1063/1.1559913


 Hartwigsen, C; Goedecker, S; Hutter, J. 
 PHYSICAL REVIEW B, 58 (7), 3641-3662 (1998). 
 Relativistic separable dual-space Gaussian pseudopotentials from H to Rn.
 https://dx.doi.org/10.1103/PhysRevB.58.3641


 Lippert, G; Hutter, J; Parrinello, M. 
 MOLECULAR PHYSICS, 92 (3), 477-487 (1997). 
 A hybrid Gaussian and plane wave density functional scheme.
 https://dx.doi.org/10.1080/002689797170220


 Perdew, JP; Burke, K; Ernzerhof, M. 
 PHYSICAL REVIEW LETTERS, 77 (18), 3865-3868 (1996). 
 Generalized gradient approximation made simple.
 https://dx.doi.org/10.1103/PhysRevLett.77.3865


 Goedecker, S; Teter, M; Hutter, J. 
 PHYSICAL REVIEW B, 54 (3), 1703-1710 (1996). 
 Separable dual-space Gaussian pseudopotentials.
 https://dx.doi.org/10.1103/PhysRevB.54.1703


 -------------------------------------------------------------------------------
 -                                                                             -
 -                                T I M I N G                                  -
 -                                                                             -
 -------------------------------------------------------------------------------
 SUBROUTINE                       CALLS  ASD         SELF TIME        TOTAL TIME
                                MAXIMUM       AVERAGE  MAXIMUM  AVERAGE  MAXIMUM
 CP2K                                 1  1.0    0.033    0.033   33.925   33.925
 qs_energies                          1  2.0    0.000    0.000   33.388   33.388
 ls_scf                               1  3.0    0.000    0.000   33.250   33.250
 ls_scf_main                          4  4.0    0.001    0.001   20.933   20.933
 ls_scf_dm_to_ks                      9  5.0    0.000    0.000   20.808   20.808
 qs_ks_update_qs_env                 10  6.0    0.000    0.000   16.255   16.255
 rebuild_ks_matrix                   10  7.0    0.000    0.000   16.255   16.255
 qs_ks_build_kohn_sham_matrix        10  8.0    0.002    0.002   16.255   16.255
 pao_update                           4  4.0    0.010    0.010    9.899    9.899
 qs_vxc_create                       10  9.0    0.000    0.000    9.789    9.789
 xc_vxc_pw_create                    10 10.0    0.126    0.126    9.789    9.789
 pao_calc_energy                    415  5.0    0.004    0.004    8.914    8.914
 dbcsr_multiply_generic           22647  8.4    0.480    0.480    7.688    7.688
 xc_rho_set_and_dset_create          10 11.0    0.043    0.043    7.040    7.040
 qs_rho_update_rho                   10  6.0    0.000    0.000    6.894    6.894
 calculate_rho_elec                  10  7.0    5.487    5.487    6.894    6.894
 pw_transfer                        191 10.6    0.014    0.014    6.774    6.774
 fft_wrap_pw1pw2                    171 11.7    0.002    0.002    6.682    6.682
 fft_wrap_pw1pw2_200                111 12.8    0.343    0.343    6.384    6.384
 sum_up_and_integrate                10  9.0    0.021    0.021    5.533    5.533
 integrate_v_rspace                  10 10.0    4.704    4.704    5.512    5.512
 xc_functional_eval                  10 12.0    0.000    0.000    4.906    4.906
 pbe_lda_eval                        10 13.0    4.906    4.906    4.906    4.906
 pao_dm_trs4                        415  6.0    0.003    0.003    4.624    4.624
 density_matrix_trs4                424  7.0    0.173    0.173    4.484    4.484
 ls_scf_init_matrix_S               419  7.0    0.004    0.004    4.293    4.293
 pao_rebuild_S                      415  6.0    0.003    0.003    4.249    4.249
 matrix_sqrt_Newton_Schulz          419  8.0    0.106    0.106    3.874    3.874
 fft3d_s                            172 13.6    3.632    3.632    3.648    3.648
 multiply_cannon                  22647  9.4    1.253    1.253    3.609    3.609
 make_m2s                         45294  9.4    0.180    0.180    2.434    2.434
 pao_guess_initial_P                  1  4.0    0.000    0.000    2.348    2.348
 pao_read_preopt_dm                   1  5.0    0.000    0.000    2.348    2.348
 make_images                      45294 10.4    0.585    0.585    2.143    2.143
 pw_gather_s                         81 13.1    1.561    1.561    1.561    1.561
 density_rs2pw                       10  8.0    0.001    0.001    1.390    1.390
 multiply_cannon_multrec          22647 10.4    1.247    1.247    1.364    1.364
 pw_scatter_s                        90 14.2    1.114    1.114    1.114    1.114
 arnoldi_extremal                   843  8.5    0.004    0.004    1.055    1.055
 arnoldi_normal_ev                  843  9.5    0.013    0.013    1.051    1.051
 pao_calc_AB                        547  5.8    0.001    0.001    0.964    0.964
 pao_calc_AB_direct                 547  6.8    0.026    0.026    0.963    0.963
 pao_calc_grad_lnv_wrt_AB           131  7.0    0.008    0.008    0.910    0.910
 potential_pw2rs                     10 11.0    0.003    0.003    0.807    0.807
 build_subspace                     843 10.5    0.057    0.057    0.788    0.788
 dbcsr_finalize                   53913  9.6    0.120    0.120    0.715    0.715
 dbcsr_matrix_vector_mult         20193 11.5    0.112    0.112    0.707    0.707
 -------------------------------------------------------------------------------

 The number of warnings for this run is : 0
 
 -------------------------------------------------------------------------------
  **** **** ******  **  PROGRAM ENDED AT                 2019-03-28 17:32:55.674
 ***** ** ***  *** **   PROGRAM RAN ON            oleschuett.zrh.corp.google.com
 **    ****   ******    PROGRAM RAN BY                                oleschuett
 ***** **    ** ** **   PROGRAM PROCESS ID                                 30944
  **** **  *******  **  PROGRAM STOPPED IN /usr/local/google/home/oleschuett/git
                                           /pao_ml_equivar/2H2O_rotations/phi_17
