 DBCSR| CPU Multiplication driver                                           XSMM (U)
 DBCSR| Multrec recursion limit                                              512 (U)
 DBCSR| Multiplication stack size                                           1000 (D)
 DBCSR| Maximum elements for images                                    UNLIMITED (U)
 DBCSR| Multiplicative factor virtual images                                   1 (U)
 DBCSR| Use multiplication densification                                       T (D)
 DBCSR| Multiplication size stacks                                             3 (U)
 DBCSR| Use memory pool for CPU allocation                                     F (U)
 DBCSR| OMP: Current number of threads                                         1
 DBCSR| OMP: Max number of threads                                             1
 DBCSR| Split modifier for TAS multiplication algorithm                  1.0E+00 (U)


  **** **** ******  **  PROGRAM STARTED AT               2023-02-01 10:45:19.662
 ***** ** ***  *** **   PROGRAM STARTED ON                                moritz
 **    ****   ******    PROGRAM STARTED BY                                   ole
 ***** **    ** ** **   PROGRAM PROCESS ID                                148586
  **** **  *******  **  PROGRAM STARTED IN /home/ole/git/pao_ml_equivar/2H2O_rot
                                           ations/phi_17

 CP2K| version string:                 CP2K version 2023.1 (Development Version)
 CP2K| source code revision number:                                  git:03b4147
 CP2K| cp2kflags: omp libint fftw3 libxc quip xsmm spglib libvori libbqb libtorc
 CP2K|            h
 CP2K| is freely available from                            https://www.cp2k.org/
 CP2K| Program compiled at                           Mi 01 Feb 2023 10:36:52 CET
 CP2K| Program compiled on                                                moritz
 CP2K| Program compiled for                                                local
 CP2K| Data directory path                               /home/ole/git/cp2k/data
 CP2K| Input file name                                            2H2O_pao44.inp

 GLOBAL| Force Environment number                                              1
 GLOBAL| Basis set file name                                        BASIS_MOLOPT
 GLOBAL| Potential file name                                      GTH_POTENTIALS
 GLOBAL| MM Potential file name                                     MM_POTENTIAL
 GLOBAL| Coordinate file name                                         coords.xyz
 GLOBAL| Method name                                                        CP2K
 GLOBAL| Project name                                                 2H2O_pao44
 GLOBAL| Run type                                                         ENERGY
 GLOBAL| FFT library                                                       FFTW3
 GLOBAL| Diagonalization library                                       ScaLAPACK
 GLOBAL| DGEMM library                                                      BLAS
 GLOBAL| Orthonormality check for eigenvectors                          DISABLED
 GLOBAL| Matrix multiplication library                                 ScaLAPACK
 GLOBAL| All-to-all communication in single precision                          F
 GLOBAL| FFTs using library dependent lengths                                  F
 GLOBAL| Grid backend                                                       AUTO
 GLOBAL| Global print level                                                  LOW
 GLOBAL| MPI I/O enabled                                                       T
 GLOBAL| Total number of message passing processes                             1
 GLOBAL| Number of threads for this process                                    1
 GLOBAL| This output is from process                                           0
 GLOBAL| Stack size for threads created by OpenMP (OMP_STACKSIZE)        default
 GLOBAL| CPU model name           AMD Ryzen Threadripper 3970X 32-Core Processor
 GLOBAL| CPUID                                                              1002
 GLOBAL| Compiled for CPUID                                                    0

 *** HINT in environment.F:884 :: The compiler target flags (generic) used ***
 *** to build this binary cannot exploit all extensions of this CPU model  ***
 *** (x86_avx2). Consider compiler target flags as part of FCFLAGS and     ***
 *** CFLAGS (ARCH file).                                                   ***


 MEMORY| system memory details [Kb]
 MEMORY|                        rank 0           min           max       average
 MEMORY| MemTotal            131773860     131773860     131773860     131773860
 MEMORY| MemFree             118773432     118773432     118773432     118773432
 MEMORY| Buffers                301580        301580        301580        301580
 MEMORY| Cached                7018548       7018548       7018548       7018548
 MEMORY| Slab                   776140        776140        776140        776140
 MEMORY| SReclaimable           331304        331304        331304        331304
 MEMORY| MemLikelyFree       126424864     126424864     126424864     126424864


 GENERATE|  Preliminary Number of Bonds generated:                             0
 GENERATE|  Achieved consistency in connectivity generation.

 *******************************************************************************
 *******************************************************************************
 **                                                                           **
 **     #####                         ##              ##                      **
 **    ##   ##            ##          ##              ##                      **
 **   ##     ##                       ##            ######                    **
 **   ##     ##  ##   ##  ##   #####  ##  ##   ####   ##    #####    #####    **
 **   ##     ##  ##   ##  ##  ##      ## ##   ##      ##   ##   ##  ##   ##   **
 **   ##  ## ##  ##   ##  ##  ##      ####     ###    ##   ######   ######    **
 **    ##  ###   ##   ##  ##  ##      ## ##      ##   ##   ##       ##        **
 **     #######   #####   ##   #####  ##  ##  ####    ##    #####   ##        **
 **           ##                                                    ##        **
 **                                                                           **
 **                                                ... make the atoms dance   **
 **                                                                           **
 **            Copyright (C) by CP2K developers group (2000-2023)             **
 **                      J. Chem. Phys. 152, 194103 (2020)                    **
 **                                                                           **
 *******************************************************************************


 TOTAL NUMBERS AND MAXIMUM NUMBERS

  Total number of            - Atomic kinds:                                   2
                             - Atoms:                                          6
                             - Shell sets:                                     6
                             - Shells:                                        22
                             - Primitive Cartesian functions:                 42
                             - Cartesian basis functions:                     48
                             - Spherical basis functions:                     46

  Maximum angular momentum of- Orbital basis functions:                        2
                             - Local part of the GTH pseudopotential:          2
                             - Non-local part of the GTH pseudopotential:      0

 ------------------------------ Linear scaling SCF -----------------------------
 eps_scf:                                                              0.100E-07
 eps_filter:                                                           0.100E-07
 mixing_fraction:                                                      0.450E+00
 max_scf:                                                                     25
 fixed chemical potential (mu)                                                 F
 has unit metric:                                                              F
 Computing inv(S):                                                             T
 Computing sqrt(S):                                                            T
 Computing S preconditioner                                                    F
 S sqrt method:                                                     NEWTONSCHULZ
 S sqrt order:                                                                 3
 Extrapolation order:                                                          1
 Use single precision matrices                                                 F
 S preconditioner type                                                      NONE
 Polarized Atomic Orbitals (PAO)                                               T
 Purification method                                   Trace resetting 4th order
 Cluster type                                                             ATOMIC
 Computing Chebyshev                                                       FALSE
 Using PAO                                                                     T
 -------------------------------------------------------------------------------

 
 PAO|                                  EPS_PAO                           0.1E-04
 PAO|                                  MIXING                            0.5E+00
 PAO|                                  MAX_PAO                              1000
 PAO|                                  MAX_CYCLES                           1000
 PAO|                                  PARAMETERIZATION              EQUIVARIANT
 PAO|                                  PRECONDITION                            F
 PAO|                                  REGULARIZATION                    0.0E+00
 PAO|                                  EPS_PGF                           0.1E-09
 PAO|                                  PENALTY_DISTANCE                  0.1E+00
 PAO|                                  PENALTY_STRENGTH                  0.5E-02
 PAO|                                  LINPOT_PRECONDITION_DELTA         0.0E+00
 PAO|                                  LINPOT_INITGUESS_DELT             0.0E+00
 PAO|                                  LINPOT_REGULARIZATION_DELTA       0.0E+00
 PAO|                                  LINPOT_REGULARIZATION_STRENGTH    0.0E+00
 PAO|                                  OPTIMIZER                              CG
 PAO|                                  CG_INIT_STEPS                           2
 PAO|                                  CG_RESET_LIMIT                    0.1E+00
 PAO|                                  CHECK_UNITARY_TOL                -0.1E+01
 PAO|                                  CHECK_GRADIENT_TOL               -0.1E+01
 PAO|                                  NUM_GRADIENT_ORDER                      2
 PAO|                                  NUM_GRADIENT_EPS                  0.1E-07
 PAO|                                  PRINT%RESTART%WRITE_CYCLES            100
 PAO|                                  RESTART_FILE 
 PAO|                                  PREOPT_DM_FILE 2H2O_ref_LS_DM_SPIN_1_RESTART.dm
 PAO|                                  MACHINE_LEARNING%METHOD       GAUSSIAN_PR
 PAO|                                  MACHINE_LEARNING%PRIOR               ZERO
 PAO|                                  MACHINE_LEARNING%DESCRIPTOR     POTENTIAL
 PAO|                                  MACHINE_LEARNING%TOLERANCE        0.1E-01
 PAO|                                  MACHINE_LEARNING%GP_NOISE_VAR     0.1E+00
 PAO|                                  MACHINE_LEARNING%GP_SCALE         0.5E-01
 

 Calculating atomic Fock matrix for atomic kind: O

 Electronic structure
    Total number of core electrons                                          2.00
    Total number of valence electrons                                       6.00
    Total number of electrons                                               8.00
    Multiplicity                                                   not specified
    S   [  2.00] 2.00
    P      4.00


 *******************************************************************************
                  Iteration          Convergence                     Energy [au]
 *******************************************************************************
                          1        0.708315                     -15.576645311500
                          2        0.608879                     -15.587933561584
                          3        0.102828E-01                 -15.656849565404
                          4        0.113889E-02                 -15.656866888140
                          5        0.434197E-03                 -15.656867072159
                          6        0.263771E-03                 -15.656867091904
                          7        0.478536E-06                 -15.656867103452

 Energy components [Hartree]           Total Energy ::          -15.656867103452
                                        Band Energy ::           -3.000198112285
                                     Kinetic Energy ::           11.759971203220
                                   Potential Energy ::          -27.416838306672
                                      Virial (-V/T) ::            2.331369510426
                                        Core Energy ::          -26.140716385623
                                          XC Energy ::           -3.154051012914
                                     Coulomb Energy ::           13.637900295084
                       Total Pseudopotential Energy ::          -37.935781716540
                       Local Pseudopotential Energy ::          -39.218907440693
                    Nonlocal Pseudopotential Energy ::            1.283125724153
                                        Confinement ::            0.350941276976

 Orbital energies  State     L     Occupation   Energy[a.u.]          Energy[eV]

                       1     0          2.000      -0.864471          -23.523463

                       1     1          4.000      -0.317814           -8.648154


 Total Electron Density at R=0:                                         0.000068

 Calculating atomic Fock matrix for atomic kind: H

 Electronic structure
    Total number of core electrons                                          0.00
    Total number of valence electrons                                       1.00
    Total number of electrons                                               1.00
    Multiplicity                                                   not specified
    S      1.00


 *******************************************************************************
                  Iteration          Convergence                     Energy [au]
 *******************************************************************************
                          1        0.437545E-02                  -0.424159432110
                          2        0.531356E-03                  -0.424178438213
                          3        0.259176E-06                  -0.424178722480

 Energy components [Hartree]           Total Energy ::           -0.424178722480
                                        Band Energy ::           -0.199015229016
                                     Kinetic Energy ::            0.464007633961
                                   Potential Energy ::           -0.888186356441
                                      Virial (-V/T) ::            1.914163240935
                                        Core Energy ::           -0.479160803564
                                          XC Energy ::           -0.244352904054
                                     Coulomb Energy ::            0.299334985138
                       Total Pseudopotential Energy ::           -0.962295316385
                       Local Pseudopotential Energy ::           -0.962295316385
                    Nonlocal Pseudopotential Energy ::            0.000000000000
                                        Confinement ::            0.191268788606

 Orbital energies  State     L     Occupation   Energy[a.u.]          Energy[eV]

                       1     0          1.000      -0.199015           -5.415480


 Total Electron Density at R=0:                                         0.242907
 PAO| Made initial guess for matrix_X with norm:   4.8989794855663558     

     Lanczos converged:  T threshold:   0.100E-02
     Est. extremal eigenvalues:    0.336E+01   0.114E+00
     Est. condition number :    0.294E+02

 Order=           3
     NS sqrt iter    1 1.00000000   0.820E+00       0.001       64.512
     NS sqrt iter    2 1.00000000   0.440E+00       0.001      110.592
     NS sqrt iter    3 1.00000000   0.170E+00       0.001      110.592
     NS sqrt iter    4 1.00000000   0.206E-01       0.001      110.592
     NS sqrt iter    5 1.00000000   0.533E-04       0.001       91.392
     Symmetrizing Results
     Final NS sqrt iter    5 1.00000000   0.423E-08

 PAO| Read restart DM 2H2O_ref_LS_DM_SPIN_1_RESTART.dm with checksum:    73.461307867352843     
 PAO| Quickstep energy from restart density:  -34.450487882489213     
 PAO| ======================= Iteration:         1 =============================

     Lanczos converged:  T threshold:   0.100E-02
     Est. extremal eigenvalues:    0.336E+01   0.114E+00
     Est. condition number :    0.294E+02

 Order=           3
     NS sqrt iter    1 1.00000000   0.820E+00       0.001       64.512
     NS sqrt iter    2 1.00000000   0.440E+00       0.001      110.592
     NS sqrt iter    3 1.00000000   0.170E+00       0.001      110.592
     NS sqrt iter    4 1.00000000   0.206E-01       0.001      110.592
     NS sqrt iter    5 1.00000000   0.533E-04       0.001       91.392
     Symmetrizing Results
     Final NS sqrt iter    5 1.00000000   0.423E-08

     Est. extremal eigenvalues     -0.91978     1.88523  converged:  T
     TRS4 it   1 1.00000000   0.882E+00       0.000       16.128   0.100E-07
     TRS4 it   2 1.00000000   0.691E+00       0.000       32.256   0.100E-07
     TRS4 it   3 1.00000000   0.499E+00       0.000       32.256   0.100E-07
     TRS4 it   4 1.00000000   0.312E+00       0.000       32.256   0.100E-07
     TRS4 it   5 1.00000000   0.155E+00       0.000       32.256   0.100E-07
     TRS4 it   6 1.00000000   0.485E-01       0.000       32.256   0.100E-07
     TRS4 it   7 1.00000000   0.667E-02       0.000       32.256   0.100E-07
     TRS4 it   8 1.00000000   0.177E-03       0.000       32.256   0.100E-07
     TRS4 it   9 1.00000000   0.139E-06       0.000       32.256   0.100E-07
     TRS4 it  10 1.00000000   0.875E-13       0.000       32.256   0.100E-07
     Final TRS4 iteration   10 1.00000000   0.875E-13
     Chemical potential (mu):      -0.06518
 
 PAO| energy:  -7.6216966309013872      penalty:   1.9721522630525296E-033
 PAO|CG| warming up with steepest descent
 PAO|CG| beta:    0.0000000000000000     
 PAO| norm of gradient:  0.78337041890925407     
 PAO|LS| adapt:  T F F
 PAO|LS| adapt: scan_steps:    0.0000000000000000        0.0000000000000000        0.0000000000000000     
 PAO|LS| adapt: energies:   -7.6216966309013872        0.0000000000000000        0.0000000000000000     
 PAO| ======================= Iteration:         2 =============================

     Lanczos converged:  T threshold:   0.100E-02
     Est. extremal eigenvalues:    0.327E+01   0.127E+00
     Est. condition number :    0.257E+02

 Order=           3
     NS sqrt iter    1 1.00000000   0.804E+00       0.001       64.512
     NS sqrt iter    2 1.00000000   0.425E+00       0.001      110.592
     NS sqrt iter    3 1.00000000   0.153E+00       0.001      110.592
     NS sqrt iter    4 1.00000000   0.142E-01       0.001      110.592
     NS sqrt iter    5 1.00000000   0.169E-04       0.001       82.944
     Symmetrizing Results
     Final NS sqrt iter    5 1.00000000   0.431E-09

     Est. extremal eigenvalues     -0.92345     1.83049  converged:  T
     TRS4 it   1 1.00000000   0.879E+00       0.000       16.128   0.100E-07
     TRS4 it   2 1.00000000   0.673E+00       0.000       32.256   0.100E-07
     TRS4 it   3 1.00000000   0.483E+00       0.000       32.256   0.100E-07
     TRS4 it   4 1.00000000   0.292E+00       0.000       32.256   0.100E-07
     TRS4 it   5 1.00000000   0.135E+00       0.000       32.256   0.100E-07
     TRS4 it   6 1.00000000   0.372E-01       0.000       32.256   0.100E-07
     TRS4 it   7 1.00000000   0.399E-02       0.000       32.256   0.100E-07
     TRS4 it   8 1.00000000   0.638E-04       0.000       32.256   0.100E-07
     TRS4 it   9 1.00000000   0.181E-07       0.000       32.256   0.100E-07
     Final TRS4 iteration    9 1.00000000   0.181E-07
     Chemical potential (mu):      -0.05314
 
 PAO| energy:  -7.6771863168231160      penalty:   2.2476055192158996E-008
 PAO|LS| adapt:  T T F
 PAO|LS| adapt: scan_steps:    0.0000000000000000       0.10000000000000001        0.0000000000000000     
 PAO|LS| adapt: energies:   -7.6216966309013872       -7.6771863168231160        0.0000000000000000     
 PAO| ======================= Iteration:         3 =============================

     Lanczos converged:  T threshold:   0.100E-02
     Est. extremal eigenvalues:    0.318E+01   0.139E+00
     Est. condition number :    0.229E+02

 Order=           3
     NS sqrt iter    1 1.00000000   0.787E+00       0.001       64.512
     NS sqrt iter    2 1.00000000   0.408E+00       0.001      110.592
     NS sqrt iter    3 1.00000000   0.136E+00       0.001      110.592
     NS sqrt iter    4 1.00000000   0.978E-02       0.001      110.592
     NS sqrt iter    5 1.00000000   0.558E-05       0.001       82.944
     Symmetrizing Results
     Final NS sqrt iter    5 1.00000000   0.477E-10

     Est. extremal eigenvalues     -0.92687     1.78624  converged:  T
     TRS4 it   1 1.00000000   0.876E+00       0.000       16.128   0.100E-07
     TRS4 it   2 1.00000000   0.656E+00       0.000       32.256   0.100E-07
     TRS4 it   3 1.00000000   0.467E+00       0.000       32.256   0.100E-07
     TRS4 it   4 1.00000000   0.272E+00       0.000       32.256   0.100E-07
     TRS4 it   5 1.00000000   0.117E+00       0.000       32.256   0.100E-07
     TRS4 it   6 1.00000000   0.277E-01       0.000       32.256   0.100E-07
     TRS4 it   7 1.00000000   0.220E-02       0.000       32.256   0.100E-07
     TRS4 it   8 1.00000000   0.195E-04       0.000       32.256   0.100E-07
     TRS4 it   9 1.00000000   0.170E-08       0.000       32.256   0.100E-07
     Final TRS4 iteration    9 1.00000000   0.170E-08
     Chemical potential (mu):      -0.04013
 
 PAO| energy:  -7.7202614512056922      penalty:   3.5961675062468283E-007
 PAO|LS| adapt:  T T F
 PAO|LS| adapt: scan_steps:    0.0000000000000000       0.20000000000000001        0.0000000000000000     
 PAO|LS| adapt: energies:   -7.6216966309013872       -7.7202614512056922        0.0000000000000000     
 PAO| ======================= Iteration:         4 =============================

     Lanczos converged:  T threshold:   0.100E-02
     Est. extremal eigenvalues:    0.298E+01   0.157E+00
     Est. condition number :    0.190E+02

 Order=           3
     NS sqrt iter    1 1.00000000   0.750E+00       0.001       64.512
     NS sqrt iter    2 1.00000000   0.374E+00       0.001      110.592
     NS sqrt iter    3 1.00000000   0.106E+00       0.001      110.592
     NS sqrt iter    4 1.00000000   0.476E-02       0.001      110.592
     NS sqrt iter    5 1.00000000   0.791E-06       0.001       82.944
     Symmetrizing Results
     Final NS sqrt iter    5 1.00000000   0.105E-11

     Est. extremal eigenvalues     -0.93221     1.72169  converged:  T
     TRS4 it   1 1.00000000   0.871E+00       0.000       16.128   0.100E-07
     TRS4 it   2 1.00000000   0.629E+00       0.000       32.256   0.100E-07
     TRS4 it   3 1.00000000   0.438E+00       0.000       32.256   0.100E-07
     TRS4 it   4 1.00000000   0.235E+00       0.000       32.256   0.100E-07
     TRS4 it   5 1.00000000   0.851E-01       0.000       32.256   0.100E-07
     TRS4 it   6 1.00000000   0.142E-01       0.000       32.256   0.100E-07
     TRS4 it   7 1.00000000   0.551E-03       0.000       32.256   0.100E-07
     TRS4 it   8 1.00000000   0.119E-05       0.000       32.256   0.100E-07
     TRS4 it   9 1.00000000   0.630E-11       0.000       32.256   0.100E-07
     Final TRS4 iteration    9 1.00000000   0.630E-11
     Chemical potential (mu):      -0.01143
 
 PAO| energy:  -7.7675398295471147      penalty:   5.7538669504073761E-006
 PAO|LS| Need extra step
 PAO|LS| adapt:  T T F
 PAO|LS| adapt: scan_steps:    0.0000000000000000       0.40000000000000002        0.0000000000000000     
 PAO|LS| adapt: energies:   -7.6216966309013872       -7.7675398295471147        0.0000000000000000     
 PAO| ======================= Iteration:         5 =============================

     Lanczos converged:  T threshold:   0.100E-02
     Est. extremal eigenvalues:    0.263E+01   0.184E+00
     Est. condition number :    0.143E+02

 Order=           3
     NS sqrt iter    1 1.00000000   0.687E+00       0.001       64.512
     NS sqrt iter    2 1.00000000   0.313E+00       0.001      110.592
     NS sqrt iter    3 1.00000000   0.654E-01       0.001      110.592
     NS sqrt iter    4 1.00000000   0.131E-02       0.001      110.592
     NS sqrt iter    5 1.00000000   0.221E-07       0.001       55.936
     Symmetrizing Results
     Final NS sqrt iter    5 1.00000000   0.232E-08

     Est. extremal eigenvalues     -0.93347     1.64948  converged:  T
     TRS4 it   1 1.00000000   0.865E+00       0.000       16.128   0.100E-07
     TRS4 it   2 1.00000000   0.592E+00       0.000       32.256   0.100E-07
     TRS4 it   3 1.00000000   0.389E+00       0.000       32.256   0.100E-07
     TRS4 it   4 1.00000000   0.178E+00       0.000       32.256   0.100E-07
     TRS4 it   5 1.00000000   0.453E-01       0.000       32.256   0.100E-07
     TRS4 it   6 1.00000000   0.363E-02       0.000       32.256   0.100E-07
     TRS4 it   7 1.00000000   0.302E-04       0.000       32.256   0.100E-07
     TRS4 it   8 1.00000000   0.264E-08       0.000       32.256   0.100E-07
     Final TRS4 iteration    8 1.00000000   0.264E-08
     Chemical potential (mu):       0.03815
 
 PAO| energy:  -7.7128188092266745      penalty:   9.2061862729862239E-005
 PAO|LS| Need extra step
 PAO|LS| adapt:  T T T
 PAO|LS| adapt: scan_steps:    0.0000000000000000       0.40000000000000002       0.80000000000000004     
 PAO|LS| adapt: energies:   -7.6216966309013872       -7.7675398295471147       -7.7128188092266745     
 PAO|LS| adapt: suggested step_size:   0.49086583718171434     
 PAO|LS| adapt: predicted energy  -7.7727147626842079     
 PAO| ======================= Iteration:         6 =============================

     Lanczos converged:  T threshold:   0.100E-02
     Est. extremal eigenvalues:    0.290E+01   0.164E+00
     Est. condition number :    0.177E+02

 Order=           3
     NS sqrt iter    1 1.00000000   0.734E+00       0.001       64.512
     NS sqrt iter    2 1.00000000   0.359E+00       0.001      110.592
     NS sqrt iter    3 1.00000000   0.946E-01       0.001      110.592
     NS sqrt iter    4 1.00000000   0.349E-02       0.001      110.592
     NS sqrt iter    5 1.00000000   0.346E-06       0.001       82.432
     Symmetrizing Results
     Final NS sqrt iter    5 1.00000000   0.159E-09

     Est. extremal eigenvalues     -0.93370     1.70011  converged:  T
     TRS4 it   1 1.00000000   0.869E+00       0.000       16.128   0.100E-07
     TRS4 it   2 1.00000000   0.619E+00       0.000       32.256   0.100E-07
     TRS4 it   3 1.00000000   0.425E+00       0.000       32.256   0.100E-07
     TRS4 it   4 1.00000000   0.220E+00       0.000       32.256   0.100E-07
     TRS4 it   5 1.00000000   0.733E-01       0.000       32.256   0.100E-07
     TRS4 it   6 1.00000000   0.103E-01       0.000       32.256   0.100E-07
     TRS4 it   7 1.00000000   0.276E-03       0.000       32.256   0.100E-07
     TRS4 it   8 1.00000000   0.285E-06       0.000       32.256   0.100E-07
     TRS4 it   9 1.00000000   0.357E-12       0.000       32.256   0.100E-07
     Final TRS4 iteration    9 1.00000000   0.357E-12
     Chemical potential (mu):       0.00245
 
 PAO| energy:  -7.7719986379753667      penalty:   1.3048814739402342E-005
 PAO|CG| warming up with steepest descent
 PAO|CG| beta:    0.0000000000000000     
 PAO| norm of gradient:  0.41765005244069459     
 PAO| energy improvement: -0.15030200707397956     
 PAO| step      6                   -7.771998638  0.261E-01  0.491E+00     0.058
 PAO|LS| adapt:  T F F
 PAO|LS| adapt: scan_steps:    0.0000000000000000        0.0000000000000000        0.0000000000000000     
 PAO|LS| adapt: energies:   -7.7719986379753667        0.0000000000000000        0.0000000000000000     
 PAO| ======================= Iteration:         7 =============================

     Lanczos converged:  T threshold:   0.100E-02
     Est. extremal eigenvalues:    0.281E+01   0.178E+00
     Est. condition number :    0.158E+02

 Order=           3
     NS sqrt iter    1 1.00000000   0.716E+00       0.001       64.512
     NS sqrt iter    2 1.00000000   0.338E+00       0.001      110.592
     NS sqrt iter    3 1.00000000   0.791E-01       0.001      110.592
     NS sqrt iter    4 1.00000000   0.212E-02       0.001      110.592
     NS sqrt iter    5 1.00000000   0.866E-07       0.001       76.032
     Symmetrizing Results
     Final NS sqrt iter    5 1.00000000   0.910E-09

     Est. extremal eigenvalues     -0.93543     1.68762  converged:  T
     TRS4 it   1 1.00000000   0.868E+00       0.000       16.128   0.100E-07
     TRS4 it   2 1.00000000   0.617E+00       0.000       32.256   0.100E-07
     TRS4 it   3 1.00000000   0.425E+00       0.000       32.256   0.100E-07
     TRS4 it   4 1.00000000   0.221E+00       0.000       32.256   0.100E-07
     TRS4 it   5 1.00000000   0.739E-01       0.000       32.256   0.100E-07
     TRS4 it   6 1.00000000   0.102E-01       0.000       32.256   0.100E-07
     TRS4 it   7 1.00000000   0.256E-03       0.000       32.256   0.100E-07
     TRS4 it   8 1.00000000   0.232E-06       0.000       32.256   0.100E-07
     TRS4 it   9 1.00000000   0.234E-12       0.000       32.256   0.100E-07
     Final TRS4 iteration    9 1.00000000   0.234E-12
     Chemical potential (mu):       0.00465
 
 PAO| energy:  -7.7660863353991916      penalty:   1.9790299629251893E-005
 PAO|LS| adapt:  T F T
 PAO|LS| adapt: scan_steps:    0.0000000000000000        0.0000000000000000       0.49086583718171434     
 PAO|LS| adapt: energies:   -7.7719986379753667        0.0000000000000000       -7.7660863353991916     
 PAO| ======================= Iteration:         8 =============================

     Lanczos converged:  T threshold:   0.100E-02
     Est. extremal eigenvalues:    0.285E+01   0.171E+00
     Est. condition number :    0.167E+02

 Order=           3
     NS sqrt iter    1 1.00000000   0.725E+00       0.001       64.512
     NS sqrt iter    2 1.00000000   0.349E+00       0.001      110.592
     NS sqrt iter    3 1.00000000   0.867E-01       0.001      110.592
     NS sqrt iter    4 1.00000000   0.274E-02       0.001      110.592
     NS sqrt iter    5 1.00000000   0.176E-06       0.001       80.000
     Symmetrizing Results
     Final NS sqrt iter    5 1.00000000   0.824E-09

     Est. extremal eigenvalues     -0.93551     1.69321  converged:  T
     TRS4 it   1 1.00000000   0.868E+00       0.000       16.128   0.100E-07
     TRS4 it   2 1.00000000   0.617E+00       0.000       32.256   0.100E-07
     TRS4 it   3 1.00000000   0.424E+00       0.001       32.256   0.100E-07
     TRS4 it   4 1.00000000   0.220E+00       0.001       32.256   0.100E-07
     TRS4 it   5 1.00000000   0.734E-01       0.000       32.256   0.100E-07
     TRS4 it   6 1.00000000   0.103E-01       0.000       32.256   0.100E-07
     TRS4 it   7 1.00000000   0.273E-03       0.000       32.256   0.100E-07
     TRS4 it   8 1.00000000   0.273E-06       0.000       32.256   0.100E-07
     TRS4 it   9 1.00000000   0.328E-12       0.000       32.256   0.100E-07
     Final TRS4 iteration    9 1.00000000   0.328E-12
     Chemical potential (mu):       0.00309
 
 PAO| energy:  -7.7916845325923516      penalty:   1.4157139816832877E-005
 PAO|LS| adapt:  T T T
 PAO|LS| adapt: scan_steps:    0.0000000000000000       0.24543291859085717       0.49086583718171434     
 PAO|LS| adapt: energies:   -7.7719986379753667       -7.7916845325923516       -7.7660863353991916     
 PAO|LS| adapt: suggested step_size:   0.22941102636713118     
 PAO|LS| adapt: predicted energy  -7.7917810215588821     
 PAO| ======================= Iteration:         9 =============================

     Lanczos converged:  T threshold:   0.100E-02
     Est. extremal eigenvalues:    0.286E+01   0.170E+00
     Est. condition number :    0.168E+02

 Order=           3
     NS sqrt iter    1 1.00000000   0.725E+00       0.001       64.512
     NS sqrt iter    2 1.00000000   0.349E+00       0.001      110.592
     NS sqrt iter    3 1.00000000   0.872E-01       0.001      110.592
     NS sqrt iter    4 1.00000000   0.278E-02       0.001      110.592
     NS sqrt iter    5 1.00000000   0.185E-06       0.001       80.128
     Symmetrizing Results
     Final NS sqrt iter    5 1.00000000   0.881E-09

     Est. extremal eigenvalues     -0.93545     1.69362  converged:  T
     TRS4 it   1 1.00000000   0.868E+00       0.000       16.128   0.100E-07
     TRS4 it   2 1.00000000   0.617E+00       0.000       32.256   0.100E-07
     TRS4 it   3 1.00000000   0.424E+00       0.000       32.256   0.100E-07
     TRS4 it   4 1.00000000   0.220E+00       0.000       32.256   0.100E-07
     TRS4 it   5 1.00000000   0.734E-01       0.000       32.256   0.100E-07
     TRS4 it   6 1.00000000   0.103E-01       0.000       32.256   0.100E-07
     TRS4 it   7 1.00000000   0.273E-03       0.000       32.256   0.100E-07
     TRS4 it   8 1.00000000   0.275E-06       0.000       32.256   0.100E-07
     TRS4 it   9 1.00000000   0.333E-12       0.000       32.256   0.100E-07
     Final TRS4 iteration    9 1.00000000   0.333E-12
     Chemical potential (mu):       0.00301
 
 PAO| energy:  -7.7918050899867923      penalty:   1.3985037556948856E-005
 PAO|CG| trace_G_new    3.6950422041029357E-002
 PAO|CG| trace_G_prev   0.17443156630371492     
 PAO|CG| trace_G_mix   -1.4546844340297934E-003
 PAO|CG| trace_D   0.17443156630371492     
 PAO|CG| trace_D_Gnew   1.4546844340297934E-003
 PAO|CG| beta:   0.22017291530931593     
 PAO| norm of gradient:  0.19222492564969132     
 PAO| energy improvement:  -1.9806452011425613E-002
 PAO| step      9                   -7.791805090  0.120E-01  0.229E+00     0.037
 PAO|LS| adapt:  T F F
 PAO|LS| adapt: scan_steps:    0.0000000000000000        0.0000000000000000        0.0000000000000000     
 PAO|LS| adapt: energies:   -7.7918050899867923        0.0000000000000000        0.0000000000000000     
 PAO| ======================= Iteration:        10 =============================

     Lanczos converged:  T threshold:   0.100E-02
     Est. extremal eigenvalues:    0.282E+01   0.176E+00
     Est. condition number :    0.160E+02

 Order=           3
     NS sqrt iter    1 1.00000000   0.718E+00       0.001       64.512
     NS sqrt iter    2 1.00000000   0.341E+00       0.001      110.592
     NS sqrt iter    3 1.00000000   0.816E-01       0.001      110.592
     NS sqrt iter    4 1.00000000   0.229E-02       0.001      110.592
     NS sqrt iter    5 1.00000000   0.103E-06       0.001       76.544
     Symmetrizing Results
     Final NS sqrt iter    5 1.00000000   0.106E-08

     Est. extremal eigenvalues     -0.93634     1.68996  converged:  T
     TRS4 it   1 1.00000000   0.867E+00       0.000       16.128   0.100E-07
     TRS4 it   2 1.00000000   0.616E+00       0.000       32.256   0.100E-07
     TRS4 it   3 1.00000000   0.422E+00       0.000       32.256   0.100E-07
     TRS4 it   4 1.00000000   0.217E+00       0.000       32.256   0.100E-07
     TRS4 it   5 1.00000000   0.714E-01       0.000       32.256   0.100E-07
     TRS4 it   6 1.00000000   0.968E-02       0.000       32.256   0.100E-07
     TRS4 it   7 1.00000000   0.238E-03       0.000       32.256   0.100E-07
     TRS4 it   8 1.00000000   0.203E-06       0.000       32.256   0.100E-07
     TRS4 it   9 1.00000000   0.179E-12       0.000       32.256   0.100E-07
     Final TRS4 iteration    9 1.00000000   0.179E-12
     Chemical potential (mu):       0.00621
 
 PAO| energy:  -7.7968560346684583      penalty:   1.4528690445481776E-005
 PAO|LS| adapt:  T T F
 PAO|LS| adapt: scan_steps:    0.0000000000000000       0.22941102636713118        0.0000000000000000     
 PAO|LS| adapt: energies:   -7.7918050899867923       -7.7968560346684583        0.0000000000000000     
 PAO| ======================= Iteration:        11 =============================

     Lanczos converged:  T threshold:   0.100E-02
     Est. extremal eigenvalues:    0.278E+01   0.182E+00
     Est. condition number :    0.153E+02

 Order=           3
     NS sqrt iter    1 1.00000000   0.710E+00       0.001       64.512
     NS sqrt iter    2 1.00000000   0.333E+00       0.001      110.592
     NS sqrt iter    3 1.00000000   0.762E-01       0.001      110.592
     NS sqrt iter    4 1.00000000   0.187E-02       0.001      110.592
     NS sqrt iter    5 1.00000000   0.567E-07       0.001       72.064
     Symmetrizing Results
     Final NS sqrt iter    5 1.00000000   0.545E-09

     Est. extremal eigenvalues     -0.93625     1.68774  converged:  T
     TRS4 it   1 1.00000000   0.866E+00       0.000       16.128   0.100E-07
     TRS4 it   2 1.00000000   0.615E+00       0.000       32.256   0.100E-07
     TRS4 it   3 1.00000000   0.421E+00       0.000       32.256   0.100E-07
     TRS4 it   4 1.00000000   0.215E+00       0.000       32.256   0.100E-07
     TRS4 it   5 1.00000000   0.696E-01       0.000       32.256   0.100E-07
     TRS4 it   6 1.00000000   0.912E-02       0.000       32.256   0.100E-07
     TRS4 it   7 1.00000000   0.207E-03       0.000       32.256   0.100E-07
     TRS4 it   8 1.00000000   0.150E-06       0.000       32.256   0.100E-07
     TRS4 it   9 1.00000000   0.959E-13       0.000       32.256   0.100E-07
     Final TRS4 iteration    9 1.00000000   0.959E-13
     Chemical potential (mu):       0.00952
 
 PAO| energy:  -7.7954453752439781      penalty:   1.5745468957095005E-005
 PAO|LS| adapt:  T T T
 PAO|LS| adapt: scan_steps:    0.0000000000000000       0.22941102636713118       0.45882205273426235     
 PAO|LS| adapt: energies:   -7.7918050899867923       -7.7968560346684583       -7.7954453752439781     
 PAO|LS| adapt: suggested step_size:   0.29403287284684271     
 PAO|LS| adapt: predicted energy  -7.7971123889060445     
 PAO| ======================= Iteration:        12 =============================

     Lanczos converged:  T threshold:   0.100E-02
     Est. extremal eigenvalues:    0.281E+01   0.177E+00
     Est. condition number :    0.158E+02

 Order=           3
     NS sqrt iter    1 1.00000000   0.716E+00       0.001       64.512
     NS sqrt iter    2 1.00000000   0.339E+00       0.001      110.592
     NS sqrt iter    3 1.00000000   0.800E-01       0.001      110.592
     NS sqrt iter    4 1.00000000   0.216E-02       0.001      110.592
     NS sqrt iter    5 1.00000000   0.872E-07       0.001       75.648
     Symmetrizing Results
     Final NS sqrt iter    5 1.00000000   0.833E-09

     Est. extremal eigenvalues     -0.93641     1.68919  converged:  T
     TRS4 it   1 1.00000000   0.866E+00       0.000       16.128   0.100E-07
     TRS4 it   2 1.00000000   0.616E+00       0.000       32.256   0.100E-07
     TRS4 it   3 1.00000000   0.422E+00       0.000       32.256   0.100E-07
     TRS4 it   4 1.00000000   0.217E+00       0.000       32.256   0.100E-07
     TRS4 it   5 1.00000000   0.709E-01       0.000       32.256   0.100E-07
     TRS4 it   6 1.00000000   0.952E-02       0.000       32.256   0.100E-07
     TRS4 it   7 1.00000000   0.229E-03       0.000       32.256   0.100E-07
     TRS4 it   8 1.00000000   0.186E-06       0.000       32.256   0.100E-07
     TRS4 it   9 1.00000000   0.151E-12       0.000       32.256   0.100E-07
     Final TRS4 iteration    9 1.00000000   0.151E-12
     Chemical potential (mu):       0.00713
 
 PAO| energy:  -7.7970961965064118      penalty:   1.4795646736940648E-005
 PAO|CG| trace_G_new    1.1859513524537882E-002
 PAO|CG| trace_G_prev    3.6950422041029357E-002
 PAO|CG| trace_G_mix   -4.5643879763840019E-004
 PAO|CG| trace_D    4.4765622071016989E-002
 PAO|CG| trace_D_Gnew   2.0851339174890113E-004
 PAO|CG| beta:   0.33331019354801356     
 PAO| norm of gradient:  0.10890139358400278     
 PAO| energy improvement:  -5.2911065196195040E-003
 PAO| step     12                   -7.797096197  0.681E-02  0.294E+00     0.037
 PAO|LS| adapt:  T F F
 PAO|LS| adapt: scan_steps:    0.0000000000000000        0.0000000000000000        0.0000000000000000     
 PAO|LS| adapt: energies:   -7.7970961965064118        0.0000000000000000        0.0000000000000000     
 PAO| ======================= Iteration:        13 =============================

     Lanczos converged:  T threshold:   0.100E-02
     Est. extremal eigenvalues:    0.277E+01   0.182E+00
     Est. condition number :    0.153E+02

 Order=           3
     NS sqrt iter    1 1.00000000   0.708E+00       0.001       64.512
     NS sqrt iter    2 1.00000000   0.332E+00       0.001      110.592
     NS sqrt iter    3 1.00000000   0.757E-01       0.001      110.592
     NS sqrt iter    4 1.00000000   0.184E-02       0.001      110.592
     NS sqrt iter    5 1.00000000   0.548E-07       0.001       71.808
     Symmetrizing Results
     Final NS sqrt iter    5 1.00000000   0.537E-09

     Est. extremal eigenvalues     -0.93690     1.68321  converged:  T
     TRS4 it   1 1.00000000   0.866E+00       0.000       16.128   0.100E-07
     TRS4 it   2 1.00000000   0.613E+00       0.000       32.256   0.100E-07
     TRS4 it   3 1.00000000   0.418E+00       0.000       32.256   0.100E-07
     TRS4 it   4 1.00000000   0.212E+00       0.000       32.256   0.100E-07
     TRS4 it   5 1.00000000   0.674E-01       0.000       32.256   0.100E-07
     TRS4 it   6 1.00000000   0.855E-02       0.000       32.256   0.100E-07
     TRS4 it   7 1.00000000   0.182E-03       0.000       32.256   0.100E-07
     TRS4 it   8 1.00000000   0.114E-06       0.000       32.256   0.100E-07
     TRS4 it   9 1.00000000   0.565E-13       0.000       32.256   0.100E-07
     Final TRS4 iteration    9 1.00000000   0.565E-13
     Chemical potential (mu):       0.01173
 
 PAO| energy:  -7.7991705898830475      penalty:   1.5108339021985313E-005
 PAO|LS| adapt:  T T F
 PAO|LS| adapt: scan_steps:    0.0000000000000000       0.29403287284684271        0.0000000000000000     
 PAO|LS| adapt: energies:   -7.7970961965064118       -7.7991705898830475        0.0000000000000000     
 PAO| ======================= Iteration:        14 =============================

     Lanczos converged:  T threshold:   0.100E-02
     Est. extremal eigenvalues:    0.274E+01   0.186E+00
     Est. condition number :    0.148E+02

 Order=           3
     NS sqrt iter    1 1.00000000   0.702E+00       0.001       64.512
     NS sqrt iter    2 1.00000000   0.325E+00       0.001      110.592
     NS sqrt iter    3 1.00000000   0.716E-01       0.001      110.592
     NS sqrt iter    4 1.00000000   0.157E-02       0.001      110.592
     NS sqrt iter    5 1.00000000   0.343E-07       0.001       65.152
     Symmetrizing Results
     Final NS sqrt iter    5 1.00000000   0.221E-08

     Est. extremal eigenvalues     -0.93687     1.67757  converged:  T
     TRS4 it   1 1.00000000   0.865E+00       0.000       16.128   0.100E-07
     TRS4 it   2 1.00000000   0.610E+00       0.000       32.256   0.100E-07
     TRS4 it   3 1.00000000   0.414E+00       0.000       32.256   0.100E-07
     TRS4 it   4 1.00000000   0.207E+00       0.000       32.256   0.100E-07
     TRS4 it   5 1.00000000   0.641E-01       0.000       32.256   0.100E-07
     TRS4 it   6 1.00000000   0.767E-02       0.000       32.256   0.100E-07
     TRS4 it   7 1.00000000   0.145E-03       0.000       32.256   0.100E-07
     TRS4 it   8 1.00000000   0.704E-07       0.000       32.256   0.100E-07
     Final TRS4 iteration    8 1.00000000   0.704E-07
     Chemical potential (mu):       0.01355
 
 PAO| energy:  -7.7985103131823639      penalty:   1.5905133737962261E-005
 PAO|LS| adapt:  T T T
 PAO|LS| adapt: scan_steps:    0.0000000000000000       0.29403287284684271       0.58806574569368542     
 PAO|LS| adapt: energies:   -7.7970961965064118       -7.7991705898830475       -7.7985103131823639     
 PAO|LS| adapt: suggested step_size:   0.37005608168277132     
 PAO|LS| adapt: predicted energy  -7.7992619960635308     
 PAO| ======================= Iteration:        15 =============================

     Lanczos converged:  T threshold:   0.100E-02
     Est. extremal eigenvalues:    0.277E+01   0.183E+00
     Est. condition number :    0.151E+02

 Order=           3
     NS sqrt iter    1 1.00000000   0.707E+00       0.001       64.512
     NS sqrt iter    2 1.00000000   0.330E+00       0.001      110.592
     NS sqrt iter    3 1.00000000   0.746E-01       0.001      110.592
     NS sqrt iter    4 1.00000000   0.177E-02       0.001      110.592
     NS sqrt iter    5 1.00000000   0.486E-07       0.001       70.400
     Symmetrizing Results
     Final NS sqrt iter    5 1.00000000   0.348E-09

     Est. extremal eigenvalues     -0.93694     1.68172  converged:  T
     TRS4 it   1 1.00000000   0.866E+00       0.000       16.128   0.100E-07
     TRS4 it   2 1.00000000   0.612E+00       0.000       32.256   0.100E-07
     TRS4 it   3 1.00000000   0.417E+00       0.000       32.256   0.100E-07
     TRS4 it   4 1.00000000   0.211E+00       0.000       32.256   0.100E-07
     TRS4 it   5 1.00000000   0.665E-01       0.000       32.256   0.100E-07
     TRS4 it   6 1.00000000   0.831E-02       0.000       32.256   0.100E-07
     TRS4 it   7 1.00000000   0.171E-03       0.000       32.256   0.100E-07
     TRS4 it   8 1.00000000   0.101E-06       0.000       32.256   0.100E-07
     TRS4 it   9 1.00000000   0.436E-13       0.000       32.256   0.100E-07
     Final TRS4 iteration    9 1.00000000   0.436E-13
     Chemical potential (mu):       0.01290
 
 PAO| energy:  -7.7992589677585826      penalty:   1.5264907786413445E-005
 PAO|CG| trace_G_new    2.6198052641616966E-003
 PAO|CG| trace_G_prev    1.1859513524537882E-002
 PAO|CG| trace_G_mix    6.5169656093843180E-005
 PAO|CG| trace_D    1.6693781700553086E-002
 PAO|CG| trace_D_Gnew   3.4095836887336765E-005
 PAO|CG| beta:   0.21540812806378559     
 PAO| norm of gradient:   5.1184033293222374E-002
 PAO| energy improvement:  -2.1627712521707920E-003
 PAO| step     15                   -7.799258968  0.320E-02  0.370E+00     0.036
 PAO|LS| adapt:  T F F
 PAO|LS| adapt: scan_steps:    0.0000000000000000        0.0000000000000000        0.0000000000000000     
 PAO|LS| adapt: energies:   -7.7992589677585826        0.0000000000000000        0.0000000000000000     
 PAO| ======================= Iteration:        16 =============================

     Lanczos converged:  T threshold:   0.100E-02
     Est. extremal eigenvalues:    0.276E+01   0.183E+00
     Est. condition number :    0.150E+02

 Order=           3
     NS sqrt iter    1 1.00000000   0.705E+00       0.001       64.512
     NS sqrt iter    2 1.00000000   0.329E+00       0.001      110.592
     NS sqrt iter    3 1.00000000   0.739E-01       0.001      110.592
     NS sqrt iter    4 1.00000000   0.172E-02       0.001      110.592
     NS sqrt iter    5 1.00000000   0.444E-07       0.001       69.888
     Symmetrizing Results
     Final NS sqrt iter    5 1.00000000   0.332E-09

     Est. extremal eigenvalues     -0.93697     1.68159  converged:  T
     TRS4 it   1 1.00000000   0.866E+00       0.000       16.128   0.100E-07
     TRS4 it   2 1.00000000   0.611E+00       0.000       32.256   0.100E-07
     TRS4 it   3 1.00000000   0.416E+00       0.000       32.256   0.100E-07
     TRS4 it   4 1.00000000   0.209E+00       0.000       32.256   0.100E-07
     TRS4 it   5 1.00000000   0.654E-01       0.000       32.256   0.100E-07
     TRS4 it   6 1.00000000   0.805E-02       0.000       32.256   0.100E-07
     TRS4 it   7 1.00000000   0.162E-03       0.000       32.256   0.100E-07
     TRS4 it   8 1.00000000   0.906E-07       0.000       32.256   0.100E-07
     TRS4 it   9 1.00000000   0.349E-13       0.000       32.256   0.100E-07
     Final TRS4 iteration    9 1.00000000   0.349E-13
     Chemical potential (mu):       0.01373
 
 PAO| energy:  -7.7993860339438612      penalty:   1.5046568524130059E-005
 PAO|LS| adapt:  T T F
 PAO|LS| adapt: scan_steps:    0.0000000000000000       0.37005608168277132        0.0000000000000000     
 PAO|LS| adapt: energies:   -7.7992589677585826       -7.7993860339438612        0.0000000000000000     
 PAO| ======================= Iteration:        17 =============================

     Lanczos converged:  T threshold:   0.100E-02
     Est. extremal eigenvalues:    0.275E+01   0.184E+00
     Est. condition number :    0.149E+02

 Order=           3
     NS sqrt iter    1 1.00000000   0.703E+00       0.001       64.512
     NS sqrt iter    2 1.00000000   0.327E+00       0.001      110.592
     NS sqrt iter    3 1.00000000   0.733E-01       0.001      110.592
     NS sqrt iter    4 1.00000000   0.167E-02       0.001      110.592
     NS sqrt iter    5 1.00000000   0.406E-07       0.001       69.248
     Symmetrizing Results
     Final NS sqrt iter    5 1.00000000   0.292E-09

     Est. extremal eigenvalues     -0.93687     1.68154  converged:  T
     TRS4 it   1 1.00000000   0.866E+00       0.000       16.128   0.100E-07
     TRS4 it   2 1.00000000   0.611E+00       0.000       32.256   0.100E-07
     TRS4 it   3 1.00000000   0.415E+00       0.000       32.256   0.100E-07
     TRS4 it   4 1.00000000   0.207E+00       0.000       32.256   0.100E-07
     TRS4 it   5 1.00000000   0.644E-01       0.000       32.256   0.100E-07
     TRS4 it   6 1.00000000   0.780E-02       0.000       32.256   0.100E-07
     TRS4 it   7 1.00000000   0.152E-03       0.000       32.256   0.100E-07
     TRS4 it   8 1.00000000   0.815E-07       0.000       32.256   0.100E-07
     TRS4 it   9 1.00000000   0.286E-13       0.000       32.256   0.100E-07
     Final TRS4 iteration    9 1.00000000   0.286E-13
     Chemical potential (mu):       0.01454
 
 PAO| energy:  -7.7978279566548929      penalty:   1.4953594842141658E-005
 PAO|LS| adapt:  T T T
 PAO|LS| adapt: scan_steps:    0.0000000000000000       0.37005608168277132       0.74011216336554264     
 PAO|LS| adapt: energies:   -7.7992589677585826       -7.7993860339438612       -7.7978279566548929     
 PAO|LS| adapt: suggested step_size:   0.21293166765843355     
 PAO|LS| adapt: predicted energy  -7.7995379344207478     
 PAO| ======================= Iteration:        18 =============================

     Lanczos converged:  T threshold:   0.100E-02
     Est. extremal eigenvalues:    0.276E+01   0.183E+00
     Est. condition number :    0.151E+02

 Order=           3
     NS sqrt iter    1 1.00000000   0.706E+00       0.001       64.512
     NS sqrt iter    2 1.00000000   0.329E+00       0.001      110.592
     NS sqrt iter    3 1.00000000   0.742E-01       0.001      110.592
     NS sqrt iter    4 1.00000000   0.174E-02       0.001      110.592
     NS sqrt iter    5 1.00000000   0.461E-07       0.001       69.888
     Symmetrizing Results
     Final NS sqrt iter    5 1.00000000   0.343E-09

     Est. extremal eigenvalues     -0.93697     1.68163  converged:  T
     TRS4 it   1 1.00000000   0.866E+00       0.000       16.128   0.100E-07
     TRS4 it   2 1.00000000   0.612E+00       0.000       32.256   0.100E-07
     TRS4 it   3 1.00000000   0.416E+00       0.000       32.256   0.100E-07
     TRS4 it   4 1.00000000   0.210E+00       0.000       32.256   0.100E-07
     TRS4 it   5 1.00000000   0.659E-01       0.000       32.256   0.100E-07
     TRS4 it   6 1.00000000   0.816E-02       0.000       32.256   0.100E-07
     TRS4 it   7 1.00000000   0.166E-03       0.000       32.256   0.100E-07
     TRS4 it   8 1.00000000   0.949E-07       0.000       32.256   0.100E-07
     TRS4 it   9 1.00000000   0.394E-13       0.000       32.256   0.100E-07
     Final TRS4 iteration    9 1.00000000   0.394E-13
     Chemical potential (mu):       0.01338
 
 PAO| energy:  -7.7995374596579570      penalty:   1.5124229240204079E-005
 PAO|CG| trace_G_new    7.3071178220104720E-004
 PAO|CG| trace_G_prev    2.6198052641616966E-003
 PAO|CG| trace_G_mix    1.7342400320990387E-006
 PAO|CG| trace_D    3.3797187394760402E-003
 PAO|CG| trace_D_Gnew  -1.8144232627467915E-006
 PAO|CG| beta:   0.27825638498448146     
 PAO| norm of gradient:   2.7031681083518413E-002
 PAO| energy improvement:  -2.7849189937434460E-004
 PAO| step     18                   -7.799537460  0.169E-02  0.213E+00     0.036
 PAO|LS| adapt:  T F F
 PAO|LS| adapt: scan_steps:    0.0000000000000000        0.0000000000000000        0.0000000000000000     
 PAO|LS| adapt: energies:   -7.7995374596579570        0.0000000000000000        0.0000000000000000     
 PAO| ======================= Iteration:        19 =============================

     Lanczos converged:  T threshold:   0.100E-02
     Est. extremal eigenvalues:    0.276E+01   0.183E+00
     Est. condition number :    0.151E+02

 Order=           3
     NS sqrt iter    1 1.00000000   0.706E+00       0.001       64.512
     NS sqrt iter    2 1.00000000   0.329E+00       0.001      110.592
     NS sqrt iter    3 1.00000000   0.744E-01       0.001      110.592
     NS sqrt iter    4 1.00000000   0.175E-02       0.001      110.592
     NS sqrt iter    5 1.00000000   0.466E-07       0.001       69.888
     Symmetrizing Results
     Final NS sqrt iter    5 1.00000000   0.349E-09

     Est. extremal eigenvalues     -0.93697     1.68195  converged:  T
     TRS4 it   1 1.00000000   0.866E+00       0.000       16.128   0.100E-07
     TRS4 it   2 1.00000000   0.612E+00       0.000       32.256   0.100E-07
     TRS4 it   3 1.00000000   0.416E+00       0.000       32.256   0.100E-07
     TRS4 it   4 1.00000000   0.209E+00       0.000       32.256   0.100E-07
     TRS4 it   5 1.00000000   0.658E-01       0.000       32.256   0.100E-07
     TRS4 it   6 1.00000000   0.815E-02       0.000       32.256   0.100E-07
     TRS4 it   7 1.00000000   0.166E-03       0.000       32.256   0.100E-07
     TRS4 it   8 1.00000000   0.964E-07       0.000       32.256   0.100E-07
     TRS4 it   9 1.00000000   0.406E-13       0.000       32.256   0.100E-07
     Final TRS4 iteration    9 1.00000000   0.406E-13
     Chemical potential (mu):       0.01311
 
 PAO| energy:  -7.7996561718998292      penalty:   1.4834203969494178E-005
 PAO|LS| adapt:  T T F
 PAO|LS| adapt: scan_steps:    0.0000000000000000       0.21293166765843355        0.0000000000000000     
 PAO|LS| adapt: energies:   -7.7995374596579570       -7.7996561718998292        0.0000000000000000     
 PAO| ======================= Iteration:        20 =============================

     Lanczos converged:  T threshold:   0.100E-02
     Est. extremal eigenvalues:    0.276E+01   0.183E+00
     Est. condition number :    0.151E+02

 Order=           3
     NS sqrt iter    1 1.00000000   0.706E+00       0.001       64.512
     NS sqrt iter    2 1.00000000   0.330E+00       0.001      110.592
     NS sqrt iter    3 1.00000000   0.747E-01       0.001      110.592
     NS sqrt iter    4 1.00000000   0.176E-02       0.001      110.592
     NS sqrt iter    5 1.00000000   0.471E-07       0.001       70.272
     Symmetrizing Results
     Final NS sqrt iter    5 1.00000000   0.373E-09

     Est. extremal eigenvalues     -0.93697     1.68227  converged:  T
     TRS4 it   1 1.00000000   0.866E+00       0.000       16.128   0.100E-07
     TRS4 it   2 1.00000000   0.612E+00       0.000       32.256   0.100E-07
     TRS4 it   3 1.00000000   0.416E+00       0.000       32.256   0.100E-07
     TRS4 it   4 1.00000000   0.209E+00       0.000       32.256   0.100E-07
     TRS4 it   5 1.00000000   0.657E-01       0.000       32.256   0.100E-07
     TRS4 it   6 1.00000000   0.814E-02       0.000       32.256   0.100E-07
     TRS4 it   7 1.00000000   0.167E-03       0.000       32.256   0.100E-07
     TRS4 it   8 1.00000000   0.979E-07       0.000       32.256   0.100E-07
     TRS4 it   9 1.00000000   0.417E-13       0.000       32.256   0.100E-07
     Final TRS4 iteration    9 1.00000000   0.417E-13
     Chemical potential (mu):       0.01283
 
 PAO| energy:  -7.7997005059811411      penalty:   1.4556677229375358E-005
 PAO|LS| adapt:  T T F
 PAO|LS| adapt: scan_steps:    0.0000000000000000       0.42586333531686710        0.0000000000000000     
 PAO|LS| adapt: energies:   -7.7995374596579570       -7.7997005059811411        0.0000000000000000     
 PAO| ======================= Iteration:        21 =============================

     Lanczos converged:  T threshold:   0.100E-02
     Est. extremal eigenvalues:    0.276E+01   0.182E+00
     Est. condition number :    0.151E+02

 Order=           3
     NS sqrt iter    1 1.00000000   0.705E+00       0.001       64.512
     NS sqrt iter    2 1.00000000   0.330E+00       0.001      110.592
     NS sqrt iter    3 1.00000000   0.751E-01       0.001      110.592
     NS sqrt iter    4 1.00000000   0.178E-02       0.001      110.592
     NS sqrt iter    5 1.00000000   0.482E-07       0.001       70.656
     Symmetrizing Results
     Final NS sqrt iter    5 1.00000000   0.376E-09

     Est. extremal eigenvalues     -0.93696     1.68291  converged:  T
     TRS4 it   1 1.00000000   0.866E+00       0.000       16.128   0.100E-07
     TRS4 it   2 1.00000000   0.611E+00       0.000       32.256   0.100E-07
     TRS4 it   3 1.00000000   0.416E+00       0.000       32.256   0.100E-07
     TRS4 it   4 1.00000000   0.209E+00       0.000       32.256   0.100E-07
     TRS4 it   5 1.00000000   0.655E-01       0.000       32.256   0.100E-07
     TRS4 it   6 1.00000000   0.813E-02       0.000       32.256   0.100E-07
     TRS4 it   7 1.00000000   0.168E-03       0.000       32.256   0.100E-07
     TRS4 it   8 1.00000000   0.101E-06       0.000       32.256   0.100E-07
     TRS4 it   9 1.00000000   0.449E-13       0.000       32.256   0.100E-07
     Final TRS4 iteration    9 1.00000000   0.449E-13
     Chemical potential (mu):       0.01228
 
 PAO| energy:  -7.7995635779417416      penalty:   1.4038545616038773E-005
 PAO|LS| Need extra step
 PAO|LS| adapt:  T T T
 PAO|LS| adapt: scan_steps:    0.0000000000000000       0.42586333531686710       0.85172667063373420     
 PAO|LS| adapt: energies:   -7.7995374596579570       -7.7997005059811411       -7.7995635779417416     
 PAO|LS| adapt: suggested step_size:   0.44440295208524222     
 PAO|LS| adapt: predicted energy  -7.7997007902407445     
 PAO| ======================= Iteration:        22 =============================

     Lanczos converged:  T threshold:   0.100E-02
     Est. extremal eigenvalues:    0.276E+01   0.183E+00
     Est. condition number :    0.151E+02

 Order=           3
     NS sqrt iter    1 1.00000000   0.706E+00       0.001       64.512
     NS sqrt iter    2 1.00000000   0.330E+00       0.001      110.592
     NS sqrt iter    3 1.00000000   0.747E-01       0.001      110.592
     NS sqrt iter    4 1.00000000   0.176E-02       0.001      110.592
     NS sqrt iter    5 1.00000000   0.471E-07       0.001       70.272
     Symmetrizing Results
     Final NS sqrt iter    5 1.00000000   0.374E-09

     Est. extremal eigenvalues     -0.93697     1.68229  converged:  T
     TRS4 it   1 1.00000000   0.866E+00       0.000       16.128   0.100E-07
     TRS4 it   2 1.00000000   0.612E+00       0.000       32.256   0.100E-07
     TRS4 it   3 1.00000000   0.416E+00       0.000       32.256   0.100E-07
     TRS4 it   4 1.00000000   0.209E+00       0.000       32.256   0.100E-07
     TRS4 it   5 1.00000000   0.657E-01       0.000       32.256   0.100E-07
     TRS4 it   6 1.00000000   0.814E-02       0.000       32.256   0.100E-07
     TRS4 it   7 1.00000000   0.167E-03       0.000       32.256   0.100E-07
     TRS4 it   8 1.00000000   0.980E-07       0.000       32.256   0.100E-07
     TRS4 it   9 1.00000000   0.414E-13       0.000       32.256   0.100E-07
     Final TRS4 iteration    9 1.00000000   0.414E-13
     Chemical potential (mu):       0.01281
 
 PAO| energy:  -7.7997008256852398      penalty:   1.4533099097141657E-005
 PAO|CG| trace_G_new    2.2515293522284267E-004
 PAO|CG| trace_G_prev    7.3071178220104720E-004
 PAO|CG| trace_G_mix    3.1041520939867460E-006
 PAO|CG| trace_D    9.9340171621842624E-004
 PAO|CG| trace_D_Gnew  -1.9053631574505610E-006
 PAO|CG| beta:   0.30388011872478837     
 PAO| norm of gradient:   1.5005096974789689E-002
 PAO| energy improvement:  -1.6336602728284078E-004
 PAO| step     22                   -7.799700826  0.938E-03  0.444E+00     0.047
 PAO|LS| adapt:  T F F
 PAO|LS| adapt: scan_steps:    0.0000000000000000        0.0000000000000000        0.0000000000000000     
 PAO|LS| adapt: energies:   -7.7997008256852398        0.0000000000000000        0.0000000000000000     
 PAO| ======================= Iteration:        23 =============================

     Lanczos converged:  T threshold:   0.100E-02
     Est. extremal eigenvalues:    0.276E+01   0.183E+00
     Est. condition number :    0.151E+02

 Order=           3
     NS sqrt iter    1 1.00000000   0.705E+00       0.001       64.512
     NS sqrt iter    2 1.00000000   0.330E+00       0.001      110.592
     NS sqrt iter    3 1.00000000   0.747E-01       0.001      110.592
     NS sqrt iter    4 1.00000000   0.176E-02       0.001      110.592
     NS sqrt iter    5 1.00000000   0.472E-07       0.001       70.272
     Symmetrizing Results
     Final NS sqrt iter    5 1.00000000   0.376E-09

     Est. extremal eigenvalues     -0.93697     1.68208  converged:  T
     TRS4 it   1 1.00000000   0.866E+00       0.000       16.128   0.100E-07
     TRS4 it   2 1.00000000   0.612E+00       0.000       32.256   0.100E-07
     TRS4 it   3 1.00000000   0.416E+00       0.000       32.256   0.100E-07
     TRS4 it   4 1.00000000   0.209E+00       0.000       32.256   0.100E-07
     TRS4 it   5 1.00000000   0.658E-01       0.000       32.256   0.100E-07
     TRS4 it   6 1.00000000   0.818E-02       0.000       32.256   0.100E-07
     TRS4 it   7 1.00000000   0.168E-03       0.000       32.256   0.100E-07
     TRS4 it   8 1.00000000   0.100E-06       0.000       32.256   0.100E-07
     TRS4 it   9 1.00000000   0.433E-13       0.000       32.256   0.100E-07
     Final TRS4 iteration    9 1.00000000   0.433E-13
     Chemical potential (mu):       0.01251
 
 PAO| energy:  -7.7997508579188812      penalty:   1.3849270844618008E-005
 PAO|LS| adapt:  T T F
 PAO|LS| adapt: scan_steps:    0.0000000000000000       0.44440295208524222        0.0000000000000000     
 PAO|LS| adapt: energies:   -7.7997008256852398       -7.7997508579188812        0.0000000000000000     
 PAO| ======================= Iteration:        24 =============================

     Lanczos converged:  T threshold:   0.100E-02
     Est. extremal eigenvalues:    0.276E+01   0.183E+00
     Est. condition number :    0.151E+02

 Order=           3
     NS sqrt iter    1 1.00000000   0.705E+00       0.001       64.512
     NS sqrt iter    2 1.00000000   0.330E+00       0.001      110.592
     NS sqrt iter    3 1.00000000   0.748E-01       0.001      110.592
     NS sqrt iter    4 1.00000000   0.176E-02       0.001      110.592
     NS sqrt iter    5 1.00000000   0.472E-07       0.001       70.272
     Symmetrizing Results
     Final NS sqrt iter    5 1.00000000   0.378E-09

     Est. extremal eigenvalues     -0.93697     1.68186  converged:  T
     TRS4 it   1 1.00000000   0.866E+00       0.000       16.128   0.100E-07
     TRS4 it   2 1.00000000   0.612E+00       0.000       32.256   0.100E-07
     TRS4 it   3 1.00000000   0.416E+00       0.000       32.256   0.100E-07
     TRS4 it   4 1.00000000   0.209E+00       0.000       32.256   0.100E-07
     TRS4 it   5 1.00000000   0.659E-01       0.000       32.256   0.100E-07
     TRS4 it   6 1.00000000   0.821E-02       0.000       32.256   0.100E-07
     TRS4 it   7 1.00000000   0.170E-03       0.000       32.256   0.100E-07
     TRS4 it   8 1.00000000   0.103E-06       0.000       32.256   0.100E-07
     TRS4 it   9 1.00000000   0.450E-13       0.000       32.256   0.100E-07
     Final TRS4 iteration    9 1.00000000   0.450E-13
     Chemical potential (mu):       0.01222
 
 PAO| energy:  -7.7996996682564523      penalty:   1.3193989073949332E-005
 PAO|LS| adapt:  T T T
 PAO|LS| adapt: scan_steps:    0.0000000000000000       0.44440295208524222       0.88880590417048444     
 PAO|LS| adapt: energies:   -7.7997008256852398       -7.7997508579188812       -7.7996996682564523     
 PAO|LS| adapt: suggested step_size:   0.44186217390407195     
 PAO|LS| adapt: predicted energy  -7.7997508595732183     
 PAO| ======================= Iteration:        25 =============================

     Lanczos converged:  T threshold:   0.100E-02
     Est. extremal eigenvalues:    0.276E+01   0.183E+00
     Est. condition number :    0.151E+02

 Order=           3
     NS sqrt iter    1 1.00000000   0.705E+00       0.001       64.512
     NS sqrt iter    2 1.00000000   0.330E+00       0.001      110.592
     NS sqrt iter    3 1.00000000   0.747E-01       0.001      110.592
     NS sqrt iter    4 1.00000000   0.176E-02       0.001      110.592
     NS sqrt iter    5 1.00000000   0.472E-07       0.001       70.272
     Symmetrizing Results
     Final NS sqrt iter    5 1.00000000   0.376E-09

     Est. extremal eigenvalues     -0.93697     1.68208  converged:  T
     TRS4 it   1 1.00000000   0.866E+00       0.000       16.128   0.100E-07
     TRS4 it   2 1.00000000   0.612E+00       0.000       32.256   0.100E-07
     TRS4 it   3 1.00000000   0.416E+00       0.000       32.256   0.100E-07
     TRS4 it   4 1.00000000   0.209E+00       0.000       32.256   0.100E-07
     TRS4 it   5 1.00000000   0.658E-01       0.000       32.256   0.100E-07
     TRS4 it   6 1.00000000   0.818E-02       0.000       32.256   0.100E-07
     TRS4 it   7 1.00000000   0.168E-03       0.000       32.256   0.100E-07
     TRS4 it   8 1.00000000   0.100E-06       0.000       32.256   0.100E-07
     TRS4 it   9 1.00000000   0.437E-13       0.000       32.256   0.100E-07
     Final TRS4 iteration    9 1.00000000   0.437E-13
     Chemical potential (mu):       0.01251
 
 PAO| energy:  -7.7997508586375339      penalty:   1.3853098764240170E-005
 PAO|CG| trace_G_new    8.1244626126155924E-005
 PAO|CG| trace_G_prev    2.2515293522284267E-004
 PAO|CG| trace_G_mix    7.3865260474213875E-007
 PAO|CG| trace_D    3.1804475958973840E-004
 PAO|CG| trace_D_Gnew  -3.6832238397024143E-007
 PAO|CG| beta:   0.35756128802733073     
 PAO| norm of gradient:   9.0135800948433313E-003
 PAO| energy improvement:  -5.0032952294110089E-005
 PAO| step     25                   -7.799750859  0.563E-03  0.442E+00     0.036
 PAO|LS| adapt:  T F F
 PAO|LS| adapt: scan_steps:    0.0000000000000000        0.0000000000000000        0.0000000000000000     
 PAO|LS| adapt: energies:   -7.7997508586375339        0.0000000000000000        0.0000000000000000     
 PAO| ======================= Iteration:        26 =============================

     Lanczos converged:  T threshold:   0.100E-02
     Est. extremal eigenvalues:    0.276E+01   0.183E+00
     Est. condition number :    0.151E+02

 Order=           3
     NS sqrt iter    1 1.00000000   0.705E+00       0.001       64.512
     NS sqrt iter    2 1.00000000   0.329E+00       0.001      110.592
     NS sqrt iter    3 1.00000000   0.746E-01       0.001      110.592
     NS sqrt iter    4 1.00000000   0.175E-02       0.001      110.592
     NS sqrt iter    5 1.00000000   0.468E-07       0.001       70.016
     Symmetrizing Results
     Final NS sqrt iter    5 1.00000000   0.352E-09

     Est. extremal eigenvalues     -0.93697     1.68172  converged:  T
     TRS4 it   1 1.00000000   0.866E+00       0.000       16.128   0.100E-07
     TRS4 it   2 1.00000000   0.611E+00       0.000       32.256   0.100E-07
     TRS4 it   3 1.00000000   0.416E+00       0.000       32.256   0.100E-07
     TRS4 it   4 1.00000000   0.209E+00       0.000       32.256   0.100E-07
     TRS4 it   5 1.00000000   0.657E-01       0.000       32.256   0.100E-07
     TRS4 it   6 1.00000000   0.815E-02       0.000       32.256   0.100E-07
     TRS4 it   7 1.00000000   0.167E-03       0.000       32.256   0.100E-07
     TRS4 it   8 1.00000000   0.988E-07       0.000       32.256   0.100E-07
     TRS4 it   9 1.00000000   0.426E-13       0.000       32.256   0.100E-07
     Final TRS4 iteration    9 1.00000000   0.426E-13
     Chemical potential (mu):       0.01265
 
 PAO| energy:  -7.7997552432753947      penalty:   1.3127960450465656E-005
 PAO|LS| adapt:  T T F
 PAO|LS| adapt: scan_steps:    0.0000000000000000       0.44186217390407195        0.0000000000000000     
 PAO|LS| adapt: energies:   -7.7997508586375339       -7.7997552432753947        0.0000000000000000     
 PAO| ======================= Iteration:        27 =============================

     Lanczos converged:  T threshold:   0.100E-02
     Est. extremal eigenvalues:    0.276E+01   0.183E+00
     Est. condition number :    0.151E+02

 Order=           3
     NS sqrt iter    1 1.00000000   0.705E+00       0.001       64.512
     NS sqrt iter    2 1.00000000   0.329E+00       0.001      110.592
     NS sqrt iter    3 1.00000000   0.745E-01       0.001      110.592
     NS sqrt iter    4 1.00000000   0.175E-02       0.001      110.592
     NS sqrt iter    5 1.00000000   0.465E-07       0.001       70.016
     Symmetrizing Results
     Final NS sqrt iter    5 1.00000000   0.350E-09

     Est. extremal eigenvalues     -0.93698     1.68136  converged:  T
     TRS4 it   1 1.00000000   0.866E+00       0.000       16.128   0.100E-07
     TRS4 it   2 1.00000000   0.611E+00       0.000       32.256   0.100E-07
     TRS4 it   3 1.00000000   0.416E+00       0.000       32.256   0.100E-07
     TRS4 it   4 1.00000000   0.209E+00       0.000       32.256   0.100E-07
     TRS4 it   5 1.00000000   0.656E-01       0.000       32.256   0.100E-07
     TRS4 it   6 1.00000000   0.813E-02       0.000       32.256   0.100E-07
     TRS4 it   7 1.00000000   0.166E-03       0.000       32.256   0.100E-07
     TRS4 it   8 1.00000000   0.973E-07       0.000       32.256   0.100E-07
     TRS4 it   9 1.00000000   0.410E-13       0.000       32.256   0.100E-07
     Final TRS4 iteration    9 1.00000000   0.410E-13
     Chemical potential (mu):       0.01279
 
 PAO| energy:  -7.7996963792326834      penalty:   1.2426727254423762E-005
 PAO|LS| adapt:  T T T
 PAO|LS| adapt: scan_steps:    0.0000000000000000       0.44186217390407195       0.88372434780814391     
 PAO|LS| adapt: energies:   -7.7997508586375339       -7.7997552432753947       -7.7996963792326834     
 PAO|LS| adapt: suggested step_size:   0.25156264478734397     
 PAO|LS| adapt: predicted energy  -7.7997611090213805     
 PAO| ======================= Iteration:        28 =============================

     Lanczos converged:  T threshold:   0.100E-02
     Est. extremal eigenvalues:    0.276E+01   0.183E+00
     Est. condition number :    0.151E+02

 Order=           3
     NS sqrt iter    1 1.00000000   0.705E+00       0.001       64.512
     NS sqrt iter    2 1.00000000   0.330E+00       0.001      110.592
     NS sqrt iter    3 1.00000000   0.747E-01       0.001      110.592
     NS sqrt iter    4 1.00000000   0.176E-02       0.001      110.592
     NS sqrt iter    5 1.00000000   0.470E-07       0.001       70.016
     Symmetrizing Results
     Final NS sqrt iter    5 1.00000000   0.353E-09

     Est. extremal eigenvalues     -0.93697     1.68187  converged:  T
     TRS4 it   1 1.00000000   0.866E+00       0.000       16.128   0.100E-07
     TRS4 it   2 1.00000000   0.611E+00       0.000       32.256   0.100E-07
     TRS4 it   3 1.00000000   0.416E+00       0.000       32.256   0.100E-07
     TRS4 it   4 1.00000000   0.209E+00       0.000       32.256   0.100E-07
     TRS4 it   5 1.00000000   0.657E-01       0.000       32.256   0.100E-07
     TRS4 it   6 1.00000000   0.816E-02       0.000       32.256   0.100E-07
     TRS4 it   7 1.00000000   0.168E-03       0.000       32.256   0.100E-07
     TRS4 it   8 1.00000000   0.994E-07       0.000       32.256   0.100E-07
     TRS4 it   9 1.00000000   0.429E-13       0.000       32.256   0.100E-07
     Final TRS4 iteration    9 1.00000000   0.429E-13
     Chemical potential (mu):       0.01259
 
 PAO| energy:  -7.7997610989158508      penalty:   1.3437310100545264E-005
 PAO|CG| trace_G_new    3.2784746317681805E-005
 PAO|CG| trace_G_prev    8.1244626126155924E-005
 PAO|CG| trace_G_mix    5.9903882603536757E-008
 PAO|CG| trace_D    1.2217006804834358E-004
 PAO|CG| trace_D_Gnew  -3.1023155671597633E-008
 PAO|CG| beta:   0.40279393229360705     
 PAO| norm of gradient:   5.7257965662152023E-003
 PAO| energy improvement:  -1.0240278316864249E-005
 PAO| step     28                   -7.799761099  0.358E-03  0.252E+00     0.036
 PAO|LS| adapt:  T F F
 PAO|LS| adapt: scan_steps:    0.0000000000000000        0.0000000000000000        0.0000000000000000     
 PAO|LS| adapt: energies:   -7.7997610989158508        0.0000000000000000        0.0000000000000000     
 PAO| ======================= Iteration:        29 =============================

     Lanczos converged:  T threshold:   0.100E-02
     Est. extremal eigenvalues:    0.276E+01   0.183E+00
     Est. condition number :    0.151E+02

 Order=           3
     NS sqrt iter    1 1.00000000   0.705E+00       0.001       64.512
     NS sqrt iter    2 1.00000000   0.329E+00       0.001      110.592
     NS sqrt iter    3 1.00000000   0.746E-01       0.001      110.592
     NS sqrt iter    4 1.00000000   0.175E-02       0.001      110.592
     NS sqrt iter    5 1.00000000   0.469E-07       0.001       70.016
     Symmetrizing Results
     Final NS sqrt iter    5 1.00000000   0.352E-09

     Est. extremal eigenvalues     -0.93698     1.68178  converged:  T
     TRS4 it   1 1.00000000   0.866E+00       0.000       16.128   0.100E-07
     TRS4 it   2 1.00000000   0.611E+00       0.000       32.256   0.100E-07
     TRS4 it   3 1.00000000   0.416E+00       0.000       32.256   0.100E-07
     TRS4 it   4 1.00000000   0.209E+00       0.000       32.256   0.100E-07
     TRS4 it   5 1.00000000   0.656E-01       0.000       32.256   0.100E-07
     TRS4 it   6 1.00000000   0.814E-02       0.000       32.256   0.100E-07
     TRS4 it   7 1.00000000   0.167E-03       0.000       32.256   0.100E-07
     TRS4 it   8 1.00000000   0.980E-07       0.000       32.256   0.100E-07
     TRS4 it   9 1.00000000   0.427E-13       0.000       32.256   0.100E-07
     Final TRS4 iteration    9 1.00000000   0.427E-13
     Chemical potential (mu):       0.01273
 
 PAO| energy:  -7.7997683584935720      penalty:   1.2999909800656051E-005
 PAO|LS| adapt:  T T F
 PAO|LS| adapt: scan_steps:    0.0000000000000000       0.25156264478734397        0.0000000000000000     
 PAO|LS| adapt: energies:   -7.7997610989158508       -7.7997683584935720        0.0000000000000000     
 PAO| ======================= Iteration:        30 =============================

     Lanczos converged:  T threshold:   0.100E-02
     Est. extremal eigenvalues:    0.276E+01   0.183E+00
     Est. condition number :    0.151E+02

 Order=           3
     NS sqrt iter    1 1.00000000   0.705E+00       0.001       64.512
     NS sqrt iter    2 1.00000000   0.329E+00       0.001      110.592
     NS sqrt iter    3 1.00000000   0.745E-01       0.001      110.592
     NS sqrt iter    4 1.00000000   0.175E-02       0.001      110.592
     NS sqrt iter    5 1.00000000   0.468E-07       0.001       70.016
     Symmetrizing Results
     Final NS sqrt iter    5 1.00000000   0.351E-09

     Est. extremal eigenvalues     -0.93698     1.68169  converged:  T
     TRS4 it   1 1.00000000   0.866E+00       0.000       16.128   0.100E-07
     TRS4 it   2 1.00000000   0.611E+00       0.000       32.256   0.100E-07
     TRS4 it   3 1.00000000   0.416E+00       0.000       32.256   0.100E-07
     TRS4 it   4 1.00000000   0.209E+00       0.000       32.256   0.100E-07
     TRS4 it   5 1.00000000   0.655E-01       0.000       32.256   0.100E-07
     TRS4 it   6 1.00000000   0.812E-02       0.000       32.256   0.100E-07
     TRS4 it   7 1.00000000   0.166E-03       0.000       32.256   0.100E-07
     TRS4 it   8 1.00000000   0.966E-07       0.000       32.256   0.100E-07
     TRS4 it   9 1.00000000   0.406E-13       0.000       32.256   0.100E-07
     Final TRS4 iteration    9 1.00000000   0.406E-13
     Chemical potential (mu):       0.01288
 
 PAO| energy:  -7.7997736364766519      penalty:   1.2570614193760656E-005
 PAO|LS| adapt:  T T F
 PAO|LS| adapt: scan_steps:    0.0000000000000000       0.50312528957468794        0.0000000000000000     
 PAO|LS| adapt: energies:   -7.7997610989158508       -7.7997736364766519        0.0000000000000000     
 PAO| ======================= Iteration:        31 =============================

     Lanczos converged:  T threshold:   0.100E-02
     Est. extremal eigenvalues:    0.276E+01   0.183E+00
     Est. condition number :    0.151E+02

 Order=           3
     NS sqrt iter    1 1.00000000   0.704E+00       0.001       64.512
     NS sqrt iter    2 1.00000000   0.329E+00       0.001      110.592
     NS sqrt iter    3 1.00000000   0.744E-01       0.001      110.592
     NS sqrt iter    4 1.00000000   0.175E-02       0.001      110.592
     NS sqrt iter    5 1.00000000   0.467E-07       0.001       70.016
     Symmetrizing Results
     Final NS sqrt iter    5 1.00000000   0.350E-09

     Est. extremal eigenvalues     -0.93698     1.68151  converged:  T
     TRS4 it   1 1.00000000   0.866E+00       0.000       16.128   0.100E-07
     TRS4 it   2 1.00000000   0.611E+00       0.000       32.256   0.100E-07
     TRS4 it   3 1.00000000   0.416E+00       0.000       32.256   0.100E-07
     TRS4 it   4 1.00000000   0.209E+00       0.000       32.256   0.100E-07
     TRS4 it   5 1.00000000   0.654E-01       0.000       32.256   0.100E-07
     TRS4 it   6 1.00000000   0.807E-02       0.000       32.256   0.100E-07
     TRS4 it   7 1.00000000   0.164E-03       0.000       32.256   0.100E-07
     TRS4 it   8 1.00000000   0.939E-07       0.000       32.256   0.100E-07
     TRS4 it   9 1.00000000   0.379E-13       0.000       32.256   0.100E-07
     Final TRS4 iteration    9 1.00000000   0.379E-13
     Chemical potential (mu):       0.01317
 
 PAO| energy:  -7.7997782498186599      penalty:   1.1736164153159060E-005
 PAO|LS| Need extra step
 PAO|LS| adapt:  T T F
 PAO|LS| adapt: scan_steps:    0.0000000000000000        1.0062505791493759        0.0000000000000000     
 PAO|LS| adapt: energies:   -7.7997610989158508       -7.7997782498186599        0.0000000000000000     
 PAO| ======================= Iteration:        32 =============================

     Lanczos converged:  T threshold:   0.100E-02
     Est. extremal eigenvalues:    0.276E+01   0.183E+00
     Est. condition number :    0.151E+02

 Order=           3
     NS sqrt iter    1 1.00000000   0.704E+00       0.001       64.512
[...]
     TRS4 it   1 1.00000000   0.877E+00       0.000       16.128   0.100E-07
     TRS4 it   2 1.00000000   0.632E+00       0.000       32.256   0.100E-07
     TRS4 it   3 1.00000000   0.455E+00       0.000       32.256   0.100E-07
     TRS4 it   4 1.00000000   0.278E+00       0.000       32.256   0.100E-07
     TRS4 it   5 1.00000000   0.137E+00       0.000       32.256   0.100E-07
     TRS4 it   6 1.00000000   0.430E-01       0.000       32.256   0.100E-07
     TRS4 it   7 1.00000000   0.588E-02       0.000       32.256   0.100E-07
     TRS4 it   8 1.00000000   0.147E-03       0.000       32.256   0.100E-07
     TRS4 it   9 1.00000000   0.968E-07       0.000       32.256   0.100E-07
     TRS4 it  10 1.00000000   0.431E-13       0.000       32.256   0.100E-07
     Final TRS4 iteration   10 1.00000000   0.431E-13
     Chemical potential (mu):      -0.07538
 
 PAO| energy:  -7.7991283803328804      penalty:   3.3879638718003022E-008
 PAO|CG| warming up with steepest descent
 PAO|CG| beta:    0.0000000000000000     
 PAO| norm of gradient:   1.3140810524035239E-004
 PAO| energy improvement:  -5.4032058827147011E-009
 PAO| step    412                   -7.799128380  0.821E-05  0.258E+00     0.055
 PAO| converged after          412  steps :-)
 PAO| Recalculating energy after mixing.

     Lanczos converged:  T threshold:   0.100E-02
     Est. extremal eigenvalues:    0.252E+01   0.190E+00
     Est. condition number :    0.132E+02

 Order=           3
     NS sqrt iter    1 1.00000000   0.638E+00       0.001       64.512
     NS sqrt iter    2 1.00000000   0.278E+00       0.001      110.592
     NS sqrt iter    3 1.00000000   0.494E-01       0.001      110.592
     NS sqrt iter    4 1.00000000   0.803E-03       0.001      110.592
     NS sqrt iter    5 1.00000000   0.681E-08       0.001       38.272
     Symmetrizing Results
     Final NS sqrt iter    5 1.00000000   0.399E-09

     Est. extremal eigenvalues     -0.93667     1.62993  converged:  T
     TRS4 it   1 1.00000000   0.877E+00       0.000       16.128   0.100E-07
     TRS4 it   2 1.00000000   0.632E+00       0.000       32.256   0.100E-07
     TRS4 it   3 1.00000000   0.455E+00       0.000       32.256   0.100E-07
     TRS4 it   4 1.00000000   0.278E+00       0.000       32.256   0.100E-07
     TRS4 it   5 1.00000000   0.137E+00       0.000       32.256   0.100E-07
     TRS4 it   6 1.00000000   0.430E-01       0.000       32.256   0.100E-07
     TRS4 it   7 1.00000000   0.588E-02       0.000       32.256   0.100E-07
     TRS4 it   8 1.00000000   0.147E-03       0.000       32.256   0.100E-07
     TRS4 it   9 1.00000000   0.968E-07       0.000       32.256   0.100E-07
     TRS4 it  10 1.00000000   0.425E-13       0.000       32.256   0.100E-07
     Final TRS4 iteration   10 1.00000000   0.425E-13
     Chemical potential (mu):      -0.07538
 
 PAO| energy:  -7.7991283789820676      penalty:   3.4233512949869527E-008
 PAO| Writing restart file.
     Est. extremal eigenvalues     -0.93667     1.62993  converged:  T
     TRS4 it   1 1.00000000   0.877E+00       0.000       16.128   0.100E-07
     TRS4 it   2 1.00000000   0.632E+00       0.000       32.256   0.100E-07
     TRS4 it   3 1.00000000   0.455E+00       0.000       32.256   0.100E-07
     TRS4 it   4 1.00000000   0.278E+00       0.000       32.256   0.100E-07
     TRS4 it   5 1.00000000   0.137E+00       0.000       32.256   0.100E-07
     TRS4 it   6 1.00000000   0.430E-01       0.000       32.256   0.100E-07
     TRS4 it   7 1.00000000   0.588E-02       0.000       32.256   0.100E-07
     TRS4 it   8 1.00000000   0.147E-03       0.000       32.256   0.100E-07
     TRS4 it   9 1.00000000   0.968E-07       0.000       32.256   0.100E-07
     TRS4 it  10 1.00000000   0.425E-13       0.000       32.256   0.100E-07
     Final TRS4 iteration   10 1.00000000   0.425E-13
     Chemical potential (mu):      -0.07538

 SCF     1       -34.449944602       -34.449944602    1.701896

*********************************************************
 Using MIXING_FRACTION=0.450 to mix KS matrix:  iscf=  2
 KS_nw=0.450*KS + 0.550*KS_old
*********************************************************
     Est. extremal eigenvalues     -0.93668     1.62993  converged:  T
     TRS4 it   1 1.00000000   0.877E+00       0.000       16.128   0.100E-07
     TRS4 it   2 1.00000000   0.632E+00       0.000       32.256   0.100E-07
     TRS4 it   3 1.00000000   0.455E+00       0.000       32.256   0.100E-07
     TRS4 it   4 1.00000000   0.278E+00       0.001       32.256   0.100E-07
     TRS4 it   5 1.00000000   0.137E+00       0.001       32.256   0.100E-07
     TRS4 it   6 1.00000000   0.430E-01       0.001       32.256   0.100E-07
     TRS4 it   7 1.00000000   0.588E-02       0.001       32.256   0.100E-07
     TRS4 it   8 1.00000000   0.147E-03       0.001       32.256   0.100E-07
     TRS4 it   9 1.00000000   0.968E-07       0.001       32.256   0.100E-07
     TRS4 it  10 1.00000000   0.420E-13       0.001       32.256   0.100E-07
     Final TRS4 iteration   10 1.00000000   0.420E-13
     Chemical potential (mu):      -0.07538

 SCF     2       -34.449944603        -0.000000000    1.812727


 SCF run converged in     2 steps.

 PAO| Storing density matrix for ASPC guess in slot:           1

 ENERGY| Total FORCE_EVAL ( QS ) energy [a.u.]:              -34.449944602587216

 -------------------------------------------------------------------------------
 -                                                                             -
 -                                DBCSR STATISTICS                             -
 -                                                                             -
 -------------------------------------------------------------------------------
 COUNTER                                    TOTAL       BLAS       SMM       ACC
 flops     5 x     5 x     4                20000       0.0%    100.0%      0.0%
 flops    13 x     5 x     4                20800       0.0%    100.0%      0.0%
 flops     5 x    13 x     4                20800       0.0%    100.0%      0.0%
 flops    13 x    13 x     4                40560       0.0%    100.0%      0.0%
 flops     4 x     4 x     5              3237120       0.0%    100.0%      0.0%
 flops     5 x     4 x     5              3955200       0.0%    100.0%      0.0%
 flops     4 x     4 x    13              4208256       0.0%    100.0%      0.0%
 flops    13 x     4 x     5              5141760       0.0%    100.0%      0.0%
 flops     5 x     4 x    13              5141760       0.0%    100.0%      0.0%
 flops     5 x     4 x     4              6311680       0.0%    100.0%      0.0%
 flops    13 x     4 x    13              6684288       0.0%    100.0%      0.0%
 flops    13 x     4 x     4              8391136       0.0%    100.0%      0.0%
 flops     4 x     4 x     4            417827328       0.0%    100.0%      0.0%
 flops inhomo. stacks                           0       0.0%      0.0%      0.0%
 flops total                       461.000688E+06       0.0%    100.0%      0.0%
 flops max/rank                    461.000688E+06       0.0%    100.0%      0.0%
 matmuls inhomo. stacks                         0       0.0%      0.0%      0.0%
 matmuls total                            3398949       0.0%    100.0%      0.0%
 number of processed stacks                 27102       0.0%    100.0%      0.0%
 average stack size                                     0.0     125.4       0.0
 marketing flops                   749.827200E+06
 -------------------------------------------------------------------------------
 # multiplications                          22647
 max memory usage/rank             505.483264E+06
 # max total images/rank                        1
 # max 3D layers                                1
 # MPI messages exchanged                       0
 -------------------------------------------------------------------------------

 -------------------------------------------------------------------------------
 -                                                                             -
 -                                DBM STATISTICS                               -
 -                                                                             -
 -------------------------------------------------------------------------------
    M  x    N  x    K                                          COUNT     PERCENT
 -------------------------------------------------------------------------------

 -------------------------------------------------------------------------------
 -                                                                             -
 -                                GRID STATISTICS                              -
 -                                                                             -
 -------------------------------------------------------------------------------
 LP    KERNEL             BACKEND                              COUNT     PERCENT
 2     collocate ortho    REF                                  38080      30.76%
 2     integrate ortho    REF                                  38080      30.76%
 3     collocate ortho    REF                                  19620      15.85%
 3     integrate ortho    REF                                  19620      15.85%
 4     collocate ortho    REF                                   4200       3.39%
 4     integrate ortho    REF                                   4200       3.39%
 0     collocate general  REF                                      6       0.00%
 -------------------------------------------------------------------------------

 MEMORY| Estimated peak process memory [MiB]                                 483

 -------------------------------------------------------------------------------
 -                                                                             -
 -                           R E F E R E N C E S                               -
 -                                                                             -
 -------------------------------------------------------------------------------
 
 CP2K version 2023.1 (Development Version), the CP2K developers group (2023).
 CP2K is freely available from https://www.cp2k.org/ .

 Kuehne,Thomas D.; Iannuzzi,Marcella; Del Ben,Mauro;
 Rybkin,Vladimir V.; Seewald,Patrick; Stein,Frederick; Laino,Teodoro;
 Khaliullin,Rustam Z.; Schuett,Ole; Schiffmann,Florian; Golze,Dorothea;
 Wilhelm,Jan; Chulkov,Sergey; Bani-Hashemian,Mohammad Hossein;
 Weber,Valery; Borstnik,Urban; Taillefumier,Mathieu;
 Jakobovits,Alice Shoshana; Lazzaro,Alfio; Pabst,Hans; Mueller,Tiziano;
 Schade,Robert; Guidon,Manuel; Andermatt,Samuel; Holmberg,Nico;
 Schenter,Gregory K.; Hehn,Anna; Bussy,Augustin; Belleflamme,Fabian;
 Tabacchi,Gloria; Gloess,Andreas; Lass,Michael; Bethune,Iain;
 Mundy,Christopher J.; Plessl,Christian; Watkins,Matt;
 VandeVondele,Joost; Krack,Matthias; Hutter,Juerg. 
 The Journal of Chemical Physics, 152 (19), (2020). 
 CP2K: An electronic structure and molecular dynamics software package -
 Quickstep: Efficient and accurate electronic structure calculations.
 https://doi.org/10.1063/5.0007045

 Schuett, O; VandeVondele, J. 
 Journal of Chemical Theory and Computation, 14, (2018). 
 Machine Learning Adaptive Basis Sets for Efficient Large Scale
 Density Functional Theory Simulation.
 https://doi.org/10.1021/acs.jctc.8b00378

 Schuett, Ole; Messmer, Peter; Hutter, Juerg; VandeVondele, Joost. 
 Electronic Structure Calculations on Graphics Processing Units, John
 Wiley & Sons, Ltd, 173-190 (2016). 
 GPU-Accelerated Sparse Matrix-Matrix Multiplication for
 Linear Scaling Density Functional Theory.
 https://doi.org/10.1002/9781118670712.ch8

 Heinecke, A; Henry, G; Hutchinson, M; Pabst, H. 
 Proceedings of Intl. Supercomputing Conference, 981-991 (2016). 
 LIBXSMM: Accelerating Small Matrix Multiplications
 by Runtime Code Generation.
 https://doi.org/10.1109/SC.2016.83

 Borstnik, U; VandeVondele, J; Weber, V; Hutter, J. 
 PARALLEL COMPUTING, 40 (5-6), 47-58 (2014). 
 Sparse matrix multiplication: The distributed block-compressed sparse
 row library.
 https://doi.org/10.1016/j.parco.2014.03.012

 Hutter, J; Iannuzzi, M; Schiffmann, F; VandeVondele, J. 
 WIREs Comput Mol Sci., 4 (1), 15-25 (2014). 
 CP2K: atomistic simulations of condensed matter systems.
 https://doi.org/10.1002/wcms.1159

 VandeVondele, J; Borstnik, U; Hutter, J. 
 JOURNAL OF CHEMICAL THEORY AND COMPUTATION, 8 (10), 3565-3573 (2012). 
 Linear Scaling Self-Consistent Field Calculations with Millions of Atoms
 in the Condensed Phase.
 https://doi.org/10.1021/ct200897x

 VandeVondele, J; Hutter, J. 
 JOURNAL OF CHEMICAL PHYSICS, 127 (11), 114105 (2007). 
 Gaussian basis sets for accurate calculations on molecular systems in
 gas and condensed phases.
 https://doi.org/10.1063/1.2770708

 Krack, M. 
 THEORETICAL CHEMISTRY ACCOUNTS, 114 (1-3), 145-152 (2005). 
 Pseudopotentials for H to Kr optimized for gradient-corrected
 exchange-correlation functionals.
 https://doi.org/10.1007/s00214-005-0655-y

 VandeVondele, J; Krack, M; Mohamed, F; Parrinello, M; Chassaing, T;
 Hutter, J. COMPUTER PHYSICS COMMUNICATIONS, 167 (2), 103-128 (2005). 
 QUICKSTEP: Fast and accurate density functional calculations using a
 mixed Gaussian and plane waves approach.
 https://doi.org/10.1016/j.cpc.2004.12.014

 Frigo, M; Johnson, SG. 
 PROCEEDINGS OF THE IEEE, 93 (2), 216-231 (2005). 
 The design and implementation of FFTW3.
 https://doi.org/10.1109/JPROC.2004.840301

 Niklasson, AMN; Tymczak, CJ; Challacombe, M. 
 JOURNAL OF CHEMICAL PHYSICS, 118 (19), 8611-8620 (2003). 
 Trace resetting density matrix purification in O(N)
 self-consistent-field theory.
 https://doi.org/10.1063/1.1559913

 Hartwigsen, C; Goedecker, S; Hutter, J. 
 PHYSICAL REVIEW B, 58 (7), 3641-3662 (1998). 
 Relativistic separable dual-space Gaussian pseudopotentials from H to Rn.
 https://doi.org/10.1103/PhysRevB.58.3641

 Lippert, G; Hutter, J; Parrinello, M. 
 MOLECULAR PHYSICS, 92 (3), 477-487 (1997). 
 A hybrid Gaussian and plane wave density functional scheme.
 https://doi.org/10.1080/002689797170220

 Perdew, JP; Burke, K; Ernzerhof, M. 
 PHYSICAL REVIEW LETTERS, 77 (18), 3865-3868 (1996). 
 Generalized gradient approximation made simple.
 https://doi.org/10.1103/PhysRevLett.77.3865

 Goedecker, S; Teter, M; Hutter, J. 
 PHYSICAL REVIEW B, 54 (3), 1703-1710 (1996). 
 Separable dual-space Gaussian pseudopotentials.
 https://doi.org/10.1103/PhysRevB.54.1703


 -------------------------------------------------------------------------------
 -                                                                             -
 -                                T I M I N G                                  -
 -                                                                             -
 -------------------------------------------------------------------------------
 SUBROUTINE                       CALLS  ASD         SELF TIME        TOTAL TIME
                                MAXIMUM       AVERAGE  MAXIMUM  AVERAGE  MAXIMUM
 CP2K                                 1  1.0    0.011    0.011   23.492   23.492
 qs_energies                          1  2.0    0.000    0.000   23.123   23.123
 ls_scf                               1  3.0    0.000    0.000   23.001   23.001
 ls_scf_main                          4  4.0    0.001    0.001   15.566   15.566
 ls_scf_dm_to_ks                      9  5.0    0.000    0.000   15.501   15.501
 qs_ks_update_qs_env                 10  6.0    0.000    0.000   13.976   13.976
 rebuild_ks_matrix                   10  7.0    0.000    0.000   13.976   13.976
 qs_ks_build_kohn_sham_matrix        10  8.0    0.003    0.003   13.976   13.976
 qs_vxc_create                       10  9.0    0.000    0.000    8.896    8.896
 xc_vxc_pw_create                    10 10.0    0.171    0.171    8.895    8.895
 pw_transfer                        191 11.1    0.020    0.020    7.380    7.380
 fft_wrap_pw1pw2                    171 12.3    0.003    0.003    7.172    7.172
 fft_wrap_pw1pw2_200                111 13.7    0.836    0.836    6.969    6.969
 xc_pw_derive                        60 12.0    0.001    0.001    5.243    5.243
 pao_update                           4  4.0    0.005    0.005    5.118    5.118
 xc_rho_set_and_dset_create          10 11.0    0.200    0.200    4.860    4.860
 pao_calc_energy                    415  5.0    0.002    0.002    4.636    4.636
 qs_rho_update_rho_low               10  6.0    0.000    0.000    3.805    3.805
 calculate_rho_elec                  10  7.0    0.034    0.034    3.805    3.805
 sum_up_and_integrate                10  9.0    0.138    0.138    3.788    3.788
 xc_pw_divergence                    10 11.0    0.001    0.001    3.727    3.727
 dbcsr_multiply_generic           22647  8.4    0.233    0.233    3.673    3.673
 integrate_v_rspace                  10 10.0    0.001    0.001    3.649    3.649
 fft3d_s                            172 14.2    2.714    2.714    2.728    2.728
 grid_integrate_task_list            10 11.0    2.643    2.643    2.643    2.643
 pao_dm_trs4                        415  6.0    0.001    0.001    2.420    2.420
 density_matrix_trs4                424  7.0    0.077    0.077    2.342    2.342
 grid_collocate_task_list            10  8.0    2.311    2.311    2.311    2.311
 pao_guess_initial_P                  1  4.0    0.000    0.000    2.284    2.284
 pao_read_preopt_dm                   1  5.0    0.000    0.000    2.284    2.284
 ls_scf_init_matrix_S               419  7.0    0.002    0.002    2.207    2.207
 pao_rebuild_S                      415  6.0    0.001    0.001    2.183    2.183
 matrix_sqrt_Newton_Schulz          419  8.0    0.056    0.056    1.992    1.992
 xc_functional_eval                  10 12.0    0.000    0.000    1.929    1.929
 pbe_lda_eval                        10 13.0    1.928    1.928    1.928    1.928
 pw_gather_s                         81 13.8    1.840    1.840    1.840    1.840
 pw_scatter_s                        90 14.7    1.740    1.740    1.740    1.740
 density_rs2pw                       10  8.0    0.001    0.001    1.460    1.460
 make_m2s                         45294  9.4    0.088    0.088    1.394    1.394
 multiply_cannon                  22647  9.4    0.556    0.556    1.364    1.364
 make_images                      45294 10.4    0.360    0.360    1.240    1.240
 pw_derive                           60 13.0    1.113    1.113    1.113    1.113
 potential_pw2rs                     10 11.0    0.002    0.002    1.006    1.006
 pw_copy                            120 11.8    0.793    0.793    0.793    0.793
 arnoldi_extremal                   843  8.5    0.002    0.002    0.728    0.728
 arnoldi_normal_ev                  843  9.5    0.006    0.006    0.726    0.726
 pw_axpy                             90 10.3    0.611    0.611    0.611    0.611
 build_subspace                     843 10.5    0.031    0.031    0.570    0.570
 dbcsr_matrix_vector_mult         20222 11.5    0.064    0.064    0.529    0.529
 pw_poisson_solve                    10  9.0    0.092    0.092    0.498    0.498
 pao_calc_AB                        547  5.8    0.000    0.000    0.478    0.478
 pao_calc_AB_equi                   547  6.8    0.014    0.014    0.478    0.478
 -------------------------------------------------------------------------------

 The number of warnings for this run is : 0
 
 -------------------------------------------------------------------------------
  **** **** ******  **  PROGRAM ENDED AT                 2023-02-01 10:45:43.315
 ***** ** ***  *** **   PROGRAM RAN ON                                    moritz
 **    ****   ******    PROGRAM RAN BY                                       ole
 ***** **    ** ** **   PROGRAM PROCESS ID                                148586
  **** **  *******  **  PROGRAM STOPPED IN /home/ole/git/pao_ml_equivar/2H2O_rot
                                           ations/phi_17
