6
Properties=species:S:1:pos:R:3 i=0 time=0.0 E=-34.4504806384 pbc="F F F"
O      -2.14155207      -4.39616492       4.35000000 
H      -1.60447208      -4.87494888       3.71000000 
H      -1.89038873      -3.47193011       4.25600000 
O      -5.03852251      -4.70509099       3.63500000 
H      -5.53093165      -5.09078289       4.36500000 
H      -4.12251496      -4.64172561       3.94700000 
