 DBCSR| CPU Multiplication driver                                           XSMM (U)
 DBCSR| Multrec recursion limit                                              512 (U)
 DBCSR| Multiplication stack size                                           1000 (D)
 DBCSR| Maximum elements for images                                    UNLIMITED (U)
 DBCSR| Multiplicative factor virtual images                                   1 (U)
 DBCSR| Use multiplication densification                                       T (D)
 DBCSR| Multiplication size stacks                                             3 (U)
 DBCSR| Use memory pool for CPU allocation                                     F (U)
 DBCSR| OMP: Current number of threads                                         1
 DBCSR| OMP: Max number of threads                                             1
 DBCSR| Split modifier for TAS multiplication algorithm                  1.0E+00 (U)


  **** **** ******  **  PROGRAM STARTED AT               2023-02-01 10:47:55.447
 ***** ** ***  *** **   PROGRAM STARTED ON                                moritz
 **    ****   ******    PROGRAM STARTED BY                                   ole
 ***** **    ** ** **   PROGRAM PROCESS ID                                148695
  **** **  *******  **  PROGRAM STARTED IN /home/ole/git/pao_ml_equivar/2H2O_MD/
                                           frame_0300

 CP2K| version string:                 CP2K version 2023.1 (Development Version)
 CP2K| source code revision number:                                  git:03b4147
 CP2K| cp2kflags: omp libint fftw3 libxc quip xsmm spglib libvori libbqb libtorc
 CP2K|            h
 CP2K| is freely available from                            https://www.cp2k.org/
 CP2K| Program compiled at                           Mi 01 Feb 2023 10:36:52 CET
 CP2K| Program compiled on                                                moritz
 CP2K| Program compiled for                                                local
 CP2K| Data directory path                               /home/ole/git/cp2k/data
 CP2K| Input file name                                            2H2O_pao44.inp

 GLOBAL| Force Environment number                                              1
 GLOBAL| Basis set file name                                        BASIS_MOLOPT
 GLOBAL| Potential file name                                      GTH_POTENTIALS
 GLOBAL| MM Potential file name                                     MM_POTENTIAL
 GLOBAL| Coordinate file name                                         coords.xyz
 GLOBAL| Method name                                                        CP2K
 GLOBAL| Project name                                                 2H2O_pao44
 GLOBAL| Run type                                                         ENERGY
 GLOBAL| FFT library                                                       FFTW3
 GLOBAL| Diagonalization library                                       ScaLAPACK
 GLOBAL| DGEMM library                                                      BLAS
 GLOBAL| Orthonormality check for eigenvectors                          DISABLED
 GLOBAL| Matrix multiplication library                                 ScaLAPACK
 GLOBAL| All-to-all communication in single precision                          F
 GLOBAL| FFTs using library dependent lengths                                  F
 GLOBAL| Grid backend                                                       AUTO
 GLOBAL| Global print level                                                  LOW
 GLOBAL| MPI I/O enabled                                                       T
 GLOBAL| Total number of message passing processes                             1
 GLOBAL| Number of threads for this process                                    1
 GLOBAL| This output is from process                                           0
 GLOBAL| Stack size for threads created by OpenMP (OMP_STACKSIZE)        default
 GLOBAL| CPU model name           AMD Ryzen Threadripper 3970X 32-Core Processor
 GLOBAL| CPUID                                                              1002
 GLOBAL| Compiled for CPUID                                                    0

 *** HINT in environment.F:884 :: The compiler target flags (generic) used ***
 *** to build this binary cannot exploit all extensions of this CPU model  ***
 *** (x86_avx2). Consider compiler target flags as part of FCFLAGS and     ***
 *** CFLAGS (ARCH file).                                                   ***


 MEMORY| system memory details [Kb]
 MEMORY|                        rank 0           min           max       average
 MEMORY| MemTotal            131773860     131773860     131773860     131773860
 MEMORY| MemFree             113396120     113396120     113396120     113396120
 MEMORY| Buffers                302624        302624        302624        302624
 MEMORY| Cached                7056636       7056636       7056636       7056636
 MEMORY| Slab                   780228        780228        780228        780228
 MEMORY| SReclaimable           332704        332704        332704        332704
 MEMORY| MemLikelyFree       121088084     121088084     121088084     121088084


 GENERATE|  Preliminary Number of Bonds generated:                             0
 GENERATE|  Achieved consistency in connectivity generation.

 *******************************************************************************
 *******************************************************************************
 **                                                                           **
 **     #####                         ##              ##                      **
 **    ##   ##            ##          ##              ##                      **
 **   ##     ##                       ##            ######                    **
 **   ##     ##  ##   ##  ##   #####  ##  ##   ####   ##    #####    #####    **
 **   ##     ##  ##   ##  ##  ##      ## ##   ##      ##   ##   ##  ##   ##   **
 **   ##  ## ##  ##   ##  ##  ##      ####     ###    ##   ######   ######    **
 **    ##  ###   ##   ##  ##  ##      ## ##      ##   ##   ##       ##        **
 **     #######   #####   ##   #####  ##  ##  ####    ##    #####   ##        **
 **           ##                                                    ##        **
 **                                                                           **
 **                                                ... make the atoms dance   **
 **                                                                           **
 **            Copyright (C) by CP2K developers group (2000-2023)             **
 **                      J. Chem. Phys. 152, 194103 (2020)                    **
 **                                                                           **
 *******************************************************************************


 TOTAL NUMBERS AND MAXIMUM NUMBERS

  Total number of            - Atomic kinds:                                   2
                             - Atoms:                                          6
                             - Shell sets:                                     6
                             - Shells:                                        22
                             - Primitive Cartesian functions:                 42
                             - Cartesian basis functions:                     48
                             - Spherical basis functions:                     46

  Maximum angular momentum of- Orbital basis functions:                        2
                             - Local part of the GTH pseudopotential:          2
                             - Non-local part of the GTH pseudopotential:      0

 ------------------------------ Linear scaling SCF -----------------------------
 eps_scf:                                                              0.100E-07
 eps_filter:                                                           0.100E-07
 mixing_fraction:                                                      0.450E+00
 max_scf:                                                                     25
 fixed chemical potential (mu)                                                 F
 has unit metric:                                                              F
 Computing inv(S):                                                             T
 Computing sqrt(S):                                                            T
 Computing S preconditioner                                                    F
 S sqrt method:                                                     NEWTONSCHULZ
 S sqrt order:                                                                 3
 Extrapolation order:                                                          1
 Use single precision matrices                                                 F
 S preconditioner type                                                      NONE
 Polarized Atomic Orbitals (PAO)                                               T
 Purification method                                   Trace resetting 4th order
 Cluster type                                                             ATOMIC
 Computing Chebyshev                                                       FALSE
 Using PAO                                                                     T
 -------------------------------------------------------------------------------

 
 PAO|                                  EPS_PAO                           0.5E-06
 PAO|                                  MIXING                            0.5E+00
 PAO|                                  MAX_PAO                              1500
 PAO|                                  MAX_CYCLES                           1000
 PAO|                                  PARAMETERIZATION              EQUIVARIANT
 PAO|                                  PRECONDITION                            F
 PAO|                                  REGULARIZATION                    0.0E+00
 PAO|                                  EPS_PGF                           0.1E-09
 PAO|                                  PENALTY_DISTANCE                  0.1E+00
 PAO|                                  PENALTY_STRENGTH                  0.5E-02
 PAO|                                  LINPOT_PRECONDITION_DELTA         0.0E+00
 PAO|                                  LINPOT_INITGUESS_DELT             0.0E+00
 PAO|                                  LINPOT_REGULARIZATION_DELTA       0.0E+00
 PAO|                                  LINPOT_REGULARIZATION_STRENGTH    0.0E+00
 PAO|                                  OPTIMIZER                              CG
 PAO|                                  CG_INIT_STEPS                           2
 PAO|                                  CG_RESET_LIMIT                    0.1E+00
 PAO|                                  CHECK_UNITARY_TOL                -0.1E+01
 PAO|                                  CHECK_GRADIENT_TOL               -0.1E+01
 PAO|                                  NUM_GRADIENT_ORDER                      2
 PAO|                                  NUM_GRADIENT_EPS                  0.1E-07
 PAO|                                  PRINT%RESTART%WRITE_CYCLES            100
 PAO|                                  RESTART_FILE 
 PAO|                                  PREOPT_DM_FILE 2H2O_ref_LS_DM_SPIN_1_RESTART.dm
 PAO|                                  MACHINE_LEARNING%METHOD       GAUSSIAN_PR
 PAO|                                  MACHINE_LEARNING%PRIOR               ZERO
 PAO|                                  MACHINE_LEARNING%DESCRIPTOR     POTENTIAL
 PAO|                                  MACHINE_LEARNING%TOLERANCE        0.1E-01
 PAO|                                  MACHINE_LEARNING%GP_NOISE_VAR     0.1E+00
 PAO|                                  MACHINE_LEARNING%GP_SCALE         0.5E-01
 

 Calculating atomic Fock matrix for atomic kind: O

 Electronic structure
    Total number of core electrons                                          2.00
    Total number of valence electrons                                       6.00
    Total number of electrons                                               8.00
    Multiplicity                                                   not specified
    S   [  2.00] 2.00
    P      4.00


 *******************************************************************************
                  Iteration          Convergence                     Energy [au]
 *******************************************************************************
                          1        0.708315                     -15.576645311500
                          2        0.608879                     -15.587933561584
                          3        0.102828E-01                 -15.656849565404
                          4        0.113889E-02                 -15.656866888140
                          5        0.434197E-03                 -15.656867072159
                          6        0.263771E-03                 -15.656867091904
                          7        0.478536E-06                 -15.656867103452

 Energy components [Hartree]           Total Energy ::          -15.656867103452
                                        Band Energy ::           -3.000198112285
                                     Kinetic Energy ::           11.759971203220
                                   Potential Energy ::          -27.416838306672
                                      Virial (-V/T) ::            2.331369510426
                                        Core Energy ::          -26.140716385623
                                          XC Energy ::           -3.154051012914
                                     Coulomb Energy ::           13.637900295084
                       Total Pseudopotential Energy ::          -37.935781716540
                       Local Pseudopotential Energy ::          -39.218907440693
                    Nonlocal Pseudopotential Energy ::            1.283125724153
                                        Confinement ::            0.350941276976

 Orbital energies  State     L     Occupation   Energy[a.u.]          Energy[eV]

                       1     0          2.000      -0.864471          -23.523463

                       1     1          4.000      -0.317814           -8.648154


 Total Electron Density at R=0:                                         0.000068

 Calculating atomic Fock matrix for atomic kind: H

 Electronic structure
    Total number of core electrons                                          0.00
    Total number of valence electrons                                       1.00
    Total number of electrons                                               1.00
    Multiplicity                                                   not specified
    S      1.00


 *******************************************************************************
                  Iteration          Convergence                     Energy [au]
 *******************************************************************************
                          1        0.437545E-02                  -0.424159432110
                          2        0.531356E-03                  -0.424178438213
                          3        0.259176E-06                  -0.424178722480

 Energy components [Hartree]           Total Energy ::           -0.424178722480
                                        Band Energy ::           -0.199015229016
                                     Kinetic Energy ::            0.464007633961
                                   Potential Energy ::           -0.888186356441
                                      Virial (-V/T) ::            1.914163240935
                                        Core Energy ::           -0.479160803564
                                          XC Energy ::           -0.244352904054
                                     Coulomb Energy ::            0.299334985138
                       Total Pseudopotential Energy ::           -0.962295316385
                       Local Pseudopotential Energy ::           -0.962295316385
                    Nonlocal Pseudopotential Energy ::            0.000000000000
                                        Confinement ::            0.191268788606

 Orbital energies  State     L     Occupation   Energy[a.u.]          Energy[eV]

                       1     0          1.000      -0.199015           -5.415480


 Total Electron Density at R=0:                                         0.242907
 PAO| Made initial guess for matrix_X with norm:   4.8989794855663558     

     Lanczos converged:  T threshold:   0.100E-02
     Est. extremal eigenvalues:    0.345E+01   0.118E+00
     Est. condition number :    0.293E+02

 Order=           3
     NS sqrt iter    1 1.00000000   0.845E+00       0.002       40.183
     NS sqrt iter    2 1.00000000   0.452E+00       0.001       87.289
     NS sqrt iter    3 1.00000000   0.173E+00       0.001       87.967
     NS sqrt iter    4 1.00000000   0.209E-01       0.001       86.889
     NS sqrt iter    5 1.00000000   0.538E-04       0.001       75.560
     Symmetrizing Results
     Final NS sqrt iter    5 1.00000000   0.468E-08

 PAO| Read restart DM 2H2O_ref_LS_DM_SPIN_1_RESTART.dm with checksum:    58.079238625337354     
 PAO| Quickstep energy from restart density:  -34.447252865324799     
 PAO| ======================= Iteration:         1 =============================

     Lanczos converged:  T threshold:   0.100E-02
     Est. extremal eigenvalues:    0.345E+01   0.118E+00
     Est. condition number :    0.293E+02

 Order=           3
     NS sqrt iter    1 1.00000000   0.845E+00       0.001       64.512
     NS sqrt iter    2 1.00000000   0.452E+00       0.001      110.592
     NS sqrt iter    3 1.00000000   0.173E+00       0.001      110.592
     NS sqrt iter    4 1.00000000   0.209E-01       0.001      110.592
     NS sqrt iter    5 1.00000000   0.538E-04       0.001       90.240
     Symmetrizing Results
     Final NS sqrt iter    5 1.00000000   0.468E-08

     Est. extremal eigenvalues     -0.91071     1.78264  converged:  T
     TRS4 it   1 1.00000000   0.848E+00       0.000       16.128   0.100E-07
     TRS4 it   2 1.00000000   0.664E+00       0.001       32.256   0.100E-07
     TRS4 it   3 1.00000000   0.486E+00       0.001       32.256   0.100E-07
     TRS4 it   4 1.00000000   0.306E+00       0.001       32.256   0.100E-07
     TRS4 it   5 1.00000000   0.150E+00       0.001       32.256   0.100E-07
     TRS4 it   6 1.00000000   0.447E-01       0.001       32.256   0.100E-07
     TRS4 it   7 1.00000000   0.557E-02       0.001       32.256   0.100E-07
     TRS4 it   8 1.00000000   0.113E-03       0.001       32.256   0.100E-07
     TRS4 it   9 1.00000000   0.514E-07       0.001       32.256   0.100E-07
     Final TRS4 iteration    9 1.00000000   0.514E-07
     Chemical potential (mu):      -0.07790
 
 PAO| energy:  -7.6456889268056267      penalty:   3.3896367021215354E-033
 PAO|CG| warming up with steepest descent
 PAO|CG| beta:    0.0000000000000000     
 PAO| norm of gradient:  0.77968284500066187     
 PAO|LS| adapt:  T F F
 PAO|LS| adapt: scan_steps:    0.0000000000000000        0.0000000000000000        0.0000000000000000     
 PAO|LS| adapt: energies:   -7.6456889268056267        0.0000000000000000        0.0000000000000000     
 PAO| ======================= Iteration:         2 =============================

     Lanczos converged:  T threshold:   0.100E-02
     Est. extremal eigenvalues:    0.336E+01   0.133E+00
     Est. condition number :    0.253E+02

 Order=           3
     NS sqrt iter    1 1.00000000   0.827E+00       0.001       64.512
     NS sqrt iter    2 1.00000000   0.436E+00       0.001      110.452
     NS sqrt iter    3 1.00000000   0.155E+00       0.001      110.050
     NS sqrt iter    4 1.00000000   0.145E-01       0.001      110.592
     NS sqrt iter    5 1.00000000   0.164E-04       0.001       82.944
     Symmetrizing Results
     Final NS sqrt iter    5 1.00000000   0.391E-09

     Est. extremal eigenvalues     -0.91428     1.73603  converged:  T
     TRS4 it   1 1.00000000   0.844E+00       0.000       16.128   0.100E-07
     TRS4 it   2 1.00000000   0.648E+00       0.001       32.256   0.100E-07
     TRS4 it   3 1.00000000   0.469E+00       0.001       32.256   0.100E-07
     TRS4 it   4 1.00000000   0.285E+00       0.017        1.941   0.100E-07
     TRS4 it   5 1.00000000   0.131E+00       0.001       32.256   0.100E-07
     TRS4 it   6 1.00000000   0.342E-01       0.001       32.256   0.100E-07
     TRS4 it   7 1.00000000   0.332E-02       0.001       32.256   0.100E-07
     TRS4 it   8 1.00000000   0.405E-04       0.001       32.256   0.100E-07
     TRS4 it   9 1.00000000   0.666E-08       0.001       32.256   0.100E-07
     Final TRS4 iteration    9 1.00000000   0.666E-08
     Chemical potential (mu):      -0.06743
 
 PAO| energy:  -7.7005826364460557      penalty:   2.2066076299364557E-008
 PAO|LS| adapt:  T T F
 PAO|LS| adapt: scan_steps:    0.0000000000000000       0.10000000000000001        0.0000000000000000     
 PAO|LS| adapt: energies:   -7.6456889268056267       -7.7005826364460557        0.0000000000000000     
 PAO| ======================= Iteration:         3 =============================

     Lanczos converged:  T threshold:   0.100E-02
     Est. extremal eigenvalues:    0.326E+01   0.147E+00
     Est. condition number :    0.222E+02

 Order=           3
     NS sqrt iter    1 1.00000000   0.809E+00       0.001       64.512
     NS sqrt iter    2 1.00000000   0.419E+00       0.001      109.853
     NS sqrt iter    3 1.00000000   0.138E+00       0.001      109.440
     NS sqrt iter    4 1.00000000   0.100E-01       0.001      110.592
     NS sqrt iter    5 1.00000000   0.501E-05       0.001       82.944
     Symmetrizing Results
     Final NS sqrt iter    5 1.00000000   0.343E-10

     Est. extremal eigenvalues     -0.91764     1.70376  converged:  T
     TRS4 it   1 1.00000000   0.842E+00       0.000       16.128   0.100E-07
     TRS4 it   2 1.00000000   0.634E+00       0.001       32.256   0.100E-07
     TRS4 it   3 1.00000000   0.454E+00       0.001       32.256   0.100E-07
     TRS4 it   4 1.00000000   0.266E+00       0.001       32.256   0.100E-07
     TRS4 it   5 1.00000000   0.113E+00       0.017        1.941   0.100E-07
     TRS4 it   6 1.00000000   0.257E-01       0.001       32.256   0.100E-07
     TRS4 it   7 1.00000000   0.187E-02       0.001       32.256   0.100E-07
     TRS4 it   8 1.00000000   0.129E-04       0.001       32.256   0.100E-07
     TRS4 it   9 1.00000000   0.684E-09       0.001       32.256   0.100E-07
     Final TRS4 iteration    9 1.00000000   0.684E-09
     Chemical potential (mu):      -0.05589
 
 PAO| energy:  -7.7430481969642697      penalty:   3.5305729986433445E-007
 PAO|LS| adapt:  T T F
 PAO|LS| adapt: scan_steps:    0.0000000000000000       0.20000000000000001        0.0000000000000000     
 PAO|LS| adapt: energies:   -7.6456889268056267       -7.7430481969642697        0.0000000000000000     
 PAO| ======================= Iteration:         4 =============================

     Lanczos converged:  T threshold:   0.100E-02
     Est. extremal eigenvalues:    0.305E+01   0.164E+00
     Est. condition number :    0.186E+02

 Order=           3
     NS sqrt iter    1 1.00000000   0.768E+00       0.001       64.512
     NS sqrt iter    2 1.00000000   0.383E+00       0.001      110.592
     NS sqrt iter    3 1.00000000   0.108E+00       0.001      110.592
     NS sqrt iter    4 1.00000000   0.486E-02       0.001      110.592
     NS sqrt iter    5 1.00000000   0.665E-06       0.001       82.688
     Symmetrizing Results
     Final NS sqrt iter    5 1.00000000   0.854E-10

     Est. extremal eigenvalues     -0.92293     1.66828  converged:  T
     TRS4 it   1 1.00000000   0.845E+00       0.000       16.128   0.100E-07
     TRS4 it   2 1.00000000   0.615E+00       0.001       32.256   0.100E-07
     TRS4 it   3 1.00000000   0.429E+00       0.001       32.256   0.100E-07
     TRS4 it   4 1.00000000   0.233E+00       0.001       32.256   0.100E-07
     TRS4 it   5 1.00000000   0.851E-01       0.017        1.938   0.100E-07
     TRS4 it   6 1.00000000   0.139E-01       0.001       32.256   0.100E-07
     TRS4 it   7 1.00000000   0.527E-03       0.001       32.256   0.100E-07
     TRS4 it   8 1.00000000   0.103E-05       0.001       32.256   0.100E-07
     TRS4 it   9 1.00000000   0.441E-11       0.001       32.256   0.100E-07
     Final TRS4 iteration    9 1.00000000   0.441E-11
     Chemical potential (mu):      -0.03060
 
 PAO| energy:  -7.7891961925692419      penalty:   5.6489174304314923E-006
 PAO|LS| Need extra step
 PAO|LS| adapt:  T T F
 PAO|LS| adapt: scan_steps:    0.0000000000000000       0.40000000000000002        0.0000000000000000     
 PAO|LS| adapt: energies:   -7.6456889268056267       -7.7891961925692419        0.0000000000000000     
 PAO| ======================= Iteration:         5 =============================

     Lanczos converged:  T threshold:   0.100E-02
     Est. extremal eigenvalues:    0.266E+01   0.186E+00
     Est. condition number :    0.143E+02

 Order=           3
     NS sqrt iter    1 1.00000000   0.695E+00       0.001       64.512
     NS sqrt iter    2 1.00000000   0.317E+00       0.001      110.592
     NS sqrt iter    3 1.00000000   0.652E-01       0.001      110.592
     NS sqrt iter    4 1.00000000   0.131E-02       0.001      110.592
     NS sqrt iter    5 1.00000000   0.222E-07       0.001       57.216
     Symmetrizing Results
     Final NS sqrt iter    5 1.00000000   0.371E-08

     Est. extremal eigenvalues     -0.92465     1.64441  converged:  T
     TRS4 it   1 1.00000000   0.857E+00       0.000       16.128   0.100E-07
     TRS4 it   2 1.00000000   0.593E+00       0.001       32.256   0.100E-07
     TRS4 it   3 1.00000000   0.394E+00       0.001       32.256   0.100E-07
     TRS4 it   4 1.00000000   0.187E+00       0.001       32.256   0.100E-07
     TRS4 it   5 1.00000000   0.506E-01       0.001       32.256   0.100E-07
     TRS4 it   6 1.00000000   0.431E-02       0.017        1.940   0.100E-07
     TRS4 it   7 1.00000000   0.410E-04       0.001       32.256   0.100E-07
     TRS4 it   8 1.00000000   0.555E-08       0.001       32.256   0.100E-07
     Final TRS4 iteration    8 1.00000000   0.555E-08
     Chemical potential (mu):       0.01880
 
 PAO| energy:  -7.7331594072714314      penalty:   9.0382683947749255E-005
 PAO|LS| Need extra step
 PAO|LS| adapt:  T T T
 PAO|LS| adapt: scan_steps:    0.0000000000000000       0.40000000000000002       0.80000000000000004     
 PAO|LS| adapt: energies:   -7.6456889268056267       -7.7891961925692419       -7.7331594072714314     
 PAO|LS| adapt: suggested step_size:   0.48767034647289859     
 PAO|LS| adapt: predicted energy  -7.7939890471496094     
 PAO| ======================= Iteration:         6 =============================

     Lanczos converged:  T threshold:   0.100E-02
     Est. extremal eigenvalues:    0.296E+01   0.169E+00
     Est. condition number :    0.175E+02

 Order=           3
     NS sqrt iter    1 1.00000000   0.750E+00       0.001       59.020
     NS sqrt iter    2 1.00000000   0.367E+00       0.001       99.004
     NS sqrt iter    3 1.00000000   0.963E-01       0.001       99.542
     NS sqrt iter    4 1.00000000   0.359E-02       0.001       98.461
     NS sqrt iter    5 1.00000000   0.313E-06       0.001       76.152
     Symmetrizing Results
     Final NS sqrt iter    5 1.00000000   0.251E-09

     Est. extremal eigenvalues     -0.92441     1.65989  converged:  T
     TRS4 it   1 1.00000000   0.847E+00       0.000       16.128   0.100E-07
     TRS4 it   2 1.00000000   0.609E+00       0.001       32.256   0.100E-07
     TRS4 it   3 1.00000000   0.420E+00       0.001       32.256   0.100E-07
     TRS4 it   4 1.00000000   0.221E+00       0.001       32.256   0.100E-07
     TRS4 it   5 1.00000000   0.752E-01       0.017        1.931   0.100E-07
     TRS4 it   6 1.00000000   0.106E-01       0.001       32.256   0.100E-07
     TRS4 it   7 1.00000000   0.293E-03       0.001       32.256   0.100E-07
     TRS4 it   8 1.00000000   0.316E-06       0.001       32.256   0.100E-07
     TRS4 it   9 1.00000000   0.424E-12       0.001       32.256   0.100E-07
     Final TRS4 iteration    9 1.00000000   0.424E-12
     Chemical potential (mu):      -0.01904
 
 PAO| energy:  -7.7932598709864269      penalty:   1.2480462050383823E-005
 PAO|CG| warming up with steepest descent
 PAO|CG| beta:    0.0000000000000000     
 PAO| norm of gradient:  0.41583634541720516     
 PAO| energy improvement: -0.14757094418080019     
 PAO| step      6                   -7.793259871  0.260E-01  0.488E+00     0.165
 PAO|LS| adapt:  T F F
 PAO|LS| adapt: scan_steps:    0.0000000000000000        0.0000000000000000        0.0000000000000000     
 PAO|LS| adapt: energies:   -7.7932598709864269        0.0000000000000000        0.0000000000000000     
 PAO| ======================= Iteration:         7 =============================

     Lanczos converged:  T threshold:   0.100E-02
     Est. extremal eigenvalues:    0.286E+01   0.183E+00
     Est. condition number :    0.157E+02

 Order=           3
     NS sqrt iter    1 1.00000000   0.730E+00       0.001       57.385
     NS sqrt iter    2 1.00000000   0.345E+00       0.001       98.621
     NS sqrt iter    3 1.00000000   0.803E-01       0.001       98.491
     NS sqrt iter    4 1.00000000   0.216E-02       0.021        5.227
     NS sqrt iter    5 1.00000000   0.775E-07       0.001       66.954
     Symmetrizing Results
     Final NS sqrt iter    5 1.00000000   0.331E-09

     Est. extremal eigenvalues     -0.92597     1.65847  converged:  T
     TRS4 it   1 1.00000000   0.851E+00       0.000       16.128   0.100E-07
     TRS4 it   2 1.00000000   0.610E+00       0.001       32.256   0.100E-07
     TRS4 it   3 1.00000000   0.423E+00       0.001       32.256   0.100E-07
     TRS4 it   4 1.00000000   0.224E+00       0.001       32.256   0.100E-07
     TRS4 it   5 1.00000000   0.769E-01       0.001       32.256   0.100E-07
     TRS4 it   6 1.00000000   0.107E-01       0.001       32.256   0.100E-07
     TRS4 it   7 1.00000000   0.272E-03       0.001       32.256   0.100E-07
     TRS4 it   8 1.00000000   0.260E-06       0.001       32.256   0.100E-07
     TRS4 it   9 1.00000000   0.288E-12       0.001       32.256   0.100E-07
     Final TRS4 iteration    9 1.00000000   0.288E-12
     Chemical potential (mu):      -0.01544
 
 PAO| energy:  -7.7870493809774040      penalty:   1.9125687859117363E-005
 PAO|LS| adapt:  T F T
 PAO|LS| adapt: scan_steps:    0.0000000000000000        0.0000000000000000       0.48767034647289859     
 PAO|LS| adapt: energies:   -7.7932598709864269        0.0000000000000000       -7.7870493809774040     
 PAO| ======================= Iteration:         8 =============================

     Lanczos converged:  T threshold:   0.100E-02
     Est. extremal eigenvalues:    0.291E+01   0.176E+00
     Est. condition number :    0.166E+02

 Order=           3
     NS sqrt iter    1 1.00000000   0.740E+00       0.001       58.837
     NS sqrt iter    2 1.00000000   0.356E+00       0.001       98.811
     NS sqrt iter    3 1.00000000   0.881E-01       0.017        6.436
     NS sqrt iter    4 1.00000000   0.280E-02       0.001      101.752
     NS sqrt iter    5 1.00000000   0.158E-06       0.001       73.472
     Symmetrizing Results
     Final NS sqrt iter    5 1.00000000   0.607E-09

     Est. extremal eigenvalues     -0.92571     1.65882  converged:  T
     TRS4 it   1 1.00000000   0.848E+00       0.000       16.128   0.100E-07
     TRS4 it   2 1.00000000   0.609E+00       0.001       32.256   0.100E-07
     TRS4 it   3 1.00000000   0.421E+00       0.001       32.256   0.100E-07
     TRS4 it   4 1.00000000   0.222E+00       0.001       32.256   0.100E-07
     TRS4 it   5 1.00000000   0.758E-01       0.001       32.256   0.100E-07
     TRS4 it   6 1.00000000   0.107E-01       0.001       32.256   0.100E-07
     TRS4 it   7 1.00000000   0.289E-03       0.001       32.256   0.100E-07
     TRS4 it   8 1.00000000   0.303E-06       0.001       32.256   0.100E-07
     TRS4 it   9 1.00000000   0.390E-12       0.001       32.256   0.100E-07
     Final TRS4 iteration    9 1.00000000   0.390E-12
     Chemical potential (mu):      -0.01750
 
 PAO| energy:  -7.8126012791382076      penalty:   1.3572567495887645E-005
 PAO|LS| adapt:  T T T
 PAO|LS| adapt: scan_steps:    0.0000000000000000       0.24383517323644929       0.48767034647289859     
 PAO|LS| adapt: energies:   -7.7932598709864269       -7.8126012791382076       -7.7870493809774040     
 PAO|LS| adapt: suggested step_size:   0.22696923005229955     
 PAO|LS| adapt: predicted energy  -7.8127086731723079     
 PAO| ======================= Iteration:         9 =============================

     Lanczos converged:  T threshold:   0.100E-02
     Est. extremal eigenvalues:    0.292E+01   0.175E+00
     Est. condition number :    0.166E+02

 Order=           3
     NS sqrt iter    1 1.00000000   0.741E+00       0.001       58.126
     NS sqrt iter    2 1.00000000   0.357E+00       0.001       97.206
     NS sqrt iter    3 1.00000000   0.886E-01       0.001       97.501
     NS sqrt iter    4 1.00000000   0.285E-02       0.001       97.934
     NS sqrt iter    5 1.00000000   0.166E-06       0.001       73.005
     Symmetrizing Results
     Final NS sqrt iter    5 1.00000000   0.640E-09

     Est. extremal eigenvalues     -0.92566     1.65887  converged:  T
     TRS4 it   1 1.00000000   0.848E+00       0.000       16.128   0.100E-07
     TRS4 it   2 1.00000000   0.609E+00       0.001       32.256   0.100E-07
     TRS4 it   3 1.00000000   0.420E+00       0.001       32.256   0.100E-07
     TRS4 it   4 1.00000000   0.222E+00       0.001       32.256   0.100E-07
     TRS4 it   5 1.00000000   0.757E-01       0.001       32.256   0.100E-07
     TRS4 it   6 1.00000000   0.107E-01       0.001       32.256   0.100E-07
     TRS4 it   7 1.00000000   0.290E-03       0.001       32.256   0.100E-07
     TRS4 it   8 1.00000000   0.305E-06       0.001       32.256   0.100E-07
     TRS4 it   9 1.00000000   0.396E-12       0.001       32.256   0.100E-07
     Final TRS4 iteration    9 1.00000000   0.396E-12
     Chemical potential (mu):      -0.01762
 
 PAO| energy:  -7.8127307891085938      penalty:   1.3393810537954683E-005
 PAO|CG| trace_G_new    3.8069816368002912E-002
 PAO|CG| trace_G_prev   0.17291986616993715     
 PAO|CG| trace_G_mix   -1.2600005008782146E-003
 PAO|CG| trace_D   0.17291986616993715     
 PAO|CG| trace_D_Gnew   1.2600005008782146E-003
 PAO|CG| beta:   0.22744533488263119     
 PAO| norm of gradient:  0.19511487992463034     
 PAO| energy improvement:  -1.9470918122166836E-002
 PAO| step      9                   -7.812730789  0.122E-01  0.227E+00     0.094
 PAO|LS| adapt:  T F F
 PAO|LS| adapt: scan_steps:    0.0000000000000000        0.0000000000000000        0.0000000000000000     
 PAO|LS| adapt: energies:   -7.8127307891085938        0.0000000000000000        0.0000000000000000     
 PAO| ======================= Iteration:        10 =============================

     Lanczos converged:  T threshold:   0.100E-02
     Est. extremal eigenvalues:    0.287E+01   0.180E+00
     Est. condition number :    0.159E+02

 Order=           3
     NS sqrt iter    1 1.00000000   0.731E+00       0.001       60.009
     NS sqrt iter    2 1.00000000   0.348E+00       0.001       97.735
     NS sqrt iter    3 1.00000000   0.826E-01       0.001       98.550
     NS sqrt iter    4 1.00000000   0.233E-02       0.001       99.026
     NS sqrt iter    5 1.00000000   0.951E-07       0.001       67.916
     Symmetrizing Results
     Final NS sqrt iter    5 1.00000000   0.455E-09

     Est. extremal eigenvalues     -0.92661     1.66512  converged:  T
     TRS4 it   1 1.00000000   0.851E+00       0.000       16.128   0.100E-07
     TRS4 it   2 1.00000000   0.610E+00       0.001       32.256   0.100E-07
     TRS4 it   3 1.00000000   0.421E+00       0.001       32.256   0.100E-07
     TRS4 it   4 1.00000000   0.222E+00       0.001       32.256   0.100E-07
     TRS4 it   5 1.00000000   0.751E-01       0.001       32.256   0.100E-07
     TRS4 it   6 1.00000000   0.104E-01       0.001       32.256   0.100E-07
     TRS4 it   7 1.00000000   0.267E-03       0.001       32.256   0.100E-07
     TRS4 it   8 1.00000000   0.256E-06       0.001       32.256   0.100E-07
     TRS4 it   9 1.00000000   0.280E-12       0.001       32.256   0.100E-07
     Final TRS4 iteration    9 1.00000000   0.280E-12
     Chemical potential (mu):      -0.01477
 
 PAO| energy:  -7.8177990559798021      penalty:   1.3944865438168421E-005
 PAO|LS| adapt:  T T F
 PAO|LS| adapt: scan_steps:    0.0000000000000000       0.22696923005229955        0.0000000000000000     
 PAO|LS| adapt: energies:   -7.8127307891085938       -7.8177990559798021        0.0000000000000000     
 PAO| ======================= Iteration:        11 =============================

     Lanczos converged:  T threshold:   0.100E-02
     Est. extremal eigenvalues:    0.282E+01   0.185E+00
     Est. condition number :    0.152E+02

 Order=           3
     NS sqrt iter    1 1.00000000   0.721E+00       0.001       58.445
     NS sqrt iter    2 1.00000000   0.338E+00       0.001       99.861
     NS sqrt iter    3 1.00000000   0.767E-01       0.001      100.437
     NS sqrt iter    4 1.00000000   0.190E-02       0.001       97.804
     NS sqrt iter    5 1.00000000   0.532E-07       0.001       63.800
     Symmetrizing Results
     Final NS sqrt iter    5 1.00000000   0.210E-08

     Est. extremal eigenvalues     -0.92629     1.67218  converged:  T
     TRS4 it   1 1.00000000   0.853E+00       0.000       16.128   0.100E-07
     TRS4 it   2 1.00000000   0.612E+00       0.001       32.256   0.100E-07
     TRS4 it   3 1.00000000   0.422E+00       0.001       32.256   0.100E-07
     TRS4 it   4 1.00000000   0.221E+00       0.001       32.256   0.100E-07
     TRS4 it   5 1.00000000   0.744E-01       0.001       32.256   0.100E-07
     TRS4 it   6 1.00000000   0.101E-01       0.001       32.256   0.100E-07
     TRS4 it   7 1.00000000   0.245E-03       0.001       32.256   0.100E-07
     TRS4 it   8 1.00000000   0.212E-06       0.001       32.256   0.100E-07
     TRS4 it   9 1.00000000   0.194E-12       0.001       32.256   0.100E-07
     Final TRS4 iteration    9 1.00000000   0.194E-12
     Chemical potential (mu):      -0.01176
 
 PAO| energy:  -7.8161211103463337      penalty:   1.5150388099725833E-005
 PAO|LS| adapt:  T T T
 PAO|LS| adapt: scan_steps:    0.0000000000000000       0.22696923005229955       0.45393846010459910     
 PAO|LS| adapt: energies:   -7.8127307891085938       -7.8177990559798021       -7.8161211103463337     
 PAO|LS| adapt: suggested step_size:   0.28400112761158641     
 PAO|LS| adapt: predicted energy  -7.8180120324848987     
 PAO| ======================= Iteration:        12 =============================

     Lanczos converged:  T threshold:   0.100E-02
     Est. extremal eigenvalues:    0.286E+01   0.182E+00
     Est. condition number :    0.157E+02

 Order=           3
     NS sqrt iter    1 1.00000000   0.729E+00       0.001       58.213
     NS sqrt iter    2 1.00000000   0.345E+00       0.001       98.730
     NS sqrt iter    3 1.00000000   0.811E-01       0.001       98.143
     NS sqrt iter    4 1.00000000   0.222E-02       0.001       99.527
     NS sqrt iter    5 1.00000000   0.824E-07       0.001       68.148
     Symmetrizing Results
     Final NS sqrt iter    5 1.00000000   0.400E-09

     Est. extremal eigenvalues     -0.92665     1.66683  converged:  T
     TRS4 it   1 1.00000000   0.851E+00       0.000       16.128   0.100E-07
     TRS4 it   2 1.00000000   0.611E+00       0.001       32.256   0.100E-07
     TRS4 it   3 1.00000000   0.421E+00       0.001       32.256   0.100E-07
     TRS4 it   4 1.00000000   0.222E+00       0.001       32.256   0.100E-07
     TRS4 it   5 1.00000000   0.749E-01       0.001       32.256   0.100E-07
     TRS4 it   6 1.00000000   0.103E-01       0.001       32.256   0.100E-07
     TRS4 it   7 1.00000000   0.262E-03       0.001       32.256   0.100E-07
     TRS4 it   8 1.00000000   0.245E-06       0.001       32.256   0.100E-07
     TRS4 it   9 1.00000000   0.256E-12       0.001       32.256   0.100E-07
     Final TRS4 iteration    9 1.00000000   0.256E-12
     Chemical potential (mu):      -0.01402
 
 PAO| energy:  -7.8179957744088613      penalty:   1.4179240355445756E-005
 PAO|CG| trace_G_new    1.1580636676139018E-002
 PAO|CG| trace_G_prev    3.8069816368002912E-002
 PAO|CG| trace_G_mix   -4.6697549657810362E-004
 PAO|CG| trace_D    4.6442037264869077E-002
 PAO|CG| trace_D_Gnew   2.4804065742670741E-004
 PAO|CG| beta:   0.31646100039618136     
 PAO| norm of gradient:  0.10761336662394230     
 PAO| energy improvement:  -5.2649853002675329E-003
 PAO| step     12                   -7.817995774  0.673E-02  0.284E+00     0.058
 PAO|LS| adapt:  T F F
 PAO|LS| adapt: scan_steps:    0.0000000000000000        0.0000000000000000        0.0000000000000000     
 PAO|LS| adapt: energies:   -7.8179957744088613        0.0000000000000000        0.0000000000000000     
 PAO| ======================= Iteration:        13 =============================

     Lanczos converged:  T threshold:   0.100E-02
     Est. extremal eigenvalues:    0.282E+01   0.185E+00
     Est. condition number :    0.152E+02

 Order=           3
     NS sqrt iter    1 1.00000000   0.720E+00       0.001       59.108
     NS sqrt iter    2 1.00000000   0.338E+00       0.001       98.681
     NS sqrt iter    3 1.00000000   0.766E-01       0.001       97.862
     NS sqrt iter    4 1.00000000   0.190E-02       0.001       99.475
     NS sqrt iter    5 1.00000000   0.536E-07       0.001       62.905
     Symmetrizing Results
     Final NS sqrt iter    5 1.00000000   0.215E-08

     Est. extremal eigenvalues     -0.92717     1.66928  converged:  T
     TRS4 it   1 1.00000000   0.853E+00       0.000       16.128   0.100E-07
     TRS4 it   2 1.00000000   0.610E+00       0.001       32.256   0.100E-07
     TRS4 it   3 1.00000000   0.420E+00       0.001       32.256   0.100E-07
     TRS4 it   4 1.00000000   0.219E+00       0.001       32.256   0.100E-07
     TRS4 it   5 1.00000000   0.725E-01       0.001       32.256   0.100E-07
     TRS4 it   6 1.00000000   0.955E-02       0.001       32.256   0.100E-07
     TRS4 it   7 1.00000000   0.220E-03       0.001       32.256   0.100E-07
     TRS4 it   8 1.00000000   0.171E-06       0.001       32.256   0.100E-07
     TRS4 it   9 1.00000000   0.126E-12       0.001       32.256   0.100E-07
     Final TRS4 iteration    9 1.00000000   0.126E-12
     Chemical potential (mu):      -0.00996
 
 PAO| energy:  -7.8199906867680333      penalty:   1.4446406927341594E-005
 PAO|LS| adapt:  T T F
 PAO|LS| adapt: scan_steps:    0.0000000000000000       0.28400112761158641        0.0000000000000000     
 PAO|LS| adapt: energies:   -7.8179957744088613       -7.8199906867680333        0.0000000000000000     
 PAO| ======================= Iteration:        14 =============================

     Lanczos converged:  T threshold:   0.100E-02
     Est. extremal eigenvalues:    0.278E+01   0.188E+00
     Est. condition number :    0.148E+02

 Order=           3
     NS sqrt iter    1 1.00000000   0.711E+00       0.001       59.379
     NS sqrt iter    2 1.00000000   0.330E+00       0.001       98.437
     NS sqrt iter    3 1.00000000   0.723E-01       0.001      100.112
     NS sqrt iter    4 1.00000000   0.162E-02       0.001       98.656
     NS sqrt iter    5 1.00000000   0.346E-07       0.001       58.537
     Symmetrizing Results
     Final NS sqrt iter    5 1.00000000   0.231E-08

     Est. extremal eigenvalues     -0.92715     1.67167  converged:  T
     TRS4 it   1 1.00000000   0.856E+00       0.000       16.128   0.100E-07
     TRS4 it   2 1.00000000   0.610E+00       0.001       32.256   0.100E-07
     TRS4 it   3 1.00000000   0.418E+00       0.001       32.256   0.100E-07
     TRS4 it   4 1.00000000   0.216E+00       0.001       32.256   0.100E-07
     TRS4 it   5 1.00000000   0.701E-01       0.001       32.256   0.100E-07
     TRS4 it   6 1.00000000   0.885E-02       0.001       32.256   0.100E-07
     TRS4 it   7 1.00000000   0.186E-03       0.001       32.256   0.100E-07
     TRS4 it   8 1.00000000   0.120E-06       0.001       32.256   0.100E-07
     TRS4 it   9 1.00000000   0.625E-13       0.001       32.256   0.100E-07
     Final TRS4 iteration    9 1.00000000   0.625E-13
     Chemical potential (mu):      -0.00596
 
 PAO| energy:  -7.8194852358768836      penalty:   1.5132241789007810E-005
 PAO|LS| adapt:  T T T
 PAO|LS| adapt: scan_steps:    0.0000000000000000       0.28400112761158641       0.56800225522317283     
 PAO|LS| adapt: energies:   -7.8179957744088613       -7.8199906867680333       -7.8194852358768836     
 PAO|LS| adapt: suggested step_size:   0.36859058404314865     
 PAO|LS| adapt: predicted energy  -7.8201015954262267     
 PAO| ======================= Iteration:        15 =============================

     Lanczos converged:  T threshold:   0.100E-02
     Est. extremal eigenvalues:    0.281E+01   0.186E+00
     Est. condition number :    0.151E+02

 Order=           3
     NS sqrt iter    1 1.00000000   0.717E+00       0.001       56.140
     NS sqrt iter    2 1.00000000   0.336E+00       0.001       97.639
     NS sqrt iter    3 1.00000000   0.753E-01       0.001       97.434
     NS sqrt iter    4 1.00000000   0.181E-02       0.001       98.974
     NS sqrt iter    5 1.00000000   0.471E-07       0.001       61.669
     Symmetrizing Results
     Final NS sqrt iter    5 1.00000000   0.323E-09

     Est. extremal eigenvalues     -0.92722     1.67000  converged:  T
     TRS4 it   1 1.00000000   0.854E+00       0.000       16.128   0.100E-07
     TRS4 it   2 1.00000000   0.610E+00       0.001       32.256   0.100E-07
     TRS4 it   3 1.00000000   0.419E+00       0.001       32.256   0.100E-07
     TRS4 it   4 1.00000000   0.218E+00       0.001       32.256   0.100E-07
     TRS4 it   5 1.00000000   0.718E-01       0.001       32.256   0.100E-07
     TRS4 it   6 1.00000000   0.933E-02       0.001       32.256   0.100E-07
     TRS4 it   7 1.00000000   0.209E-03       0.001       32.256   0.100E-07
     TRS4 it   8 1.00000000   0.154E-06       0.001       32.256   0.100E-07
     TRS4 it   9 1.00000000   0.102E-12       0.001       32.256   0.100E-07
     Final TRS4 iteration    9 1.00000000   0.102E-12
     Chemical potential (mu):      -0.00876
 
 PAO| energy:  -7.8200986470530776      penalty:   1.4604204260259276E-005
 PAO|CG| trace_G_new    2.5112550944806724E-003
 PAO|CG| trace_G_prev    1.1580636676139018E-002
 PAO|CG| trace_G_mix    7.8303206809977020E-005
 PAO|CG| trace_D    1.6074703222078244E-002
 PAO|CG| trace_D_Gnew   2.8106731356488057E-005
 PAO|CG| beta:   0.21008792139067789     
 PAO| norm of gradient:   5.0112424552007782E-002
 PAO| energy improvement:  -2.1028726442162693E-003
 PAO| step     15                   -7.820098647  0.313E-02  0.369E+00     0.058
 PAO|LS| adapt:  T F F
 PAO|LS| adapt: scan_steps:    0.0000000000000000        0.0000000000000000        0.0000000000000000     
 PAO|LS| adapt: energies:   -7.8200986470530776        0.0000000000000000        0.0000000000000000     
 PAO| ======================= Iteration:        16 =============================

     Lanczos converged:  T threshold:   0.100E-02
     Est. extremal eigenvalues:    0.279E+01   0.187E+00
     Est. condition number :    0.149E+02

 Order=           3
     NS sqrt iter    1 1.00000000   0.715E+00       0.001       58.394
     NS sqrt iter    2 1.00000000   0.334E+00       0.001       96.632
     NS sqrt iter    3 1.00000000   0.743E-01       0.001       98.471
     NS sqrt iter    4 1.00000000   0.174E-02       0.001       98.010
     NS sqrt iter    5 1.00000000   0.411E-07       0.001       62.064
     Symmetrizing Results
     Final NS sqrt iter    5 1.00000000   0.312E-09

     Est. extremal eigenvalues     -0.92726     1.66971  converged:  T
     TRS4 it   1 1.00000000   0.855E+00       0.000       16.128   0.100E-07
     TRS4 it   2 1.00000000   0.610E+00       0.017        1.924   0.100E-07
     TRS4 it   3 1.00000000   0.418E+00       0.001       32.256   0.100E-07
     TRS4 it   4 1.00000000   0.216E+00       0.001       32.256   0.100E-07
     TRS4 it   5 1.00000000   0.706E-01       0.001       32.256   0.100E-07
     TRS4 it   6 1.00000000   0.902E-02       0.001       32.256   0.100E-07
     TRS4 it   7 1.00000000   0.196E-03       0.001       32.256   0.100E-07
     TRS4 it   8 1.00000000   0.135E-06       0.001       32.256   0.100E-07
     TRS4 it   9 1.00000000   0.783E-13       0.001       32.256   0.100E-07
     Final TRS4 iteration    9 1.00000000   0.783E-13
     Chemical potential (mu):      -0.00757
 
 PAO| energy:  -7.8202118640819558      penalty:   1.4382478893241567E-005
 PAO|LS| adapt:  T T F
 PAO|LS| adapt: scan_steps:    0.0000000000000000       0.36859058404314865        0.0000000000000000     
 PAO|LS| adapt: energies:   -7.8200986470530776       -7.8202118640819558        0.0000000000000000     
 PAO| ======================= Iteration:        17 =============================

     Lanczos converged:  T threshold:   0.100E-02
     Est. extremal eigenvalues:    0.278E+01   0.188E+00
     Est. condition number :    0.148E+02

 Order=           3
     NS sqrt iter    1 1.00000000   0.712E+00       0.001       58.004
     NS sqrt iter    2 1.00000000   0.332E+00       0.001       97.161
     NS sqrt iter    3 1.00000000   0.733E-01       0.001       97.933
     NS sqrt iter    4 1.00000000   0.167E-02       0.001       97.981
     NS sqrt iter    5 1.00000000   0.359E-07       0.001       58.011
     Symmetrizing Results
     Final NS sqrt iter    5 1.00000000   0.242E-08

     Est. extremal eigenvalues     -0.92711     1.66949  converged:  T
     TRS4 it   1 1.00000000   0.855E+00       0.000       16.128   0.100E-07
     TRS4 it   2 1.00000000   0.609E+00       0.001       32.256   0.100E-07
     TRS4 it   3 1.00000000   0.417E+00       0.001       32.256   0.100E-07
     TRS4 it   4 1.00000000   0.215E+00       0.001       32.256   0.100E-07
     TRS4 it   5 1.00000000   0.694E-01       0.001       32.256   0.100E-07
     TRS4 it   6 1.00000000   0.871E-02       0.001       32.256   0.100E-07
     TRS4 it   7 1.00000000   0.183E-03       0.001       32.256   0.100E-07
     TRS4 it   8 1.00000000   0.118E-06       0.001       32.256   0.100E-07
     TRS4 it   9 1.00000000   0.600E-13       0.001       32.256   0.100E-07
     Final TRS4 iteration    9 1.00000000   0.600E-13
     Chemical potential (mu):      -0.00638
 
 PAO| energy:  -7.8187003041398366      penalty:   1.4274485378174818E-005
 PAO|LS| adapt:  T T T
 PAO|LS| adapt: scan_steps:    0.0000000000000000       0.36859058404314865       0.73718116808629730     
 PAO|LS| adapt: energies:   -7.8200986470530776       -7.8202118640819558       -7.8187003041398366     
 PAO|LS| adapt: suggested step_size:   0.20997926683335455     
 PAO|LS| adapt: predicted energy  -7.8203622972597024     
 PAO| ======================= Iteration:        18 =============================

     Lanczos converged:  T threshold:   0.100E-02
     Est. extremal eigenvalues:    0.280E+01   0.186E+00
     Est. condition number :    0.150E+02

 Order=           3
     NS sqrt iter    1 1.00000000   0.716E+00       0.001       58.476
     NS sqrt iter    2 1.00000000   0.335E+00       0.001       97.852
     NS sqrt iter    3 1.00000000   0.747E-01       0.001       98.476
     NS sqrt iter    4 1.00000000   0.177E-02       0.001       98.756
     NS sqrt iter    5 1.00000000   0.436E-07       0.001       63.721
     Symmetrizing Results
     Final NS sqrt iter    5 1.00000000   0.328E-09

     Est. extremal eigenvalues     -0.92726     1.66983  converged:  T
     TRS4 it   1 1.00000000   0.854E+00       0.000       16.128   0.100E-07
     TRS4 it   2 1.00000000   0.610E+00       0.001       32.256   0.100E-07
     TRS4 it   3 1.00000000   0.419E+00       0.001       32.256   0.100E-07
     TRS4 it   4 1.00000000   0.217E+00       0.001       32.256   0.100E-07
     TRS4 it   5 1.00000000   0.711E-01       0.001       32.256   0.100E-07
     TRS4 it   6 1.00000000   0.915E-02       0.001       32.256   0.100E-07
     TRS4 it   7 1.00000000   0.202E-03       0.001       32.256   0.100E-07
     TRS4 it   8 1.00000000   0.143E-06       0.017        1.927   0.100E-07
     TRS4 it   9 1.00000000   0.883E-13       0.001       32.256   0.100E-07
     Final TRS4 iteration    9 1.00000000   0.883E-13
     Chemical potential (mu):      -0.00808
 
 PAO| energy:  -7.8203619427570832      penalty:   1.4464190139910743E-005
 PAO|CG| trace_G_new    6.2529534506749411E-004
 PAO|CG| trace_G_prev    2.5112550944806724E-003
 PAO|CG| trace_G_mix    2.6683993012843808E-007
 PAO|CG| trace_D    3.2089334516090338E-003
 PAO|CG| trace_D_Gnew  -1.3335925653838087E-006
 PAO|CG| beta:   0.24889088588056069     
 PAO| norm of gradient:   2.5005906203685042E-002
 PAO| energy improvement:  -2.6329570400562829E-004
 PAO| step     18                   -7.820361943  0.156E-02  0.210E+00     0.107
 PAO|LS| adapt:  T F F
 PAO|LS| adapt: scan_steps:    0.0000000000000000        0.0000000000000000        0.0000000000000000     
 PAO|LS| adapt: energies:   -7.8203619427570832        0.0000000000000000        0.0000000000000000     
 PAO| ======================= Iteration:        19 =============================

     Lanczos converged:  T threshold:   0.100E-02
     Est. extremal eigenvalues:    0.280E+01   0.186E+00
     Est. condition number :    0.150E+02

 Order=           3
     NS sqrt iter    1 1.00000000   0.715E+00       0.001       58.235
     NS sqrt iter    2 1.00000000   0.335E+00       0.001       97.843
     NS sqrt iter    3 1.00000000   0.748E-01       0.001       97.584
     NS sqrt iter    4 1.00000000   0.177E-02       0.001       99.187
     NS sqrt iter    5 1.00000000   0.434E-07       0.001       61.579
     Symmetrizing Results
     Final NS sqrt iter    5 1.00000000   0.329E-09

     Est. extremal eigenvalues     -0.92726     1.67020  converged:  T
     TRS4 it   1 1.00000000   0.854E+00       0.000       16.128   0.100E-07
     TRS4 it   2 1.00000000   0.610E+00       0.001       32.256   0.100E-07
     TRS4 it   3 1.00000000   0.418E+00       0.001       32.256   0.100E-07
     TRS4 it   4 1.00000000   0.217E+00       0.001       32.256   0.100E-07
     TRS4 it   5 1.00000000   0.709E-01       0.001       32.256   0.100E-07
     TRS4 it   6 1.00000000   0.913E-02       0.001       32.256   0.100E-07
     TRS4 it   7 1.00000000   0.201E-03       0.001       32.256   0.100E-07
     TRS4 it   8 1.00000000   0.143E-06       0.001       32.256   0.100E-07
     TRS4 it   9 1.00000000   0.882E-13       0.001       32.256   0.100E-07
     Final TRS4 iteration    9 1.00000000   0.882E-13
     Chemical potential (mu):      -0.00809
 
 PAO| energy:  -7.8204631051216751      penalty:   1.4191241917560403E-005
 PAO|LS| adapt:  T T F
 PAO|LS| adapt: scan_steps:    0.0000000000000000       0.20997926683335455        0.0000000000000000     
 PAO|LS| adapt: energies:   -7.8203619427570832       -7.8204631051216751        0.0000000000000000     
 PAO| ======================= Iteration:        20 =============================

     Lanczos converged:  T threshold:   0.100E-02
     Est. extremal eigenvalues:    0.280E+01   0.186E+00
     Est. condition number :    0.150E+02

 Order=           3
     NS sqrt iter    1 1.00000000   0.715E+00       0.001       57.519
     NS sqrt iter    2 1.00000000   0.335E+00       0.001       97.479
     NS sqrt iter    3 1.00000000   0.750E-01       0.001       98.218
     NS sqrt iter    4 1.00000000   0.177E-02       0.001       98.109
     NS sqrt iter    5 1.00000000   0.432E-07       0.013        5.074
     Symmetrizing Results
     Final NS sqrt iter    5 1.00000000   0.330E-09

     Est. extremal eigenvalues     -0.92727     1.67057  converged:  T
     TRS4 it   1 1.00000000   0.855E+00       0.000       16.128   0.100E-07
     TRS4 it   2 1.00000000   0.610E+00       0.001       32.256   0.100E-07
     TRS4 it   3 1.00000000   0.418E+00       0.001       32.256   0.100E-07
     TRS4 it   4 1.00000000   0.217E+00       0.001       32.256   0.100E-07
     TRS4 it   5 1.00000000   0.708E-01       0.001       32.256   0.100E-07
     TRS4 it   6 1.00000000   0.911E-02       0.001       32.256   0.100E-07
     TRS4 it   7 1.00000000   0.201E-03       0.001       32.256   0.100E-07
     TRS4 it   8 1.00000000   0.142E-06       0.001       32.256   0.100E-07
     TRS4 it   9 1.00000000   0.860E-13       0.001       32.256   0.100E-07
     Final TRS4 iteration    9 1.00000000   0.860E-13
     Chemical potential (mu):      -0.00809
 
 PAO| energy:  -7.8205035472196229      penalty:   1.3928542327931845E-005
 PAO|LS| adapt:  T T F
 PAO|LS| adapt: scan_steps:    0.0000000000000000       0.41995853366670910        0.0000000000000000     
 PAO|LS| adapt: energies:   -7.8203619427570832       -7.8205035472196229        0.0000000000000000     
 PAO| ======================= Iteration:        21 =============================

     Lanczos converged:  T threshold:   0.100E-02
     Est. extremal eigenvalues:    0.280E+01   0.186E+00
     Est. condition number :    0.150E+02

 Order=           3
     NS sqrt iter    1 1.00000000   0.715E+00       0.001       58.965
     NS sqrt iter    2 1.00000000   0.335E+00       0.001       98.228
     NS sqrt iter    3 1.00000000   0.752E-01       0.021        5.216
     NS sqrt iter    4 1.00000000   0.178E-02       0.001       98.519
     NS sqrt iter    5 1.00000000   0.430E-07       0.001       61.024
     Symmetrizing Results
     Final NS sqrt iter    5 1.00000000   0.333E-09

     Est. extremal eigenvalues     -0.92726     1.67132  converged:  T
     TRS4 it   1 1.00000000   0.855E+00       0.000       16.128   0.100E-07
     TRS4 it   2 1.00000000   0.610E+00       0.001       32.256   0.100E-07
     TRS4 it   3 1.00000000   0.418E+00       0.001       32.256   0.100E-07
     TRS4 it   4 1.00000000   0.216E+00       0.001       32.256   0.100E-07
     TRS4 it   5 1.00000000   0.706E-01       0.001       32.256   0.100E-07
     TRS4 it   6 1.00000000   0.907E-02       0.001       32.256   0.100E-07
     TRS4 it   7 1.00000000   0.200E-03       0.001       32.256   0.100E-07
     TRS4 it   8 1.00000000   0.142E-06       0.001       32.256   0.100E-07
     TRS4 it   9 1.00000000   0.865E-13       0.001       32.256   0.100E-07
     Final TRS4 iteration    9 1.00000000   0.865E-13
     Chemical potential (mu):      -0.00811
 
 PAO| energy:  -7.8204004245551006      penalty:   1.3433374173054201E-005
 PAO|LS| Need extra step
 PAO|LS| adapt:  T T T
 PAO|LS| adapt: scan_steps:    0.0000000000000000       0.41995853366670910       0.83991706733341820     
 PAO|LS| adapt: energies:   -7.8203619427570832       -7.8205035472196229       -7.8204004245551006     
 PAO|LS| adapt: suggested step_size:   0.45297644970708512     
 PAO|LS| adapt: predicted energy  -7.8205043035971418     
 PAO| ======================= Iteration:        22 =============================

     Lanczos converged:  T threshold:   0.100E-02
     Est. extremal eigenvalues:    0.280E+01   0.186E+00
     Est. condition number :    0.150E+02

 Order=           3
     NS sqrt iter    1 1.00000000   0.715E+00       0.001       59.756
     NS sqrt iter    2 1.00000000   0.335E+00       0.017        6.429
     NS sqrt iter    3 1.00000000   0.750E-01       0.001       97.074
     NS sqrt iter    4 1.00000000   0.177E-02       0.001       98.305
     NS sqrt iter    5 1.00000000   0.432E-07       0.001       61.210
     Symmetrizing Results
     Final NS sqrt iter    5 1.00000000   0.330E-09

     Est. extremal eigenvalues     -0.92727     1.67063  converged:  T
     TRS4 it   1 1.00000000   0.855E+00       0.000       16.128   0.100E-07
     TRS4 it   2 1.00000000   0.610E+00       0.001       32.256   0.100E-07
     TRS4 it   3 1.00000000   0.418E+00       0.001       32.256   0.100E-07
     TRS4 it   4 1.00000000   0.217E+00       0.001       32.256   0.100E-07
     TRS4 it   5 1.00000000   0.708E-01       0.001       32.256   0.100E-07
     TRS4 it   6 1.00000000   0.911E-02       0.001       32.256   0.100E-07
     TRS4 it   7 1.00000000   0.201E-03       0.001       32.256   0.100E-07
     TRS4 it   8 1.00000000   0.142E-06       0.001       32.256   0.100E-07
     TRS4 it   9 1.00000000   0.868E-13       0.001       32.256   0.100E-07
     Final TRS4 iteration    9 1.00000000   0.868E-13
     Chemical potential (mu):      -0.00809
 
 PAO| energy:  -7.8205043516853356      penalty:   1.3888157150932715E-005
 PAO|CG| trace_G_new    2.1836367596287032E-004
 PAO|CG| trace_G_prev    6.2529534506749411E-004
 PAO|CG| trace_G_mix    2.4277077427026740E-006
 PAO|CG| trace_D    8.2474193458186213E-004
 PAO|CG| trace_D_Gnew  -1.4382548378974643E-006
 PAO|CG| beta:   0.34533436067217099     
 PAO| norm of gradient:   1.4777133550282014E-002
 PAO| energy improvement:  -1.4240892825245766E-004
 PAO| step     22                   -7.820504352  0.924E-03  0.453E+00     0.157
 PAO|LS| adapt:  T F F
 PAO|LS| adapt: scan_steps:    0.0000000000000000        0.0000000000000000        0.0000000000000000     
 PAO|LS| adapt: energies:   -7.8205043516853356        0.0000000000000000        0.0000000000000000     
 PAO| ======================= Iteration:        23 =============================

     Lanczos converged:  T threshold:   0.100E-02
     Est. extremal eigenvalues:    0.280E+01   0.187E+00
     Est. condition number :    0.150E+02

 Order=           3
     NS sqrt iter    1 1.00000000   0.715E+00       0.001       58.567
     NS sqrt iter    2 1.00000000   0.335E+00       0.001      100.409
     NS sqrt iter    3 1.00000000   0.750E-01       0.001       98.593
     NS sqrt iter    4 1.00000000   0.177E-02       0.001       98.113
     NS sqrt iter    5 1.00000000   0.429E-07       0.001       61.294
     Symmetrizing Results
     Final NS sqrt iter    5 1.00000000   0.330E-09

     Est. extremal eigenvalues     -0.92727     1.67077  converged:  T
     TRS4 it   1 1.00000000   0.855E+00       0.000       16.128   0.100E-07
     TRS4 it   2 1.00000000   0.610E+00       0.017        1.931   0.100E-07
     TRS4 it   3 1.00000000   0.418E+00       0.001       32.256   0.100E-07
     TRS4 it   4 1.00000000   0.217E+00       0.001       32.256   0.100E-07
     TRS4 it   5 1.00000000   0.708E-01       0.001       32.256   0.100E-07
     TRS4 it   6 1.00000000   0.911E-02       0.001       32.256   0.100E-07
     TRS4 it   7 1.00000000   0.201E-03       0.001       32.256   0.100E-07
     TRS4 it   8 1.00000000   0.143E-06       0.001       32.256   0.100E-07
     TRS4 it   9 1.00000000   0.875E-13       0.001       32.256   0.100E-07
     Final TRS4 iteration    9 1.00000000   0.875E-13
     Chemical potential (mu):      -0.00813
 
 PAO| energy:  -7.8205535248824587      penalty:   1.3199227594988947E-005
 PAO|LS| adapt:  T T F
 PAO|LS| adapt: scan_steps:    0.0000000000000000       0.45297644970708512        0.0000000000000000     
 PAO|LS| adapt: energies:   -7.8205043516853356       -7.8205535248824587        0.0000000000000000     
 PAO| ======================= Iteration:        24 =============================

     Lanczos converged:  T threshold:   0.100E-02
     Est. extremal eigenvalues:    0.280E+01   0.187E+00
     Est. condition number :    0.150E+02

 Order=           3
     NS sqrt iter    1 1.00000000   0.715E+00       0.001       56.321
     NS sqrt iter    2 1.00000000   0.335E+00       0.001       97.707
     NS sqrt iter    3 1.00000000   0.750E-01       0.001       97.898
     NS sqrt iter    4 1.00000000   0.177E-02       0.001       97.291
     NS sqrt iter    5 1.00000000   0.427E-07       0.001       60.894
     Symmetrizing Results
     Final NS sqrt iter    5 1.00000000   0.330E-09

     Est. extremal eigenvalues     -0.92727     1.67091  converged:  T
     TRS4 it   1 1.00000000   0.855E+00       0.000       16.128   0.100E-07
     TRS4 it   2 1.00000000   0.610E+00       0.001       32.256   0.100E-07
     TRS4 it   3 1.00000000   0.418E+00       0.001       32.256   0.100E-07
     TRS4 it   4 1.00000000   0.217E+00       0.001       32.256   0.100E-07
     TRS4 it   5 1.00000000   0.708E-01       0.001       32.256   0.100E-07
     TRS4 it   6 1.00000000   0.912E-02       0.001       32.256   0.100E-07
     TRS4 it   7 1.00000000   0.202E-03       0.001       32.256   0.100E-07
     TRS4 it   8 1.00000000   0.144E-06       0.001       32.256   0.100E-07
     TRS4 it   9 1.00000000   0.888E-13       0.001       32.256   0.100E-07
     Final TRS4 iteration    9 1.00000000   0.888E-13
     Chemical potential (mu):      -0.00818
 
 PAO| energy:  -7.8205020477178762      penalty:   1.2539505942798124E-005
 PAO|LS| adapt:  T T T
 PAO|LS| adapt: scan_steps:    0.0000000000000000       0.45297644970708512       0.90595289941417023     
 PAO|LS| adapt: energies:   -7.8205043516853356       -7.8205535248824587       -7.8205020477178762     
 PAO|LS| adapt: suggested step_size:   0.44779195269012517     
 PAO|LS| adapt: predicted energy  -7.8205535314749177     
 PAO| ======================= Iteration:        25 =============================

     Lanczos converged:  T threshold:   0.100E-02
     Est. extremal eigenvalues:    0.280E+01   0.187E+00
     Est. condition number :    0.150E+02

 Order=           3
     NS sqrt iter    1 1.00000000   0.715E+00       0.001       58.341
     NS sqrt iter    2 1.00000000   0.335E+00       0.001       98.091
     NS sqrt iter    3 1.00000000   0.750E-01       0.001       97.832
     NS sqrt iter    4 1.00000000   0.177E-02       0.001       98.854
     NS sqrt iter    5 1.00000000   0.429E-07       0.001       61.167
     Symmetrizing Results
     Final NS sqrt iter    5 1.00000000   0.330E-09

     Est. extremal eigenvalues     -0.92727     1.67077  converged:  T
     TRS4 it   1 1.00000000   0.855E+00       0.000       16.128   0.100E-07
     TRS4 it   2 1.00000000   0.610E+00       0.001       32.256   0.100E-07
     TRS4 it   3 1.00000000   0.418E+00       0.001       32.256   0.100E-07
     TRS4 it   4 1.00000000   0.217E+00       0.001       32.256   0.100E-07
     TRS4 it   5 1.00000000   0.708E-01       0.001       32.256   0.100E-07
     TRS4 it   6 1.00000000   0.911E-02       0.001       32.256   0.100E-07
     TRS4 it   7 1.00000000   0.201E-03       0.001       32.256   0.100E-07
     TRS4 it   8 1.00000000   0.143E-06       0.001       32.256   0.100E-07
     TRS4 it   9 1.00000000   0.879E-13       0.001       32.256   0.100E-07
     Final TRS4 iteration    9 1.00000000   0.879E-13
     Chemical potential (mu):      -0.00814
 
 PAO| energy:  -7.8205535294162498      penalty:   1.3206946275671723E-005
 PAO|CG| trace_G_new    8.3273646136331736E-005
 PAO|CG| trace_G_prev    2.1836367596287032E-004
 PAO|CG| trace_G_mix    9.5647548100293282E-007
 PAO|CG| trace_D    3.1771230983471100E-004
 PAO|CG| trace_D_Gnew  -3.9699513543957241E-007
 PAO|CG| beta:   0.37697281973456837     
 PAO| norm of gradient:   9.1254395037352436E-003
 PAO| energy improvement:  -4.9177730914173878E-005
 PAO| step     25                   -7.820553529  0.570E-03  0.448E+00     0.074
 PAO|LS| adapt:  T F F
 PAO|LS| adapt: scan_steps:    0.0000000000000000        0.0000000000000000        0.0000000000000000     
 PAO|LS| adapt: energies:   -7.8205535294162498        0.0000000000000000        0.0000000000000000     
 PAO| ======================= Iteration:        26 =============================

     Lanczos converged:  T threshold:   0.100E-02
     Est. extremal eigenvalues:    0.280E+01   0.186E+00
     Est. condition number :    0.150E+02

 Order=           3
     NS sqrt iter    1 1.00000000   0.715E+00       0.001       58.953
     NS sqrt iter    2 1.00000000   0.334E+00       0.001       98.355
     NS sqrt iter    3 1.00000000   0.749E-01       0.001       98.479
     NS sqrt iter    4 1.00000000   0.177E-02       0.001       98.064
     NS sqrt iter    5 1.00000000   0.429E-07       0.001       61.443
     Symmetrizing Results
     Final NS sqrt iter    5 1.00000000   0.330E-09

     Est. extremal eigenvalues     -0.92727     1.67057  converged:  T
     TRS4 it   1 1.00000000   0.855E+00       0.000       16.128   0.100E-07
     TRS4 it   2 1.00000000   0.610E+00       0.001       32.256   0.100E-07
     TRS4 it   3 1.00000000   0.418E+00       0.001       32.256   0.100E-07
     TRS4 it   4 1.00000000   0.216E+00       0.001       32.256   0.100E-07
     TRS4 it   5 1.00000000   0.707E-01       0.001       32.256   0.100E-07
     TRS4 it   6 1.00000000   0.907E-02       0.001       32.256   0.100E-07
     TRS4 it   7 1.00000000   0.199E-03       0.001       32.256   0.100E-07
     TRS4 it   8 1.00000000   0.139E-06       0.001       32.256   0.100E-07
     TRS4 it   9 1.00000000   0.841E-13       0.001       32.256   0.100E-07
     Final TRS4 iteration    9 1.00000000   0.841E-13
     Chemical potential (mu):      -0.00785
 
 PAO| energy:  -7.8205567762843273      penalty:   1.2485893516822444E-005
 PAO|LS| adapt:  T T F
 PAO|LS| adapt: scan_steps:    0.0000000000000000       0.44779195269012517        0.0000000000000000     
 PAO|LS| adapt: energies:   -7.8205535294162498       -7.8205567762843273        0.0000000000000000     
 PAO| ======================= Iteration:        27 =============================

     Lanczos converged:  T threshold:   0.100E-02
     Est. extremal eigenvalues:    0.279E+01   0.186E+00
     Est. condition number :    0.150E+02

 Order=           3
     NS sqrt iter    1 1.00000000   0.714E+00       0.001       59.714
     NS sqrt iter    2 1.00000000   0.334E+00       0.001       97.557
     NS sqrt iter    3 1.00000000   0.747E-01       0.001       97.615
     NS sqrt iter    4 1.00000000   0.176E-02       0.001       99.253
     NS sqrt iter    5 1.00000000   0.428E-07       0.001       61.817
     Symmetrizing Results
     Final NS sqrt iter    5 1.00000000   0.329E-09

     Est. extremal eigenvalues     -0.92728     1.67037  converged:  T
     TRS4 it   1 1.00000000   0.855E+00       0.000       16.128   0.100E-07
     TRS4 it   2 1.00000000   0.610E+00       0.001       32.256   0.100E-07
     TRS4 it   3 1.00000000   0.418E+00       0.001       32.256   0.100E-07
     TRS4 it   4 1.00000000   0.216E+00       0.001       32.256   0.100E-07
     TRS4 it   5 1.00000000   0.706E-01       0.001       32.256   0.100E-07
     TRS4 it   6 1.00000000   0.903E-02       0.001       32.256   0.100E-07
     TRS4 it   7 1.00000000   0.196E-03       0.001       32.256   0.100E-07
     TRS4 it   8 1.00000000   0.136E-06       0.001       32.256   0.100E-07
     TRS4 it   9 1.00000000   0.787E-13       0.001       32.256   0.100E-07
     Final TRS4 iteration    9 1.00000000   0.787E-13
     Chemical potential (mu):      -0.00756
 
 PAO| energy:  -7.8204916757436029      penalty:   1.1789319271462780E-005
 PAO|LS| adapt:  T T T
 PAO|LS| adapt: scan_steps:    0.0000000000000000       0.44779195269012517       0.89558390538025034     
 PAO|LS| adapt: energies:   -7.8205535294162498       -7.8205567762843273       -7.8204916757436029     
 PAO|LS| adapt: suggested step_size:   0.24516849306577523     
 PAO|LS| adapt: predicted energy  -7.8205637733982032     
 PAO| ======================= Iteration:        28 =============================

     Lanczos converged:  T threshold:   0.100E-02
     Est. extremal eigenvalues:    0.280E+01   0.187E+00
     Est. condition number :    0.150E+02

 Order=           3
     NS sqrt iter    1 1.00000000   0.715E+00       0.001       58.263
     NS sqrt iter    2 1.00000000   0.335E+00       0.001       97.925
     NS sqrt iter    3 1.00000000   0.749E-01       0.001       99.569
     NS sqrt iter    4 1.00000000   0.177E-02       0.001       99.840
     NS sqrt iter    5 1.00000000   0.429E-07       0.001       61.362
     Symmetrizing Results
     Final NS sqrt iter    5 1.00000000   0.330E-09

     Est. extremal eigenvalues     -0.92727     1.67066  converged:  T
     TRS4 it   1 1.00000000   0.855E+00       0.000       16.128   0.100E-07
     TRS4 it   2 1.00000000   0.610E+00       0.001       32.256   0.100E-07
     TRS4 it   3 1.00000000   0.418E+00       0.001       32.256   0.100E-07
     TRS4 it   4 1.00000000   0.216E+00       0.001       32.256   0.100E-07
     TRS4 it   5 1.00000000   0.707E-01       0.001       32.256   0.100E-07
     TRS4 it   6 1.00000000   0.909E-02       0.001       32.256   0.100E-07
     TRS4 it   7 1.00000000   0.200E-03       0.001       32.256   0.100E-07
     TRS4 it   8 1.00000000   0.141E-06       0.001       32.256   0.100E-07
     TRS4 it   9 1.00000000   0.859E-13       0.001       32.256   0.100E-07
     Final TRS4 iteration    9 1.00000000   0.859E-13
     Chemical potential (mu):      -0.00798
 
 PAO| energy:  -7.8205637618558574      penalty:   1.2809114278473741E-005
 PAO|CG| trace_G_new    2.7919789980271640E-005
 PAO|CG| trace_G_prev    8.3273646136331736E-005
 PAO|CG| trace_G_mix    5.4433348852718352E-008
 PAO|CG| trace_D    1.2872258083609602E-004
 PAO|CG| trace_D_Gnew  -2.7904008217224470E-008
 PAO|CG| beta:   0.33462395276650980     
 PAO| norm of gradient:   5.2839180520019083E-003
 PAO| energy improvement:  -1.0232439607626986E-005
 PAO| step     28                   -7.820563762  0.330E-03  0.245E+00     0.058
 PAO|LS| adapt:  T F F
 PAO|LS| adapt: scan_steps:    0.0000000000000000        0.0000000000000000        0.0000000000000000     
 PAO|LS| adapt: energies:   -7.8205637618558574        0.0000000000000000        0.0000000000000000     
 PAO| ======================= Iteration:        29 =============================

     Lanczos converged:  T threshold:   0.100E-02
     Est. extremal eigenvalues:    0.280E+01   0.186E+00
     Est. condition number :    0.150E+02

 Order=           3
     NS sqrt iter    1 1.00000000   0.715E+00       0.001       58.901
     NS sqrt iter    2 1.00000000   0.334E+00       0.001       98.425
     NS sqrt iter    3 1.00000000   0.749E-01       0.001       99.454
     NS sqrt iter    4 1.00000000   0.177E-02       0.001      101.476
     NS sqrt iter    5 1.00000000   0.430E-07       0.001       61.195
     Symmetrizing Results
     Final NS sqrt iter    5 1.00000000   0.330E-09

     Est. extremal eigenvalues     -0.92727     1.67062  converged:  T
     TRS4 it   1 1.00000000   0.855E+00       0.000       16.128   0.100E-07
     TRS4 it   2 1.00000000   0.610E+00       0.001       32.256   0.100E-07
     TRS4 it   3 1.00000000   0.418E+00       0.001       32.256   0.100E-07
     TRS4 it   4 1.00000000   0.216E+00       0.001       32.256   0.100E-07
     TRS4 it   5 1.00000000   0.706E-01       0.001       32.256   0.100E-07
     TRS4 it   6 1.00000000   0.906E-02       0.001       32.256   0.100E-07
     TRS4 it   7 1.00000000   0.198E-03       0.001       32.256   0.100E-07
     TRS4 it   8 1.00000000   0.138E-06       0.001       32.256   0.100E-07
     TRS4 it   9 1.00000000   0.819E-13       0.001       32.256   0.100E-07
     Final TRS4 iteration    9 1.00000000   0.819E-13
     Chemical potential (mu):      -0.00779
 
 PAO| energy:  -7.8205696328830383      penalty:   1.2424589563242118E-005
 PAO|LS| adapt:  T T F
 PAO|LS| adapt: scan_steps:    0.0000000000000000       0.24516849306577523        0.0000000000000000     
 PAO|LS| adapt: energies:   -7.8205637618558574       -7.8205696328830383        0.0000000000000000     
 PAO| ======================= Iteration:        30 =============================

     Lanczos converged:  T threshold:   0.100E-02
     Est. extremal eigenvalues:    0.280E+01   0.186E+00
     Est. condition number :    0.150E+02

 Order=           3
     NS sqrt iter    1 1.00000000   0.714E+00       0.001       58.924
     NS sqrt iter    2 1.00000000   0.334E+00       0.001       98.128
     NS sqrt iter    3 1.00000000   0.748E-01       0.001       98.942
     NS sqrt iter    4 1.00000000   0.176E-02       0.001       95.253
     NS sqrt iter    5 1.00000000   0.430E-07       0.001       62.136
     Symmetrizing Results
     Final NS sqrt iter    5 1.00000000   0.327E-09

     Est. extremal eigenvalues     -0.92728     1.67057  converged:  T
     TRS4 it   1 1.00000000   0.855E+00       0.000       16.128   0.100E-07
     TRS4 it   2 1.00000000   0.610E+00       0.001       32.256   0.100E-07
     TRS4 it   3 1.00000000   0.418E+00       0.001       32.256   0.100E-07
     TRS4 it   4 1.00000000   0.216E+00       0.001       32.256   0.100E-07
     TRS4 it   5 1.00000000   0.705E-01       0.001       32.256   0.100E-07
     TRS4 it   6 1.00000000   0.902E-02       0.001       32.256   0.100E-07
     TRS4 it   7 1.00000000   0.196E-03       0.001       32.256   0.100E-07
     TRS4 it   8 1.00000000   0.136E-06       0.001       32.256   0.100E-07
     TRS4 it   9 1.00000000   0.790E-13       0.001       32.256   0.100E-07
     Final TRS4 iteration    9 1.00000000   0.790E-13
     Chemical potential (mu):      -0.00760
 
 PAO| energy:  -7.8205735512390051      penalty:   1.2046540132376528E-005
 PAO|LS| adapt:  T T F
 PAO|LS| adapt: scan_steps:    0.0000000000000000       0.49033698613155047        0.0000000000000000     
 PAO|LS| adapt: energies:   -7.8205637618558574       -7.8205735512390051        0.0000000000000000     
 PAO| ======================= Iteration:        31 =============================

     Lanczos converged:  T threshold:   0.100E-02
     Est. extremal eigenvalues:    0.279E+01   0.186E+00
     Est. condition number :    0.150E+02

 Order=           3
     NS sqrt iter    1 1.00000000   0.714E+00       0.001       57.441
     NS sqrt iter    2 1.00000000   0.334E+00       0.001       99.746
     NS sqrt iter    3 1.00000000   0.746E-01       0.001       98.733
     NS sqrt iter    4 1.00000000   0.176E-02       0.001       98.081
     NS sqrt iter    5 1.00000000   0.431E-07       0.001       61.455
     Symmetrizing Results
     Final NS sqrt iter    5 1.00000000   0.332E-09

     Est. extremal eigenvalues     -0.92728     1.67048  converged:  T
     TRS4 it   1 1.00000000   0.855E+00       0.000       16.128   0.100E-07
     TRS4 it   2 1.00000000   0.610E+00       0.001       32.256   0.100E-07
     TRS4 it   3 1.00000000   0.418E+00       0.001       32.256   0.100E-07
     TRS4 it   4 1.00000000   0.216E+00       0.001       32.256   0.100E-07
     TRS4 it   5 1.00000000   0.703E-01       0.001       32.256   0.100E-07
     TRS4 it   6 1.00000000   0.896E-02       0.001       32.256   0.100E-07
     TRS4 it   7 1.00000000   0.193E-03       0.001       32.256   0.100E-07
     TRS4 it   8 1.00000000   0.131E-06       0.001       32.256   0.100E-07
     TRS4 it   9 1.00000000   0.736E-13       0.001       32.256   0.100E-07
     Final TRS4 iteration    9 1.00000000   0.736E-13
     Chemical potential (mu):      -0.00721
 
 PAO| energy:  -7.8205755304087923      penalty:   1.1309753530072183E-005
 PAO|LS| Need extra step
 PAO|LS| adapt:  T T F
 PAO|LS| adapt: scan_steps:    0.0000000000000000       0.98067397226310093        0.0000000000000000     
 PAO|LS| adapt: energies:   -7.8205637618558574       -7.8205755304087923        0.0000000000000000     
 PAO| ======================= Iteration:        32 =============================

     Lanczos converged:  T threshold:   0.100E-02
     Est. extremal eigenvalues:    0.279E+01   0.186E+00
     Est. condition number :    0.150E+02

 Order=           3
     NS sqrt iter    1 1.00000000   0.713E+00       0.001       57.833
[...]
     NS sqrt iter    5 1.00000000   0.454E-09       0.001       36.864
     Symmetrizing Results
     Final NS sqrt iter    5 1.00000000   0.342E-10

     Est. extremal eigenvalues     -0.92702     1.46221  converged:  T
     TRS4 it   1 1.00000000   0.806E+00       0.000       16.128   0.100E-07
     TRS4 it   2 1.00000000   0.586E+00       0.001       32.256   0.100E-07
     TRS4 it   3 1.00000000   0.417E+00       0.001       32.256   0.100E-07
     TRS4 it   4 1.00000000   0.248E+00       0.001       32.256   0.100E-07
     TRS4 it   5 1.00000000   0.111E+00       0.001       32.256   0.100E-07
     TRS4 it   6 1.00000000   0.284E-01       0.001       32.256   0.100E-07
     TRS4 it   7 1.00000000   0.267E-02       0.001       32.256   0.100E-07
     TRS4 it   8 1.00000000   0.272E-04       0.001       32.256   0.100E-07
     TRS4 it   9 1.00000000   0.307E-08       0.001       32.256   0.100E-07
     Final TRS4 iteration    9 1.00000000   0.307E-08
     Chemical potential (mu):      -0.08417
 
 PAO| energy:  -7.8199109425335713      penalty:   4.6871977869934654E-012
 PAO|CG| warming up with steepest descent
 PAO|CG| beta:    0.0000000000000000     
 PAO| norm of gradient:   7.8139096175159645E-006
 PAO| energy improvement:  -2.7697844018348405E-011
 PAO| step    960                   -7.819910943  0.488E-06  0.277E+00     0.079
 PAO| converged after          960  steps :-)
 PAO| Recalculating energy after mixing.

     Lanczos converged:  T threshold:   0.100E-02
     Est. extremal eigenvalues:    0.254E+01   0.220E+00
     Est. condition number :    0.115E+02

 Order=           3
     NS sqrt iter    1 1.00000000   0.649E+00       0.001       57.076
     NS sqrt iter    2 1.00000000   0.282E+00       0.001      101.709
     NS sqrt iter    3 1.00000000   0.455E-01       0.001       99.791
     NS sqrt iter    4 1.00000000   0.421E-03       0.001      103.770
     NS sqrt iter    5 1.00000000   0.454E-09       0.001       36.173
     Symmetrizing Results
     Final NS sqrt iter    5 1.00000000   0.342E-10

     Est. extremal eigenvalues     -0.92702     1.46221  converged:  T
     TRS4 it   1 1.00000000   0.806E+00       0.000       16.128   0.100E-07
     TRS4 it   2 1.00000000   0.586E+00       0.001       32.256   0.100E-07
     TRS4 it   3 1.00000000   0.417E+00       0.001       32.256   0.100E-07
     TRS4 it   4 1.00000000   0.248E+00       0.001       32.256   0.100E-07
     TRS4 it   5 1.00000000   0.111E+00       0.001       32.256   0.100E-07
     TRS4 it   6 1.00000000   0.284E-01       0.001       32.256   0.100E-07
     TRS4 it   7 1.00000000   0.267E-02       0.001       32.256   0.100E-07
     TRS4 it   8 1.00000000   0.272E-04       0.001       32.256   0.100E-07
     TRS4 it   9 1.00000000   0.307E-08       0.001       32.256   0.100E-07
     Final TRS4 iteration    9 1.00000000   0.307E-08
     Chemical potential (mu):      -0.08417
 
 PAO| energy:  -7.8199109425266480      penalty:   4.7395460197170988E-012
 PAO| Writing restart file.
     Est. extremal eigenvalues     -0.92702     1.46221  converged:  T
     TRS4 it   1 1.00000000   0.806E+00       0.001       16.128   0.100E-07
     TRS4 it   2 1.00000000   0.586E+00       0.001       32.256   0.100E-07
     TRS4 it   3 1.00000000   0.417E+00       0.001       32.256   0.100E-07
     TRS4 it   4 1.00000000   0.248E+00       0.001       32.256   0.100E-07
     TRS4 it   5 1.00000000   0.111E+00       0.001       32.256   0.100E-07
     TRS4 it   6 1.00000000   0.284E-01       0.001       32.256   0.100E-07
     TRS4 it   7 1.00000000   0.267E-02       0.001       32.256   0.100E-07
     TRS4 it   8 1.00000000   0.272E-04       0.001       32.256   0.100E-07
     TRS4 it   9 1.00000000   0.307E-08       0.001       32.256   0.100E-07
     Final TRS4 iteration    9 1.00000000   0.307E-08
     Chemical potential (mu):      -0.08417

 SCF     1       -34.446710612       -34.446710612    3.364253

*********************************************************
 Using MIXING_FRACTION=0.450 to mix KS matrix:  iscf=  2
 KS_nw=0.450*KS + 0.550*KS_old
*********************************************************
     Est. extremal eigenvalues     -0.92702     1.46221  converged:  T
     TRS4 it   1 1.00000000   0.806E+00       0.001       16.128   0.100E-07
     TRS4 it   2 1.00000000   0.586E+00       0.003        9.217   0.100E-07
     TRS4 it   3 1.00000000   0.417E+00       0.002       21.435   0.100E-07
     TRS4 it   4 1.00000000   0.248E+00       0.001       32.256   0.100E-07
     TRS4 it   5 1.00000000   0.111E+00       0.001       32.256   0.100E-07
     TRS4 it   6 1.00000000   0.284E-01       0.001       32.256   0.100E-07
     TRS4 it   7 1.00000000   0.267E-02       0.001       32.256   0.100E-07
     TRS4 it   8 1.00000000   0.272E-04       0.001       32.256   0.100E-07
     TRS4 it   9 1.00000000   0.307E-08       0.001       32.256   0.100E-07
     Final TRS4 iteration    9 1.00000000   0.307E-08
     Chemical potential (mu):      -0.08417

 SCF     2       -34.446710612        -0.000000000    2.465723


 SCF run converged in     2 steps.

 PAO| Storing density matrix for ASPC guess in slot:           1

 ENERGY| Total FORCE_EVAL ( QS ) energy [a.u.]:              -34.446710612039396

 -------------------------------------------------------------------------------
 -                                                                             -
 -                                DBCSR STATISTICS                             -
 -                                                                             -
 -------------------------------------------------------------------------------
 COUNTER                                    TOTAL       BLAS       SMM       ACC
 flops     5 x     5 x     4                32000       0.0%    100.0%      0.0%
 flops    13 x     5 x     4                33280       0.0%    100.0%      0.0%
 flops     5 x    13 x     4                33280       0.0%    100.0%      0.0%
 flops    13 x    13 x     4                64896       0.0%    100.0%      0.0%
 flops     4 x     4 x     5              7503360       0.0%    100.0%      0.0%
 flops     5 x     4 x     5              9161600       0.0%    100.0%      0.0%
 flops     4 x     4 x    13              9754368       0.0%    100.0%      0.0%
 flops    13 x     4 x     5             11910080       0.0%    100.0%      0.0%
 flops     5 x     4 x    13             11910080       0.0%    100.0%      0.0%
 flops     5 x     4 x     4             14090080       0.0%    100.0%      0.0%
 flops    13 x     4 x    13             15483104       0.0%    100.0%      0.0%
 flops    13 x     4 x     4             18377632       0.0%    100.0%      0.0%
 flops     4 x     4 x     4            952672768       0.0%    100.0%      0.0%
 flops inhomo. stacks                           0       0.0%      0.0%      0.0%
 flops total                         1.051027E+09       0.0%    100.0%      0.0%
 flops max/rank                      1.051027E+09       0.0%    100.0%      0.0%
 matmuls inhomo. stacks                         0       0.0%      0.0%      0.0%
 matmuls total                            7748744       0.0%    100.0%      0.0%
 number of processed stacks                 61689       0.0%    100.0%      0.0%
 average stack size                                     0.0     125.6       0.0
 marketing flops                     1.715307E+09
 -------------------------------------------------------------------------------
 # multiplications                          51702
 max memory usage/rank             507.314176E+06
 # max total images/rank                        1
 # max 3D layers                                1
 # MPI messages exchanged                       0
 -------------------------------------------------------------------------------

 -------------------------------------------------------------------------------
 -                                                                             -
 -                                DBM STATISTICS                               -
 -                                                                             -
 -------------------------------------------------------------------------------
    M  x    N  x    K                                          COUNT     PERCENT
 -------------------------------------------------------------------------------

 -------------------------------------------------------------------------------
 -                                                                             -
 -                                GRID STATISTICS                              -
 -                                                                             -
 -------------------------------------------------------------------------------
 LP    KERNEL             BACKEND                              COUNT     PERCENT
 2     collocate ortho    REF                                  61072      30.81%
 2     integrate ortho    REF                                  61072      30.81%
 3     collocate ortho    REF                                  31280      15.78%
 3     integrate ortho    REF                                  31280      15.78%
 4     collocate ortho    REF                                   6768       3.41%
 4     integrate ortho    REF                                   6768       3.41%
 0     collocate general  REF                                      6       0.00%
 -------------------------------------------------------------------------------

 MEMORY| Estimated peak process memory [MiB]                                 484

 -------------------------------------------------------------------------------
 -                                                                             -
 -                           R E F E R E N C E S                               -
 -                                                                             -
 -------------------------------------------------------------------------------
 
 CP2K version 2023.1 (Development Version), the CP2K developers group (2023).
 CP2K is freely available from https://www.cp2k.org/ .

 Kuehne,Thomas D.; Iannuzzi,Marcella; Del Ben,Mauro;
 Rybkin,Vladimir V.; Seewald,Patrick; Stein,Frederick; Laino,Teodoro;
 Khaliullin,Rustam Z.; Schuett,Ole; Schiffmann,Florian; Golze,Dorothea;
 Wilhelm,Jan; Chulkov,Sergey; Bani-Hashemian,Mohammad Hossein;
 Weber,Valery; Borstnik,Urban; Taillefumier,Mathieu;
 Jakobovits,Alice Shoshana; Lazzaro,Alfio; Pabst,Hans; Mueller,Tiziano;
 Schade,Robert; Guidon,Manuel; Andermatt,Samuel; Holmberg,Nico;
 Schenter,Gregory K.; Hehn,Anna; Bussy,Augustin; Belleflamme,Fabian;
 Tabacchi,Gloria; Gloess,Andreas; Lass,Michael; Bethune,Iain;
 Mundy,Christopher J.; Plessl,Christian; Watkins,Matt;
 VandeVondele,Joost; Krack,Matthias; Hutter,Juerg. 
 The Journal of Chemical Physics, 152 (19), (2020). 
 CP2K: An electronic structure and molecular dynamics software package -
 Quickstep: Efficient and accurate electronic structure calculations.
 https://doi.org/10.1063/5.0007045

 Schuett, O; VandeVondele, J. 
 Journal of Chemical Theory and Computation, 14, (2018). 
 Machine Learning Adaptive Basis Sets for Efficient Large Scale
 Density Functional Theory Simulation.
 https://doi.org/10.1021/acs.jctc.8b00378

 Schuett, Ole; Messmer, Peter; Hutter, Juerg; VandeVondele, Joost. 
 Electronic Structure Calculations on Graphics Processing Units, John
 Wiley & Sons, Ltd, 173-190 (2016). 
 GPU-Accelerated Sparse Matrix-Matrix Multiplication for
 Linear Scaling Density Functional Theory.
 https://doi.org/10.1002/9781118670712.ch8

 Heinecke, A; Henry, G; Hutchinson, M; Pabst, H. 
 Proceedings of Intl. Supercomputing Conference, 981-991 (2016). 
 LIBXSMM: Accelerating Small Matrix Multiplications
 by Runtime Code Generation.
 https://doi.org/10.1109/SC.2016.83

 Borstnik, U; VandeVondele, J; Weber, V; Hutter, J. 
 PARALLEL COMPUTING, 40 (5-6), 47-58 (2014). 
 Sparse matrix multiplication: The distributed block-compressed sparse
 row library.
 https://doi.org/10.1016/j.parco.2014.03.012

 Hutter, J; Iannuzzi, M; Schiffmann, F; VandeVondele, J. 
 WIREs Comput Mol Sci., 4 (1), 15-25 (2014). 
 CP2K: atomistic simulations of condensed matter systems.
 https://doi.org/10.1002/wcms.1159

 VandeVondele, J; Borstnik, U; Hutter, J. 
 JOURNAL OF CHEMICAL THEORY AND COMPUTATION, 8 (10), 3565-3573 (2012). 
 Linear Scaling Self-Consistent Field Calculations with Millions of Atoms
 in the Condensed Phase.
 https://doi.org/10.1021/ct200897x

 VandeVondele, J; Hutter, J. 
 JOURNAL OF CHEMICAL PHYSICS, 127 (11), 114105 (2007). 
 Gaussian basis sets for accurate calculations on molecular systems in
 gas and condensed phases.
 https://doi.org/10.1063/1.2770708

 Krack, M. 
 THEORETICAL CHEMISTRY ACCOUNTS, 114 (1-3), 145-152 (2005). 
 Pseudopotentials for H to Kr optimized for gradient-corrected
 exchange-correlation functionals.
 https://doi.org/10.1007/s00214-005-0655-y

 VandeVondele, J; Krack, M; Mohamed, F; Parrinello, M; Chassaing, T;
 Hutter, J. COMPUTER PHYSICS COMMUNICATIONS, 167 (2), 103-128 (2005). 
 QUICKSTEP: Fast and accurate density functional calculations using a
 mixed Gaussian and plane waves approach.
 https://doi.org/10.1016/j.cpc.2004.12.014

 Frigo, M; Johnson, SG. 
 PROCEEDINGS OF THE IEEE, 93 (2), 216-231 (2005). 
 The design and implementation of FFTW3.
 https://doi.org/10.1109/JPROC.2004.840301

 Niklasson, AMN; Tymczak, CJ; Challacombe, M. 
 JOURNAL OF CHEMICAL PHYSICS, 118 (19), 8611-8620 (2003). 
 Trace resetting density matrix purification in O(N)
 self-consistent-field theory.
 https://doi.org/10.1063/1.1559913

 Hartwigsen, C; Goedecker, S; Hutter, J. 
 PHYSICAL REVIEW B, 58 (7), 3641-3662 (1998). 
 Relativistic separable dual-space Gaussian pseudopotentials from H to Rn.
 https://doi.org/10.1103/PhysRevB.58.3641

 Lippert, G; Hutter, J; Parrinello, M. 
 MOLECULAR PHYSICS, 92 (3), 477-487 (1997). 
 A hybrid Gaussian and plane wave density functional scheme.
 https://doi.org/10.1080/002689797170220

 Perdew, JP; Burke, K; Ernzerhof, M. 
 PHYSICAL REVIEW LETTERS, 77 (18), 3865-3868 (1996). 
 Generalized gradient approximation made simple.
 https://doi.org/10.1103/PhysRevLett.77.3865

 Goedecker, S; Teter, M; Hutter, J. 
 PHYSICAL REVIEW B, 54 (3), 1703-1710 (1996). 
 Separable dual-space Gaussian pseudopotentials.
 https://doi.org/10.1103/PhysRevB.54.1703


 -------------------------------------------------------------------------------
 -                                                                             -
 -                                T I M I N G                                  -
 -                                                                             -
 -------------------------------------------------------------------------------
 SUBROUTINE                       CALLS  ASD         SELF TIME        TOTAL TIME
                                MAXIMUM       AVERAGE  MAXIMUM  AVERAGE  MAXIMUM
 CP2K                                 1  1.0    0.014    0.014   85.273   85.273
 qs_energies                          1  2.0    0.000    0.000   84.599   84.599
 ls_scf                               1  3.0    0.000    0.000   84.349   84.349
 ls_scf_main                          7  4.0    0.002    0.002   54.990   54.990
 ls_scf_dm_to_ks                     15  5.0    0.001    0.001   54.704   54.704
 qs_ks_update_qs_env                 16  6.0    0.000    0.000   44.750   44.750
 rebuild_ks_matrix                   16  7.0    0.000    0.000   44.748   44.748
 qs_ks_build_kohn_sham_matrix        16  8.0    0.006    0.006   44.748   44.748
 qs_vxc_create                       16  9.0    0.001    0.001   27.306   27.306
 xc_vxc_pw_create                    16 10.0    0.499    0.499   27.306   27.306
 pw_transfer                        305 11.1    0.052    0.052   24.710   24.710
 fft_wrap_pw1pw2                    273 12.3    0.007    0.007   24.007   24.007
 pao_update                           7  4.0    0.021    0.021   23.812   23.812
 fft_wrap_pw1pw2_200                177 13.7    2.362    2.362   23.128   23.128
 pao_calc_energy                    966  5.0    0.024    0.024   21.496   21.496
 dbcsr_multiply_generic           51702  8.4    1.110    1.110   17.256   17.256
 xc_pw_derive                        96 12.0    0.003    0.003   16.580   16.580
 xc_rho_set_and_dset_create          16 11.0    0.571    0.571   15.860   15.860
 qs_rho_update_rho_low               16  6.0    0.000    0.000   15.377   15.377
 calculate_rho_elec                  16  7.0    0.086    0.086   15.377   15.377
 sum_up_and_integrate                16  9.0    0.362    0.362   12.754   12.754
 integrate_v_rspace                  16 10.0    0.002    0.002   12.392   12.392
 pao_dm_trs4                        966  6.0    0.024    0.024   11.069   11.069
 fft3d_s                            274 14.2   10.750   10.750   10.772   10.772
 density_matrix_trs4                981  7.0    0.300    0.300   10.699   10.699
 xc_pw_divergence                    16 11.0    0.001    0.001   10.584   10.584
 ls_scf_init_matrix_S               973  7.0    0.007    0.007   10.347   10.347
 pao_rebuild_S                      966  6.0    0.004    0.004   10.275   10.275
 grid_collocate_task_list            16  8.0    9.766    9.766    9.766    9.766
 grid_integrate_task_list            16 11.0    9.394    9.394    9.394    9.394
 matrix_sqrt_Newton_Schulz          973  8.0    0.241    0.241    9.235    9.235
 make_m2s                        103404  9.4    0.437    0.437    6.600    6.600
 multiply_cannon                  51702  9.4    2.525    2.525    6.319    6.319
 make_images                     103404 10.4    1.729    1.729    5.858    5.858
 xc_functional_eval                  16 12.0    0.001    0.001    5.762    5.762
 pbe_lda_eval                        16 13.0    5.761    5.761    5.761    5.761
 pw_scatter_s                       144 14.7    5.565    5.565    5.565    5.565
 density_rs2pw                       16  8.0    0.002    0.002    5.525    5.525
 pao_guess_initial_P                  1  4.0    0.000    0.000    5.435    5.435
 pao_read_preopt_dm                   1  5.0    0.000    0.000    5.435    5.435
 pw_gather_s                        129 13.8    5.212    5.212    5.212    5.212
 arnoldi_extremal                  1954  8.5    0.009    0.009    3.324    3.324
 arnoldi_normal_ev                 1954  9.5    0.025    0.025    3.315    3.315
 pw_derive                           96 13.0    3.270    3.270    3.270    3.270
 potential_pw2rs                     16 11.0    0.009    0.009    2.996    2.996
 build_subspace                    1954 10.5    0.113    0.113    2.579    2.579
 pw_copy                            192 11.8    2.547    2.547    2.547    2.547
 dbcsr_matrix_vector_mult         46896 11.5    0.333    0.333    2.409    2.409
 pao_calc_AB                       1270  5.8    0.002    0.002    2.275    2.275
 pao_calc_AB_equi                  1270  6.8    0.060    0.060    2.272    2.272
 pao_calc_grad_lnv_wrt_AB           303  7.0    0.013    0.013    2.081    2.081
 dbcsr_create_new                397025 10.7    1.114    1.114    1.918    1.918
 dbcsr_finalize                  123665  9.6    0.349    0.349    1.794    1.794
 -------------------------------------------------------------------------------

 The number of warnings for this run is : 0
 
 -------------------------------------------------------------------------------
  **** **** ******  **  PROGRAM ENDED AT                 2023-02-01 10:49:20.991
 ***** ** ***  *** **   PROGRAM RAN ON                                    moritz
 **    ****   ******    PROGRAM RAN BY                                       ole
 ***** **    ** ** **   PROGRAM PROCESS ID                                148695
  **** **  *******  **  PROGRAM STOPPED IN /home/ole/git/pao_ml_equivar/2H2O_MD/
                                           frame_0300
