 DBCSR| CPU Multiplication driver                                           XSMM
 DBCSR| Multrec recursion limit                                              512
 DBCSR| Multiplication stack size                                           1000
 DBCSR| Maximum elements for images                                    UNLIMITED
 DBCSR| Multiplicative factor virtual images                                   1
 DBCSR| Use multiplication densification                                       T
 DBCSR| Multiplication size stacks                                             3


  **** **** ******  **  PROGRAM STARTED AT               2019-02-14 01:14:38.100
 ***** ** ***  *** **   PROGRAM STARTED ON                                  otto
 **    ****   ******    PROGRAM STARTED BY                                   ole
 ***** **    ** ** **   PROGRAM PROCESS ID                                  6049
  **** **  *******  **  PROGRAM STARTED IN /home/ole/git/pao_ml_equivar/2H2O_MD/
                                           frame_0300

 CP2K| version string:                    CP2K version 7.0 (Development Version)
 CP2K| source code revision number:                                git:8bf305913
 CP2K| cp2kflags: libint fftw3 libxc xsmm libderiv_max_am1=5 libint_max_am=6    
 CP2K| is freely available from                            https://www.cp2k.org/
 CP2K| Program compiled at                           So Jan 13 00:02:37 CET 2019
 CP2K| Program compiled on                                                  otto
 CP2K| Program compiled for                                                local
 CP2K| Data directory path                               /home/ole/git/cp2k/data
 CP2K| Input file name                                            2H2O_pao44.inp

 GLOBAL| Force Environment number                                              1
 GLOBAL| Basis set file name                                        BASIS_MOLOPT
 GLOBAL| Potential file name                                      GTH_POTENTIALS
 GLOBAL| MM Potential file name                                     MM_POTENTIAL
 GLOBAL| Coordinate file name                                         coords.xyz
 GLOBAL| Method name                                                        CP2K
 GLOBAL| Project name                                                 2H2O_pao44
 GLOBAL| Preferred FFT library                                             FFTW3
 GLOBAL| Preferred diagonalization lib.                                       SL
 GLOBAL| Run type                                                         ENERGY
 GLOBAL| All-to-all communication in single precision                          F
 GLOBAL| FFTs using library dependent lengths                                  F
 GLOBAL| Global print level                                                  LOW
 GLOBAL| MPI I/O enabled                                                       T
 GLOBAL| Total number of message passing processes                             1
 GLOBAL| Number of threads for this process                                    1
 GLOBAL| This output is from process                                           0
 GLOBAL| CPU model name :  Intel(R) Core(TM) i5-3320M CPU @ 2.60GHz

 MEMORY| system memory details [Kb]
 MEMORY|                        rank 0           min           max       average
 MEMORY| MemTotal              7860772       7860772       7860772       7860772
 MEMORY| MemFree               2095540       2095540       2095540       2095540
 MEMORY| Buffers                281408        281408        281408        281408
 MEMORY| Cached                1959240       1959240       1959240       1959240
 MEMORY| Slab                   256232        256232        256232        256232
 MEMORY| SReclaimable           133800        133800        133800        133800
 MEMORY| MemLikelyFree         4469988       4469988       4469988       4469988


 GENERATE|  Preliminary Number of Bonds generated:                             0
 GENERATE|  Achieved consistency in connectivity generation.

 *******************************************************************************
 *******************************************************************************
 **                                                                           **
 **     #####                         ##              ##                      **
 **    ##   ##            ##          ##              ##                      **
 **   ##     ##                       ##            ######                    **
 **   ##     ##  ##   ##  ##   #####  ##  ##   ####   ##    #####    #####    **
 **   ##     ##  ##   ##  ##  ##      ## ##   ##      ##   ##   ##  ##   ##   **
 **   ##  ## ##  ##   ##  ##  ##      ####     ###    ##   ######   ######    **
 **    ##  ###   ##   ##  ##  ##      ## ##      ##   ##   ##       ##        **
 **     #######   #####   ##   #####  ##  ##  ####    ##    #####   ##        **
 **           ##                                                    ##        **
 **                                                                           **
 **                                                ... make the atoms dance   **
 **                                                                           **
 **            Copyright (C) by CP2K developers group (2000 - 2018)           **
 **                                                                           **
 *******************************************************************************


 TOTAL NUMBERS AND MAXIMUM NUMBERS

  Total number of            - Atomic kinds:                                   2
                             - Atoms:                                          6
                             - Shell sets:                                     6
                             - Shells:                                        22
                             - Primitive Cartesian functions:                 42
                             - Cartesian basis functions:                     48
                             - Spherical basis functions:                     46

  Maximum angular momentum of- Orbital basis functions:                        2
                             - Local part of the GTH pseudopotential:          2
                             - Non-local part of the GTH pseudopotential:      0

 ------------------------------ Linear scaling SCF -----------------------------
 eps_scf:                                       0.100E-07
 eps_filter:                                    0.100E-07
 mixing_fraction:                               0.450E+00
 max_scf:                                              25
 fixed chemical potential (mu)                          F
 has unit metric:                                       F
 Computing inv(S):                                      T
 Computing sqrt(S):                                     T
 Computing s preconditioner                             F
 sign sqrt order:                                       3
 Extrapolation order:                                   1
 Use single precision matrices                          F
 S preconditioner type                               NONE
 Polarized Atomic Orbitals (PAO)                        T
 Purification method                      Trace resetting 4th order
 Cluster type                                      ATOMIC
 Computing Chebyshev                                FALSE
 Using PAO                                              T
 -------------------------------------------------------------------------------

 
 PAO|                                  EPS_PAO                           0.5E-06
 PAO|                                  MIXING                            0.5E+00
 PAO|                                  MAX_PAO                              1000
 PAO|                                  MAX_CYCLES                           1000
 PAO|                                  PARAMETERIZATION                   DIRECT
 PAO|                                  PRECONDITION                            F
 PAO|                                  REGULARIZATION                    0.0E+00
 PAO|                                  EPS_PGF                           0.1E-09
 PAO|                                  PENALTY_DISTANCE                  0.1E+00
 PAO|                                  PENALTY_STRENGTH                  0.5E-02
 PAO|                                  LINPOT_PRECONDITION_DELTA         0.0E+00
 PAO|                                  LINPOT_INITGUESS_DELT             0.0E+00
 PAO|                                  LINPOT_REGULARIZATION_DELTA       0.0E+00
 PAO|                                  LINPOT_REGULARIZATION_STRENGTH    0.0E+00
 PAO|                                  OPTIMIZER                              CG
 PAO|                                  CG_INIT_STEPS                           2
 PAO|                                  CG_RESET_LIMIT                    0.1E+00
 PAO|                                  CHECK_UNITARY_TOL                -0.1E+01
 PAO|                                  CHECK_GRADIENT_TOL               -0.1E+01
 PAO|                                  NUM_GRADIENT_ORDER                      2
 PAO|                                  NUM_GRADIENT_EPS                  0.1E-07
 PAO|                                  PRINT%RESTART%WRITE_CYCLES            100
 PAO|                                  RESTART_FILE 
 PAO|                                  PREOPT_DM_FILE 2H2O_ref_LS_DM_SPIN_1_RESTART.dm
 PAO|                                  MACHINE_LEARNING%METHOD        GAUSSIAN_P
 PAO|                                  MACHINE_LEARNING%PRIOR               ZERO
 PAO|                                  MACHINE_LEARNING%DESCRIPTOR     POTENTIAL
 PAO|                                  MACHINE_LEARNING%TOLERANCE        0.1E-01
 PAO|                                  MACHINE_LEARNING%GP_NOISE_VAR     0.1E+00
 PAO|                                  MACHINE_LEARNING%GP_SCALE         0.5E-01
 

 Calculating atomic Fock matrix for atomic kind: O

 Electronic structure
    Total number of core electrons                                          2.00
    Total number of valence electrons                                       6.00
    Total number of electrons                                               8.00
    Multiplicity                                                   not specified
    S   [  2.00] 2.00
    P      4.00


 *******************************************************************************
                  Iteration          Convergence                     Energy [au]
 *******************************************************************************
                          1        0.708315                     -15.576645311500
                          2        0.608879                     -15.587933561584
                          3        0.102828E-01                 -15.656849565404
                          4        0.113889E-02                 -15.656866888140
                          5        0.434197E-03                 -15.656867072159
                          6        0.263771E-03                 -15.656867091904
                          7        0.478536E-06                 -15.656867103452

 Energy components [Hartree]           Total Energy ::          -15.656867103452
                                        Band Energy ::           -3.000198112285
                                     Kinetic Energy ::           11.759971203220
                                   Potential Energy ::          -27.416838306672
                                      Virial (-V/T) ::            2.331369510426
                                        Core Energy ::          -26.140716385623
                                          XC Energy ::           -3.154051012914
                                     Coulomb Energy ::           13.637900295084
                       Total Pseudopotential Energy ::          -37.935781716540
                       Local Pseudopotential Energy ::          -39.218907440693
                    Nonlocal Pseudopotential Energy ::            1.283125724153
                                        Confinement ::            0.350941276976

 Orbital energies  State     L     Occupation   Energy[a.u.]          Energy[eV]

                       1     0          2.000      -0.864471          -23.523463

                       1     1          4.000      -0.317814           -8.648154


 Total Electron Density at R=0:                                         0.000068

 Calculating atomic Fock matrix for atomic kind: H

 Electronic structure
    Total number of core electrons                                          0.00
    Total number of valence electrons                                       1.00
    Total number of electrons                                               1.00
    Multiplicity                                                   not specified
    S      1.00


 *******************************************************************************
                  Iteration          Convergence                     Energy [au]
 *******************************************************************************
                          1        0.437545E-02                  -0.424159432110
                          2        0.531356E-03                  -0.424178438213
                          3        0.259176E-06                  -0.424178722480

 Energy components [Hartree]           Total Energy ::           -0.424178722480
                                        Band Energy ::           -0.199015229016
                                     Kinetic Energy ::            0.464007633961
                                   Potential Energy ::           -0.888186356441
                                      Virial (-V/T) ::            1.914163240935
                                        Core Energy ::           -0.479160803564
                                          XC Energy ::           -0.244352904054
                                     Coulomb Energy ::            0.299334985138
                       Total Pseudopotential Energy ::           -0.962295316385
                       Local Pseudopotential Energy ::           -0.962295316385
                    Nonlocal Pseudopotential Energy ::            0.000000000000
                                        Confinement ::            0.191268788606

 Orbital energies  State     L     Occupation   Energy[a.u.]          Energy[eV]

                       1     0          1.000      -0.199015           -5.415480


 Total Electron Density at R=0:                                         0.242907
 PAO| Made initial guess for matrix_X with norm:   4.8989794855663558     

     Lanczos converged:  T threshold:   0.100E-02
     Est. extremal eigenvalues:    0.345E+01   0.118E+00
     Est. condition number :    0.293E+02
     NS sqrt iter    1 1.00000000   0.845E+00       0.002       38.188
     NS sqrt iter    2 1.00000000   0.452E+00       0.001       84.157
     NS sqrt iter    3 1.00000000   0.173E+00       0.001       84.852
     NS sqrt iter    4 1.00000000   0.209E-01       0.001       83.859
     NS sqrt iter    5 1.00000000   0.538E-04       0.001       64.807
     Final NS sqrt iter    5 1.00000000   0.468E-08

 PAO| Read restart DM 2H2O_ref_LS_DM_SPIN_1_RESTART.dm with checksum:    58.079238625296433     
 PAO| Quickstep energy from restart density:  -34.447252865384051     
 PAO| ======================= Iteration:         1 =============================

     Lanczos converged:  T threshold:   0.100E-02
     Est. extremal eigenvalues:    0.345E+01   0.118E+00
     Est. condition number :    0.293E+02
     NS sqrt iter    1 1.00000000   0.845E+00       0.001       64.512
     NS sqrt iter    2 1.00000000   0.452E+00       0.001      110.592
     NS sqrt iter    3 1.00000000   0.173E+00       0.001       76.351
     NS sqrt iter    4 1.00000000   0.209E-01       0.001       97.710
     NS sqrt iter    5 1.00000000   0.538E-04       0.001       90.240
     Final NS sqrt iter    5 1.00000000   0.468E-08

     Est. extremal eigenvalues     -0.91071     1.78264  converged:  T
     TRS4 it   1 1.00000000   0.848E+00       0.000       16.128   0.100E-07
     TRS4 it   2 1.00000000   0.664E+00       0.001       32.256   0.100E-07
     TRS4 it   3 1.00000000   0.486E+00       0.001       32.256   0.100E-07
     TRS4 it   4 1.00000000   0.306E+00       0.001       32.256   0.100E-07
     TRS4 it   5 1.00000000   0.150E+00       0.001       32.256   0.100E-07
     TRS4 it   6 1.00000000   0.447E-01       0.001       32.256   0.100E-07
     TRS4 it   7 1.00000000   0.557E-02       0.001       32.256   0.100E-07
     TRS4 it   8 1.00000000   0.113E-03       0.001       32.256   0.100E-07
     TRS4 it   9 1.00000000   0.514E-07       0.001       32.256   0.100E-07
     Final TRS4 iteration    9 1.00000000   0.514E-07
     Chemical potential (mu):      -0.07790
 
 PAO| energy:  -7.6456889268305197      penalty:   8.5049066344140356E-033
 PAO|CG| warming up with steepest descent
 PAO|CG| beta:    0.0000000000000000     
 PAO| norm of gradient:  0.77968276722514840     
 PAO|LS| adapt:  T F F
 PAO|LS| adapt: scan_steps:    0.0000000000000000        0.0000000000000000        0.0000000000000000     
 PAO|LS| adapt: energies:   -7.6456889268305197        0.0000000000000000        0.0000000000000000     
 PAO| ======================= Iteration:         2 =============================

     Lanczos converged:  T threshold:   0.100E-02
     Est. extremal eigenvalues:    0.336E+01   0.133E+00
     Est. condition number :    0.253E+02
     NS sqrt iter    1 1.00000000   0.827E+00       0.002       35.741
     NS sqrt iter    2 1.00000000   0.436E+00       0.002       61.131
     NS sqrt iter    3 1.00000000   0.155E+00       0.001      110.306
     NS sqrt iter    4 1.00000000   0.145E-01       0.001      110.592
     NS sqrt iter    5 1.00000000   0.164E-04       0.001       82.944
     Final NS sqrt iter    5 1.00000000   0.391E-09

     Est. extremal eigenvalues     -0.91428     1.73603  converged:  T
     TRS4 it   1 1.00000000   0.844E+00       0.000       16.128   0.100E-07
     TRS4 it   2 1.00000000   0.648E+00       0.001       32.256   0.100E-07
     TRS4 it   3 1.00000000   0.469E+00       0.001       32.256   0.100E-07
     TRS4 it   4 1.00000000   0.285E+00       0.001       32.256   0.100E-07
     TRS4 it   5 1.00000000   0.131E+00       0.001       32.256   0.100E-07
     TRS4 it   6 1.00000000   0.342E-01       0.001       32.256   0.100E-07
     TRS4 it   7 1.00000000   0.332E-02       0.001       32.256   0.100E-07
     TRS4 it   8 1.00000000   0.405E-04       0.001       32.256   0.100E-07
     TRS4 it   9 1.00000000   0.666E-08       0.001       32.256   0.100E-07
     Final TRS4 iteration    9 1.00000000   0.666E-08
     Chemical potential (mu):      -0.06743
 
 PAO| energy:  -7.7005826315081638      penalty:   2.2066295268183332E-008
 PAO|LS| adapt:  T T F
 PAO|LS| adapt: scan_steps:    0.0000000000000000       0.10000000000000001        0.0000000000000000     
 PAO|LS| adapt: energies:   -7.6456889268305197       -7.7005826315081638        0.0000000000000000     
 PAO| ======================= Iteration:         3 =============================

     Lanczos converged:  T threshold:   0.100E-02
     Est. extremal eigenvalues:    0.326E+01   0.147E+00
     Est. condition number :    0.222E+02
     NS sqrt iter    1 1.00000000   0.809E+00       0.001       64.512
     NS sqrt iter    2 1.00000000   0.419E+00       0.001      110.592
     NS sqrt iter    3 1.00000000   0.138E+00       0.001      110.592
     NS sqrt iter    4 1.00000000   0.100E-01       0.001      110.592
     NS sqrt iter    5 1.00000000   0.501E-05       0.001       82.944
     Final NS sqrt iter    5 1.00000000   0.343E-10

     Est. extremal eigenvalues     -0.91764     1.70376  converged:  T
     TRS4 it   1 1.00000000   0.842E+00       0.000       16.128   0.100E-07
     TRS4 it   2 1.00000000   0.634E+00       0.001       32.256   0.100E-07
     TRS4 it   3 1.00000000   0.454E+00       0.001       32.256   0.100E-07
     TRS4 it   4 1.00000000   0.266E+00       0.001       32.256   0.100E-07
     TRS4 it   5 1.00000000   0.113E+00       0.001       32.256   0.100E-07
     TRS4 it   6 1.00000000   0.257E-01       0.001       32.256   0.100E-07
     TRS4 it   7 1.00000000   0.187E-02       0.001       32.256   0.100E-07
     TRS4 it   8 1.00000000   0.129E-04       0.001       32.256   0.100E-07
     TRS4 it   9 1.00000000   0.684E-09       0.001       32.256   0.100E-07
     Final TRS4 iteration    9 1.00000000   0.684E-09
     Chemical potential (mu):      -0.05589
 
 PAO| energy:  -7.7430481906581861      penalty:   3.5305901967327467E-007
 PAO|LS| adapt:  T T F
 PAO|LS| adapt: scan_steps:    0.0000000000000000       0.20000000000000001        0.0000000000000000     
 PAO|LS| adapt: energies:   -7.6456889268305197       -7.7430481906581861        0.0000000000000000     
 PAO| ======================= Iteration:         4 =============================

     Lanczos converged:  T threshold:   0.100E-02
     Est. extremal eigenvalues:    0.305E+01   0.164E+00
     Est. condition number :    0.186E+02
     NS sqrt iter    1 1.00000000   0.768E+00       0.001       60.327
     NS sqrt iter    2 1.00000000   0.383E+00       0.001      110.592
     NS sqrt iter    3 1.00000000   0.108E+00       0.001      110.592
     NS sqrt iter    4 1.00000000   0.486E-02       0.001      110.592
     NS sqrt iter    5 1.00000000   0.665E-06       0.001       82.688
     Final NS sqrt iter    5 1.00000000   0.854E-10

     Est. extremal eigenvalues     -0.92293     1.66828  converged:  T
     TRS4 it   1 1.00000000   0.845E+00       0.000       16.128   0.100E-07
     TRS4 it   2 1.00000000   0.615E+00       0.001       32.256   0.100E-07
     TRS4 it   3 1.00000000   0.429E+00       0.001       32.256   0.100E-07
     TRS4 it   4 1.00000000   0.233E+00       0.001       32.256   0.100E-07
     TRS4 it   5 1.00000000   0.851E-01       0.001       32.256   0.100E-07
     TRS4 it   6 1.00000000   0.139E-01       0.001       32.256   0.100E-07
     TRS4 it   7 1.00000000   0.527E-03       0.001       32.256   0.100E-07
     TRS4 it   8 1.00000000   0.103E-05       0.001       32.256   0.100E-07
     TRS4 it   9 1.00000000   0.441E-11       0.001       32.256   0.100E-07
     Final TRS4 iteration    9 1.00000000   0.441E-11
     Chemical potential (mu):      -0.03060
 
 PAO| energy:  -7.7891962038323435      penalty:   5.6489306833564288E-006
 PAO|LS| Need extra step
 PAO|LS| adapt:  T T F
 PAO|LS| adapt: scan_steps:    0.0000000000000000       0.40000000000000002        0.0000000000000000     
 PAO|LS| adapt: energies:   -7.6456889268305197       -7.7891962038323435        0.0000000000000000     
 PAO| ======================= Iteration:         5 =============================

     Lanczos converged:  T threshold:   0.100E-02
     Est. extremal eigenvalues:    0.266E+01   0.186E+00
     Est. condition number :    0.143E+02
     NS sqrt iter    1 1.00000000   0.695E+00       0.001       58.140
     NS sqrt iter    2 1.00000000   0.317E+00       0.001      110.592
     NS sqrt iter    3 1.00000000   0.652E-01       0.001      110.592
     NS sqrt iter    4 1.00000000   0.131E-02       0.001      110.592
     NS sqrt iter    5 1.00000000   0.222E-07       0.001       57.216
     Final NS sqrt iter    5 1.00000000   0.371E-08

     Est. extremal eigenvalues     -0.92465     1.64441  converged:  T
     TRS4 it   1 1.00000000   0.857E+00       0.000       16.128   0.100E-07
     TRS4 it   2 1.00000000   0.593E+00       0.001       32.256   0.100E-07
     TRS4 it   3 1.00000000   0.394E+00       0.001       32.256   0.100E-07
     TRS4 it   4 1.00000000   0.187E+00       0.001       32.256   0.100E-07
     TRS4 it   5 1.00000000   0.506E-01       0.001       32.256   0.100E-07
     TRS4 it   6 1.00000000   0.431E-02       0.001       32.256   0.100E-07
     TRS4 it   7 1.00000000   0.410E-04       0.001       32.256   0.100E-07
     TRS4 it   8 1.00000000   0.555E-08       0.001       32.256   0.100E-07
     Final TRS4 iteration    8 1.00000000   0.555E-08
     Chemical potential (mu):       0.01880
 
 PAO| energy:  -7.7331596067103954      penalty:   9.0382781904481554E-005
 PAO|LS| Need extra step
 PAO|LS| adapt:  T T T
 PAO|LS| adapt: scan_steps:    0.0000000000000000       0.40000000000000002       0.80000000000000004     
 PAO|LS| adapt: energies:   -7.6456889268305197       -7.7891962038323435       -7.7331596067103954     
 PAO|LS| adapt: suggested step_size:   0.48767062408101786     
 PAO|LS| adapt: predicted energy  -7.7939890845160056     
 PAO| ======================= Iteration:         6 =============================

     Lanczos converged:  T threshold:   0.100E-02
     Est. extremal eigenvalues:    0.296E+01   0.169E+00
     Est. condition number :    0.175E+02
     NS sqrt iter    1 1.00000000   0.750E+00       0.001       64.447
     NS sqrt iter    2 1.00000000   0.367E+00       0.001      110.592
     NS sqrt iter    3 1.00000000   0.963E-01       0.001      110.592
     NS sqrt iter    4 1.00000000   0.359E-02       0.001      110.592
     NS sqrt iter    5 1.00000000   0.313E-06       0.001       81.280
     Final NS sqrt iter    5 1.00000000   0.251E-09

     Est. extremal eigenvalues     -0.92441     1.65989  converged:  T
     TRS4 it   1 1.00000000   0.847E+00       0.000       16.128   0.100E-07
     TRS4 it   2 1.00000000   0.609E+00       0.001       32.256   0.100E-07
     TRS4 it   3 1.00000000   0.420E+00       0.001       32.256   0.100E-07
     TRS4 it   4 1.00000000   0.221E+00       0.001       32.256   0.100E-07
     TRS4 it   5 1.00000000   0.752E-01       0.001       32.256   0.100E-07
     TRS4 it   6 1.00000000   0.106E-01       0.001       32.256   0.100E-07
     TRS4 it   7 1.00000000   0.293E-03       0.001       32.256   0.100E-07
     TRS4 it   8 1.00000000   0.316E-06       0.001       32.256   0.100E-07
     TRS4 it   9 1.00000000   0.423E-12       0.001       32.256   0.100E-07
     Final TRS4 iteration    9 1.00000000   0.423E-12
     Chemical potential (mu):      -0.01904
 
 PAO| energy:  -7.7932599004667482      penalty:   1.2480514084474098E-005
 PAO|CG| warming up with steepest descent
 PAO|CG| beta:    0.0000000000000000     
 PAO| norm of gradient:  0.41583623532284847     
 PAO| energy improvement: -0.14757097363622851     
 PAO| step      6                   -7.793259900  0.260E-01  0.488E+00     0.092
 PAO|LS| adapt:  T F F
 PAO|LS| adapt: scan_steps:    0.0000000000000000        0.0000000000000000        0.0000000000000000     
 PAO|LS| adapt: energies:   -7.7932599004667482        0.0000000000000000        0.0000000000000000     
 PAO| ======================= Iteration:         7 =============================

     Lanczos converged:  T threshold:   0.100E-02
     Est. extremal eigenvalues:    0.286E+01   0.183E+00
     Est. condition number :    0.157E+02
     NS sqrt iter    1 1.00000000   0.730E+00       0.001       64.512
     NS sqrt iter    2 1.00000000   0.345E+00       0.001      110.592
     NS sqrt iter    3 1.00000000   0.803E-01       0.001      110.592
     NS sqrt iter    4 1.00000000   0.216E-02       0.001      110.592
     NS sqrt iter    5 1.00000000   0.775E-07       0.001       67.340
     Final NS sqrt iter    5 1.00000000   0.331E-09

     Est. extremal eigenvalues     -0.92597     1.65847  converged:  T
     TRS4 it   1 1.00000000   0.851E+00       0.000       16.128   0.100E-07
     TRS4 it   2 1.00000000   0.610E+00       0.001       32.256   0.100E-07
     TRS4 it   3 1.00000000   0.423E+00       0.001       32.256   0.100E-07
     TRS4 it   4 1.00000000   0.224E+00       0.001       32.256   0.100E-07
     TRS4 it   5 1.00000000   0.769E-01       0.001       32.256   0.100E-07
     TRS4 it   6 1.00000000   0.107E-01       0.001       32.256   0.100E-07
     TRS4 it   7 1.00000000   0.272E-03       0.001       32.256   0.100E-07
     TRS4 it   8 1.00000000   0.260E-06       0.001       32.256   0.100E-07
     TRS4 it   9 1.00000000   0.289E-12       0.001       32.256   0.100E-07
     Final TRS4 iteration    9 1.00000000   0.289E-12
     Chemical potential (mu):      -0.01544
 
 PAO| energy:  -7.7870492843833983      penalty:   1.9125760658000790E-005
 PAO|LS| adapt:  T F T
 PAO|LS| adapt: scan_steps:    0.0000000000000000        0.0000000000000000       0.48767062408101786     
 PAO|LS| adapt: energies:   -7.7932599004667482        0.0000000000000000       -7.7870492843833983     
 PAO| ======================= Iteration:         8 =============================

     Lanczos converged:  T threshold:   0.100E-02
     Est. extremal eigenvalues:    0.291E+01   0.176E+00
     Est. condition number :    0.166E+02
     NS sqrt iter    1 1.00000000   0.740E+00       0.001       49.744
     NS sqrt iter    2 1.00000000   0.356E+00       0.001      106.819
     NS sqrt iter    3 1.00000000   0.881E-01       0.001      110.592
     NS sqrt iter    4 1.00000000   0.280E-02       0.001      110.592
     NS sqrt iter    5 1.00000000   0.158E-06       0.001       78.208
     Final NS sqrt iter    5 1.00000000   0.607E-09

     Est. extremal eigenvalues     -0.92571     1.65882  converged:  T
     TRS4 it   1 1.00000000   0.848E+00       0.001       15.253   0.100E-07
     TRS4 it   2 1.00000000   0.609E+00       0.002       14.917   0.100E-07
     TRS4 it   3 1.00000000   0.421E+00       0.001       32.256   0.100E-07
     TRS4 it   4 1.00000000   0.222E+00       0.001       32.256   0.100E-07
     TRS4 it   5 1.00000000   0.758E-01       0.001       32.256   0.100E-07
     TRS4 it   6 1.00000000   0.107E-01       0.001       32.256   0.100E-07
     TRS4 it   7 1.00000000   0.289E-03       0.001       32.256   0.100E-07
     TRS4 it   8 1.00000000   0.303E-06       0.001       32.256   0.100E-07
     TRS4 it   9 1.00000000   0.389E-12       0.001       32.256   0.100E-07
     Final TRS4 iteration    9 1.00000000   0.389E-12
     Chemical potential (mu):      -0.01750
 
 PAO| energy:  -7.8126012783948342      penalty:   1.3572622380569213E-005
 PAO|LS| adapt:  T T T
 PAO|LS| adapt: scan_steps:    0.0000000000000000       0.24383531204050893       0.48767062408101786     
 PAO|LS| adapt: energies:   -7.7932599004667482       -7.8126012783948342       -7.7870492843833983     
 PAO|LS| adapt: suggested step_size:   0.22696904152860001     
 PAO|LS| adapt: predicted energy  -7.8127086766322247     
 PAO| ======================= Iteration:         9 =============================

     Lanczos converged:  T threshold:   0.100E-02
     Est. extremal eigenvalues:    0.292E+01   0.175E+00
     Est. condition number :    0.166E+02
     NS sqrt iter    1 1.00000000   0.741E+00       0.001       64.512
     NS sqrt iter    2 1.00000000   0.357E+00       0.001      110.592
     NS sqrt iter    3 1.00000000   0.886E-01       0.001      110.592
     NS sqrt iter    4 1.00000000   0.285E-02       0.001      106.927
     NS sqrt iter    5 1.00000000   0.166E-06       0.001       68.362
     Final NS sqrt iter    5 1.00000000   0.640E-09

     Est. extremal eigenvalues     -0.92566     1.65887  converged:  T
     TRS4 it   1 1.00000000   0.848E+00       0.000       16.128   0.100E-07
     TRS4 it   2 1.00000000   0.609E+00       0.001       32.256   0.100E-07
     TRS4 it   3 1.00000000   0.420E+00       0.001       32.256   0.100E-07
     TRS4 it   4 1.00000000   0.222E+00       0.001       32.256   0.100E-07
     TRS4 it   5 1.00000000   0.757E-01       0.001       32.256   0.100E-07
     TRS4 it   6 1.00000000   0.107E-01       0.001       32.256   0.100E-07
     TRS4 it   7 1.00000000   0.290E-03       0.001       32.256   0.100E-07
     TRS4 it   8 1.00000000   0.305E-06       0.001       32.256   0.100E-07
     TRS4 it   9 1.00000000   0.395E-12       0.001       32.256   0.100E-07
     Final TRS4 iteration    9 1.00000000   0.395E-12
     Chemical potential (mu):      -0.01762
 
 PAO| energy:  -7.8127307929540875      penalty:   1.3393861712009537E-005
 PAO|CG| trace_G_new    3.8069825890814694E-002
 PAO|CG| trace_G_prev   0.17291977460747943     
 PAO|CG| trace_G_mix   -1.2600048935788111E-003
 PAO|CG| trace_D   0.17291977460747943     
 PAO|CG| trace_D_Gnew   1.2600048935788111E-003
 PAO|CG| beta:   0.22744553579063215     
 PAO| norm of gradient:  0.19511490432771841     
 PAO| energy improvement:  -1.9470892487339242E-002
 PAO| step      9                   -7.812730793  0.122E-01  0.227E+00     0.056
 PAO|LS| adapt:  T F F
 PAO|LS| adapt: scan_steps:    0.0000000000000000        0.0000000000000000        0.0000000000000000     
 PAO|LS| adapt: energies:   -7.8127307929540875        0.0000000000000000        0.0000000000000000     
 PAO| ======================= Iteration:        10 =============================

     Lanczos converged:  T threshold:   0.100E-02
     Est. extremal eigenvalues:    0.287E+01   0.180E+00
     Est. condition number :    0.159E+02
     NS sqrt iter    1 1.00000000   0.731E+00       0.001       63.149
     NS sqrt iter    2 1.00000000   0.348E+00       0.002       66.429
     NS sqrt iter    3 1.00000000   0.826E-01       0.001       91.644
     NS sqrt iter    4 1.00000000   0.233E-02       0.001      110.592
     NS sqrt iter    5 1.00000000   0.951E-07       0.001       74.880
     Final NS sqrt iter    5 1.00000000   0.455E-09

     Est. extremal eigenvalues     -0.92661     1.66512  converged:  T
     TRS4 it   1 1.00000000   0.851E+00       0.000       16.128   0.100E-07
     TRS4 it   2 1.00000000   0.610E+00       0.001       32.256   0.100E-07
     TRS4 it   3 1.00000000   0.421E+00       0.001       32.256   0.100E-07
     TRS4 it   4 1.00000000   0.222E+00       0.001       32.256   0.100E-07
     TRS4 it   5 1.00000000   0.751E-01       0.001       32.256   0.100E-07
     TRS4 it   6 1.00000000   0.104E-01       0.001       32.256   0.100E-07
     TRS4 it   7 1.00000000   0.267E-03       0.001       32.256   0.100E-07
     TRS4 it   8 1.00000000   0.256E-06       0.001       32.256   0.100E-07
     TRS4 it   9 1.00000000   0.280E-12       0.001       32.256   0.100E-07
     Final TRS4 iteration    9 1.00000000   0.280E-12
     Chemical potential (mu):      -0.01477
 
 PAO| energy:  -7.8177990554474803      penalty:   1.3944903577092672E-005
 PAO|LS| adapt:  T T F
 PAO|LS| adapt: scan_steps:    0.0000000000000000       0.22696904152860001        0.0000000000000000     
 PAO|LS| adapt: energies:   -7.8127307929540875       -7.8177990554474803        0.0000000000000000     
 PAO| ======================= Iteration:        11 =============================

     Lanczos converged:  T threshold:   0.100E-02
     Est. extremal eigenvalues:    0.282E+01   0.185E+00
     Est. condition number :    0.152E+02
     NS sqrt iter    1 1.00000000   0.721E+00       0.001       64.512
     NS sqrt iter    2 1.00000000   0.338E+00       0.001       84.292
     NS sqrt iter    3 1.00000000   0.767E-01       0.001      107.438
     NS sqrt iter    4 1.00000000   0.190E-02       0.001       96.682
     NS sqrt iter    5 1.00000000   0.532E-07       0.001       68.352
     Final NS sqrt iter    5 1.00000000   0.210E-08

     Est. extremal eigenvalues     -0.92629     1.67218  converged:  T
     TRS4 it   1 1.00000000   0.853E+00       0.000       16.128   0.100E-07
     TRS4 it   2 1.00000000   0.612E+00       0.001       32.256   0.100E-07
     TRS4 it   3 1.00000000   0.422E+00       0.001       32.256   0.100E-07
     TRS4 it   4 1.00000000   0.221E+00       0.001       32.256   0.100E-07
     TRS4 it   5 1.00000000   0.744E-01       0.001       32.256   0.100E-07
     TRS4 it   6 1.00000000   0.101E-01       0.001       32.256   0.100E-07
     TRS4 it   7 1.00000000   0.245E-03       0.001       32.256   0.100E-07
     TRS4 it   8 1.00000000   0.212E-06       0.001       32.256   0.100E-07
     TRS4 it   9 1.00000000   0.193E-12       0.001       32.256   0.100E-07
     Final TRS4 iteration    9 1.00000000   0.193E-12
     Chemical potential (mu):      -0.01176
 
 PAO| energy:  -7.8161211064939202      penalty:   1.5150414756055178E-005
 PAO|LS| adapt:  T T T
 PAO|LS| adapt: scan_steps:    0.0000000000000000       0.22696904152860001       0.45393808305720001     
 PAO|LS| adapt: energies:   -7.8127307929540875       -7.8177990554474803       -7.8161211064939202     
 PAO|LS| adapt: suggested step_size:   0.28400077116441164     
 PAO|LS| adapt: predicted energy  -7.8180120310188208     
 PAO| ======================= Iteration:        12 =============================

     Lanczos converged:  T threshold:   0.100E-02
     Est. extremal eigenvalues:    0.286E+01   0.182E+00
     Est. condition number :    0.157E+02
     NS sqrt iter    1 1.00000000   0.729E+00       0.001       63.536
     NS sqrt iter    2 1.00000000   0.345E+00       0.001       88.731
     NS sqrt iter    3 1.00000000   0.811E-01       0.001      102.620
     NS sqrt iter    4 1.00000000   0.222E-02       0.001      110.592
     NS sqrt iter    5 1.00000000   0.824E-07       0.001       73.984
     Final NS sqrt iter    5 1.00000000   0.400E-09

     Est. extremal eigenvalues     -0.92665     1.66683  converged:  T
     TRS4 it   1 1.00000000   0.851E+00       0.000       16.128   0.100E-07
     TRS4 it   2 1.00000000   0.611E+00       0.001       32.256   0.100E-07
     TRS4 it   3 1.00000000   0.421E+00       0.001       32.256   0.100E-07
     TRS4 it   4 1.00000000   0.222E+00       0.001       32.256   0.100E-07
     TRS4 it   5 1.00000000   0.749E-01       0.001       32.256   0.100E-07
     TRS4 it   6 1.00000000   0.103E-01       0.001       32.256   0.100E-07
     TRS4 it   7 1.00000000   0.262E-03       0.001       32.256   0.100E-07
     TRS4 it   8 1.00000000   0.245E-06       0.001       32.256   0.100E-07
     TRS4 it   9 1.00000000   0.255E-12       0.001       32.256   0.100E-07
     Final TRS4 iteration    9 1.00000000   0.255E-12
     Chemical potential (mu):      -0.01402
 
 PAO| energy:  -7.8179957729086107      penalty:   1.4179274764693348E-005
 PAO|CG| trace_G_new    1.1580613601719813E-002
 PAO|CG| trace_G_prev    3.8069825890814694E-002
 PAO|CG| trace_G_mix   -4.6697429887930780E-004
 PAO|CG| trace_D    4.6442055349888302E-002
 PAO|CG| trace_D_Gnew   2.4804143144710185E-004
 PAO|CG| beta:   0.31646028366801399     
 PAO| norm of gradient:  0.10761325941406945     
 PAO| energy improvement:  -5.2649799545232412E-003
 PAO| step     12                   -7.817995773  0.673E-02  0.284E+00     0.053
 PAO|LS| adapt:  T F F
 PAO|LS| adapt: scan_steps:    0.0000000000000000        0.0000000000000000        0.0000000000000000     
 PAO|LS| adapt: energies:   -7.8179957729086107        0.0000000000000000        0.0000000000000000     
 PAO| ======================= Iteration:        13 =============================

     Lanczos converged:  T threshold:   0.100E-02
     Est. extremal eigenvalues:    0.282E+01   0.185E+00
     Est. condition number :    0.152E+02
     NS sqrt iter    1 1.00000000   0.720E+00       0.001       52.593
     NS sqrt iter    2 1.00000000   0.338E+00       0.001      107.424
     NS sqrt iter    3 1.00000000   0.766E-01       0.001      110.592
     NS sqrt iter    4 1.00000000   0.190E-02       0.001      110.592
     NS sqrt iter    5 1.00000000   0.536E-07       0.001       68.480
     Final NS sqrt iter    5 1.00000000   0.215E-08

     Est. extremal eigenvalues     -0.92717     1.66928  converged:  T
     TRS4 it   1 1.00000000   0.853E+00       0.000       16.128   0.100E-07
     TRS4 it   2 1.00000000   0.610E+00       0.001       32.256   0.100E-07
     TRS4 it   3 1.00000000   0.420E+00       0.001       32.256   0.100E-07
     TRS4 it   4 1.00000000   0.219E+00       0.001       32.256   0.100E-07
     TRS4 it   5 1.00000000   0.725E-01       0.001       32.256   0.100E-07
     TRS4 it   6 1.00000000   0.955E-02       0.001       32.256   0.100E-07
     TRS4 it   7 1.00000000   0.220E-03       0.001       32.256   0.100E-07
     TRS4 it   8 1.00000000   0.171E-06       0.001       32.256   0.100E-07
     TRS4 it   9 1.00000000   0.126E-12       0.001       32.256   0.100E-07
     Final TRS4 iteration    9 1.00000000   0.126E-12
     Chemical potential (mu):      -0.00996
 
 PAO| energy:  -7.8199906826259165      penalty:   1.4446439836635312E-005
 PAO|LS| adapt:  T T F
 PAO|LS| adapt: scan_steps:    0.0000000000000000       0.28400077116441164        0.0000000000000000     
 PAO|LS| adapt: energies:   -7.8179957729086107       -7.8199906826259165        0.0000000000000000     
 PAO| ======================= Iteration:        14 =============================

     Lanczos converged:  T threshold:   0.100E-02
     Est. extremal eigenvalues:    0.278E+01   0.188E+00
     Est. condition number :    0.148E+02
     NS sqrt iter    1 1.00000000   0.711E+00       0.001       63.045
     NS sqrt iter    2 1.00000000   0.330E+00       0.001      110.592
     NS sqrt iter    3 1.00000000   0.723E-01       0.001       97.046
     NS sqrt iter    4 1.00000000   0.162E-02       0.001      110.592
     NS sqrt iter    5 1.00000000   0.346E-07       0.001       51.355
     Final NS sqrt iter    5 1.00000000   0.231E-08

     Est. extremal eigenvalues     -0.92715     1.67167  converged:  T
     TRS4 it   1 1.00000000   0.856E+00       0.000       16.128   0.100E-07
     TRS4 it   2 1.00000000   0.610E+00       0.001       32.256   0.100E-07
     TRS4 it   3 1.00000000   0.418E+00       0.001       32.256   0.100E-07
     TRS4 it   4 1.00000000   0.216E+00       0.001       32.256   0.100E-07
     TRS4 it   5 1.00000000   0.701E-01       0.001       32.256   0.100E-07
     TRS4 it   6 1.00000000   0.885E-02       0.001       32.256   0.100E-07
     TRS4 it   7 1.00000000   0.186E-03       0.001       32.256   0.100E-07
     TRS4 it   8 1.00000000   0.120E-06       0.001       32.256   0.100E-07
     TRS4 it   9 1.00000000   0.621E-13       0.001       32.256   0.100E-07
     Final TRS4 iteration    9 1.00000000   0.621E-13
     Chemical potential (mu):      -0.00596
 
 PAO| energy:  -7.8194852447467271      penalty:   1.5132272349842911E-005
 PAO|LS| adapt:  T T T
 PAO|LS| adapt: scan_steps:    0.0000000000000000       0.28400077116441164       0.56800154232882327     
 PAO|LS| adapt: energies:   -7.8179957729086107       -7.8199906826259165       -7.8194852447467271     
 PAO|LS| adapt: suggested step_size:   0.36859123995477178     
 PAO|LS| adapt: predicted energy  -7.8201015935228471     
 PAO| ======================= Iteration:        15 =============================

     Lanczos converged:  T threshold:   0.100E-02
     Est. extremal eigenvalues:    0.281E+01   0.186E+00
     Est. condition number :    0.151E+02
     NS sqrt iter    1 1.00000000   0.717E+00       0.001       64.512
     NS sqrt iter    2 1.00000000   0.336E+00       0.001      109.867
     NS sqrt iter    3 1.00000000   0.753E-01       0.001      110.592
     NS sqrt iter    4 1.00000000   0.181E-02       0.001      110.592
     NS sqrt iter    5 1.00000000   0.471E-07       0.001       62.516
     Final NS sqrt iter    5 1.00000000   0.323E-09

     Est. extremal eigenvalues     -0.92722     1.67000  converged:  T
     TRS4 it   1 1.00000000   0.854E+00       0.000       16.128   0.100E-07
     TRS4 it   2 1.00000000   0.610E+00       0.001       32.256   0.100E-07
     TRS4 it   3 1.00000000   0.419E+00       0.001       32.256   0.100E-07
     TRS4 it   4 1.00000000   0.218E+00       0.001       32.256   0.100E-07
     TRS4 it   5 1.00000000   0.718E-01       0.001       32.256   0.100E-07
     TRS4 it   6 1.00000000   0.933E-02       0.001       32.256   0.100E-07
     TRS4 it   7 1.00000000   0.209E-03       0.001       32.256   0.100E-07
     TRS4 it   8 1.00000000   0.154E-06       0.001       32.256   0.100E-07
     TRS4 it   9 1.00000000   0.102E-12       0.001       32.256   0.100E-07
     Final TRS4 iteration    9 1.00000000   0.102E-12
     Chemical potential (mu):      -0.00876
 
 PAO| energy:  -7.8200986451558467      penalty:   1.4604238912741134E-005
 PAO|CG| trace_G_new    2.5112729519261006E-003
 PAO|CG| trace_G_prev    1.1580613601719813E-002
 PAO|CG| trace_G_mix    7.8303982732934497E-005
 PAO|CG| trace_D    1.6074660756865457E-002
 PAO|CG| trace_D_Gnew   2.8106391318643252E-005
 PAO|CG| beta:   0.21008981500184506     
 PAO| norm of gradient:   5.0112602725523057E-002
 PAO| energy improvement:  -2.1028722472360428E-003
 PAO| step     15                   -7.820098645  0.313E-02  0.369E+00     0.057
 PAO|LS| adapt:  T F F
 PAO|LS| adapt: scan_steps:    0.0000000000000000        0.0000000000000000        0.0000000000000000     
 PAO|LS| adapt: energies:   -7.8200986451558467        0.0000000000000000        0.0000000000000000     
 PAO| ======================= Iteration:        16 =============================

     Lanczos converged:  T threshold:   0.100E-02
     Est. extremal eigenvalues:    0.279E+01   0.187E+00
     Est. condition number :    0.149E+02
     NS sqrt iter    1 1.00000000   0.715E+00       0.001       64.512
     NS sqrt iter    2 1.00000000   0.334E+00       0.001      110.592
     NS sqrt iter    3 1.00000000   0.743E-01       0.001      108.134
     NS sqrt iter    4 1.00000000   0.174E-02       0.001      106.744
     NS sqrt iter    5 1.00000000   0.411E-07       0.001       66.432
     Final NS sqrt iter    5 1.00000000   0.312E-09

     Est. extremal eigenvalues     -0.92726     1.66971  converged:  T
     TRS4 it   1 1.00000000   0.855E+00       0.000       16.128   0.100E-07
     TRS4 it   2 1.00000000   0.610E+00       0.001       32.256   0.100E-07
     TRS4 it   3 1.00000000   0.418E+00       0.001       32.256   0.100E-07
     TRS4 it   4 1.00000000   0.216E+00       0.001       32.256   0.100E-07
     TRS4 it   5 1.00000000   0.706E-01       0.001       32.256   0.100E-07
     TRS4 it   6 1.00000000   0.902E-02       0.001       32.256   0.100E-07
     TRS4 it   7 1.00000000   0.196E-03       0.001       32.256   0.100E-07
     TRS4 it   8 1.00000000   0.135E-06       0.001       32.256   0.100E-07
     TRS4 it   9 1.00000000   0.782E-13       0.001       32.256   0.100E-07
     Final TRS4 iteration    9 1.00000000   0.782E-13
     Chemical potential (mu):      -0.00757
 
 PAO| energy:  -7.8202118607836395      penalty:   1.4382531139992071E-005
 PAO|LS| adapt:  T T F
 PAO|LS| adapt: scan_steps:    0.0000000000000000       0.36859123995477178        0.0000000000000000     
 PAO|LS| adapt: energies:   -7.8200986451558467       -7.8202118607836395        0.0000000000000000     
 PAO| ======================= Iteration:        17 =============================

     Lanczos converged:  T threshold:   0.100E-02
     Est. extremal eigenvalues:    0.278E+01   0.188E+00
     Est. condition number :    0.148E+02
     NS sqrt iter    1 1.00000000   0.712E+00       0.002       43.002
     NS sqrt iter    2 1.00000000   0.332E+00       0.001       88.818
     NS sqrt iter    3 1.00000000   0.733E-01       0.001      110.592
     NS sqrt iter    4 1.00000000   0.167E-02       0.001      110.592
     NS sqrt iter    5 1.00000000   0.359E-07       0.001       63.360
     Final NS sqrt iter    5 1.00000000   0.242E-08

     Est. extremal eigenvalues     -0.92711     1.66949  converged:  T
     TRS4 it   1 1.00000000   0.855E+00       0.001       10.827   0.100E-07
     TRS4 it   2 1.00000000   0.609E+00       0.002       20.643   0.100E-07
     TRS4 it   3 1.00000000   0.417E+00       0.001       32.256   0.100E-07
     TRS4 it   4 1.00000000   0.215E+00       0.001       32.256   0.100E-07
     TRS4 it   5 1.00000000   0.694E-01       0.001       32.256   0.100E-07
     TRS4 it   6 1.00000000   0.871E-02       0.001       32.256   0.100E-07
     TRS4 it   7 1.00000000   0.183E-03       0.001       32.256   0.100E-07
     TRS4 it   8 1.00000000   0.118E-06       0.001       32.256   0.100E-07
     TRS4 it   9 1.00000000   0.608E-13       0.001       32.256   0.100E-07
     Final TRS4 iteration    9 1.00000000   0.608E-13
     Chemical potential (mu):      -0.00638
 
 PAO| energy:  -7.8187002799917966      penalty:   1.4274555673177467E-005
 PAO|LS| adapt:  T T T
 PAO|LS| adapt: scan_steps:    0.0000000000000000       0.36859123995477178       0.73718247990954355     
 PAO|LS| adapt: energies:   -7.8200986451558467       -7.8202118607836395       -7.8187002799917966     
 PAO|LS| adapt: suggested step_size:   0.20997901521760312     
 PAO|LS| adapt: predicted energy  -7.8203622969481650     
 PAO| ======================= Iteration:        18 =============================

     Lanczos converged:  T threshold:   0.100E-02
     Est. extremal eigenvalues:    0.280E+01   0.186E+00
     Est. condition number :    0.150E+02
     NS sqrt iter    1 1.00000000   0.716E+00       0.001       64.512
     NS sqrt iter    2 1.00000000   0.335E+00       0.001      110.592
     NS sqrt iter    3 1.00000000   0.747E-01       0.001      110.592
     NS sqrt iter    4 1.00000000   0.177E-02       0.001       86.549
     NS sqrt iter    5 1.00000000   0.436E-07       0.001       61.469
     Final NS sqrt iter    5 1.00000000   0.328E-09

     Est. extremal eigenvalues     -0.92726     1.66983  converged:  T
     TRS4 it   1 1.00000000   0.854E+00       0.000       16.128   0.100E-07
     TRS4 it   2 1.00000000   0.610E+00       0.001       32.256   0.100E-07
     TRS4 it   3 1.00000000   0.419E+00       0.001       32.256   0.100E-07
     TRS4 it   4 1.00000000   0.217E+00       0.001       32.256   0.100E-07
     TRS4 it   5 1.00000000   0.711E-01       0.001       32.256   0.100E-07
     TRS4 it   6 1.00000000   0.915E-02       0.001       32.256   0.100E-07
     TRS4 it   7 1.00000000   0.202E-03       0.001       32.256   0.100E-07
     TRS4 it   8 1.00000000   0.143E-06       0.001       32.256   0.100E-07
     TRS4 it   9 1.00000000   0.879E-13       0.001       32.256   0.100E-07
     Final TRS4 iteration    9 1.00000000   0.879E-13
     Chemical potential (mu):      -0.00808
 
 PAO| energy:  -7.8203619424397468      penalty:   1.4464235110511239E-005
 PAO|CG| trace_G_new    6.2529628247066894E-004
 PAO|CG| trace_G_prev    2.5112729519261006E-003
 PAO|CG| trace_G_mix    2.6649678258396705E-007
 PAO|CG| trace_D    3.2089622610568082E-003
 PAO|CG| trace_D_Gnew  -1.3333333946419407E-006
 PAO|CG| beta:   0.24888962595989356     
 PAO| norm of gradient:   2.5005924947313365E-002
 PAO| energy improvement:  -2.6329728390006579E-004
 PAO| step     18                   -7.820361942  0.156E-02  0.210E+00     0.057
 PAO|LS| adapt:  T F F
 PAO|LS| adapt: scan_steps:    0.0000000000000000        0.0000000000000000        0.0000000000000000     
 PAO|LS| adapt: energies:   -7.8203619424397468        0.0000000000000000        0.0000000000000000     
 PAO| ======================= Iteration:        19 =============================

     Lanczos converged:  T threshold:   0.100E-02
     Est. extremal eigenvalues:    0.280E+01   0.186E+00
     Est. condition number :    0.150E+02
     NS sqrt iter    1 1.00000000   0.715E+00       0.003       20.576
     NS sqrt iter    2 1.00000000   0.335E+00       0.001       91.654
     NS sqrt iter    3 1.00000000   0.748E-01       0.001      108.243
     NS sqrt iter    4 1.00000000   0.177E-02       0.001      109.981
     NS sqrt iter    5 1.00000000   0.434E-07       0.001       66.816
     Final NS sqrt iter    5 1.00000000   0.329E-09

     Est. extremal eigenvalues     -0.92726     1.67020  converged:  T
     TRS4 it   1 1.00000000   0.854E+00       0.000       16.128   0.100E-07
     TRS4 it   2 1.00000000   0.610E+00       0.001       32.256   0.100E-07
     TRS4 it   3 1.00000000   0.418E+00       0.001       32.256   0.100E-07
     TRS4 it   4 1.00000000   0.217E+00       0.001       32.256   0.100E-07
     TRS4 it   5 1.00000000   0.709E-01       0.001       32.256   0.100E-07
     TRS4 it   6 1.00000000   0.913E-02       0.001       32.256   0.100E-07
     TRS4 it   7 1.00000000   0.201E-03       0.001       32.256   0.100E-07
     TRS4 it   8 1.00000000   0.143E-06       0.001       32.256   0.100E-07
     TRS4 it   9 1.00000000   0.875E-13       0.001       32.256   0.100E-07
     Final TRS4 iteration    9 1.00000000   0.875E-13
     Chemical potential (mu):      -0.00809
 
 PAO| energy:  -7.8204631049024247      penalty:   1.4191299192437551E-005
 PAO|LS| adapt:  T T F
 PAO|LS| adapt: scan_steps:    0.0000000000000000       0.20997901521760312        0.0000000000000000     
 PAO|LS| adapt: energies:   -7.8203619424397468       -7.8204631049024247        0.0000000000000000     
 PAO| ======================= Iteration:        20 =============================

     Lanczos converged:  T threshold:   0.100E-02
     Est. extremal eigenvalues:    0.280E+01   0.186E+00
     Est. condition number :    0.150E+02
     NS sqrt iter    1 1.00000000   0.715E+00       0.001       64.512
     NS sqrt iter    2 1.00000000   0.335E+00       0.001      110.592
     NS sqrt iter    3 1.00000000   0.750E-01       0.001      110.592
     NS sqrt iter    4 1.00000000   0.177E-02       0.001      110.592
     NS sqrt iter    5 1.00000000   0.432E-07       0.001       66.816
     Final NS sqrt iter    5 1.00000000   0.330E-09

     Est. extremal eigenvalues     -0.92727     1.67057  converged:  T
     TRS4 it   1 1.00000000   0.855E+00       0.001       16.128   0.100E-07
     TRS4 it   2 1.00000000   0.610E+00       0.001       32.256   0.100E-07
     TRS4 it   3 1.00000000   0.418E+00       0.001       32.256   0.100E-07
     TRS4 it   4 1.00000000   0.217E+00       0.001       32.256   0.100E-07
     TRS4 it   5 1.00000000   0.708E-01       0.001       32.256   0.100E-07
     TRS4 it   6 1.00000000   0.911E-02       0.001       32.256   0.100E-07
     TRS4 it   7 1.00000000   0.201E-03       0.001       32.256   0.100E-07
     TRS4 it   8 1.00000000   0.142E-06       0.001       32.256   0.100E-07
     TRS4 it   9 1.00000000   0.864E-13       0.001       32.256   0.100E-07
     Final TRS4 iteration    9 1.00000000   0.864E-13
     Chemical potential (mu):      -0.00809
 
 PAO| energy:  -7.8205035471101647      penalty:   1.3928611583082881E-005
 PAO|LS| adapt:  T T F
 PAO|LS| adapt: scan_steps:    0.0000000000000000       0.41995803043520624        0.0000000000000000     
 PAO|LS| adapt: energies:   -7.8203619424397468       -7.8205035471101647        0.0000000000000000     
 PAO| ======================= Iteration:        21 =============================

     Lanczos converged:  T threshold:   0.100E-02
     Est. extremal eigenvalues:    0.280E+01   0.186E+00
     Est. condition number :    0.150E+02
     NS sqrt iter    1 1.00000000   0.715E+00       0.002       41.471
     NS sqrt iter    2 1.00000000   0.335E+00       0.001       85.182
     NS sqrt iter    3 1.00000000   0.752E-01       0.001       95.869
     NS sqrt iter    4 1.00000000   0.178E-02       0.001      110.592
     NS sqrt iter    5 1.00000000   0.430E-07       0.001       66.432
     Final NS sqrt iter    5 1.00000000   0.333E-09

     Est. extremal eigenvalues     -0.92726     1.67132  converged:  T
     TRS4 it   1 1.00000000   0.855E+00       0.000       16.128   0.100E-07
     TRS4 it   2 1.00000000   0.610E+00       0.001       32.256   0.100E-07
     TRS4 it   3 1.00000000   0.418E+00       0.001       32.256   0.100E-07
     TRS4 it   4 1.00000000   0.216E+00       0.001       32.256   0.100E-07
     TRS4 it   5 1.00000000   0.706E-01       0.001       32.256   0.100E-07
     TRS4 it   6 1.00000000   0.907E-02       0.001       32.256   0.100E-07
     TRS4 it   7 1.00000000   0.200E-03       0.001       32.256   0.100E-07
     TRS4 it   8 1.00000000   0.142E-06       0.001       32.256   0.100E-07
     TRS4 it   9 1.00000000   0.862E-13       0.001       32.256   0.100E-07
     Final TRS4 iteration    9 1.00000000   0.862E-13
     Chemical potential (mu):      -0.00811
 
 PAO| energy:  -7.8204004247195407      penalty:   1.3433466604093574E-005
 PAO|LS| Need extra step
 PAO|LS| adapt:  T T T
 PAO|LS| adapt: scan_steps:    0.0000000000000000       0.41995803043520624       0.83991606087041248     
 PAO|LS| adapt: energies:   -7.8203619424397468       -7.8205035471101647       -7.8204004247195407     
 PAO|LS| adapt: suggested step_size:   0.45297632918827357     
 PAO|LS| adapt: predicted energy  -7.8205043035068265     
 PAO| ======================= Iteration:        22 =============================

     Lanczos converged:  T threshold:   0.100E-02
     Est. extremal eigenvalues:    0.280E+01   0.186E+00
     Est. condition number :    0.150E+02
     NS sqrt iter    1 1.00000000   0.715E+00       0.001       56.124
     NS sqrt iter    2 1.00000000   0.335E+00       0.001      110.592
     NS sqrt iter    3 1.00000000   0.750E-01       0.001      108.147
     NS sqrt iter    4 1.00000000   0.177E-02       0.001      110.592
     NS sqrt iter    5 1.00000000   0.432E-07       0.001       66.816
     Final NS sqrt iter    5 1.00000000   0.330E-09

     Est. extremal eigenvalues     -0.92727     1.67063  converged:  T
     TRS4 it   1 1.00000000   0.855E+00       0.000       16.128   0.100E-07
     TRS4 it   2 1.00000000   0.610E+00       0.001       32.256   0.100E-07
     TRS4 it   3 1.00000000   0.418E+00       0.001       32.256   0.100E-07
     TRS4 it   4 1.00000000   0.217E+00       0.001       32.256   0.100E-07
     TRS4 it   5 1.00000000   0.708E-01       0.001       32.256   0.100E-07
     TRS4 it   6 1.00000000   0.911E-02       0.001       32.256   0.100E-07
     TRS4 it   7 1.00000000   0.201E-03       0.001       32.256   0.100E-07
     TRS4 it   8 1.00000000   0.142E-06       0.001       32.256   0.100E-07
     TRS4 it   9 1.00000000   0.869E-13       0.001       32.256   0.100E-07
     Final TRS4 iteration    9 1.00000000   0.869E-13
     Chemical potential (mu):      -0.00809
 
 PAO| energy:  -7.8205043515951242      penalty:   1.3888227748615629E-005
 PAO|CG| trace_G_new    2.1836274652400352E-004
 PAO|CG| trace_G_prev    6.2529628247066894E-004
 PAO|CG| trace_G_mix    2.4272488143193603E-006
 PAO|CG| trace_D    8.2474251171875835E-004
 PAO|CG| trace_D_Gnew  -1.4374061480658901E-006
 PAO|CG| beta:   0.34533309050947886     
 PAO| norm of gradient:   1.4777102101697866E-002
 PAO| energy improvement:  -1.4240915537744314E-004
 PAO| step     22                   -7.820504352  0.924E-03  0.453E+00     0.074
 PAO|LS| adapt:  T F F
 PAO|LS| adapt: scan_steps:    0.0000000000000000        0.0000000000000000        0.0000000000000000     
 PAO|LS| adapt: energies:   -7.8205043515951242        0.0000000000000000        0.0000000000000000     
 PAO| ======================= Iteration:        23 =============================

     Lanczos converged:  T threshold:   0.100E-02
     Est. extremal eigenvalues:    0.280E+01   0.187E+00
     Est. condition number :    0.150E+02
     NS sqrt iter    1 1.00000000   0.715E+00       0.001       64.512
     NS sqrt iter    2 1.00000000   0.335E+00       0.001       98.875
     NS sqrt iter    3 1.00000000   0.750E-01       0.001       96.785
     NS sqrt iter    4 1.00000000   0.177E-02       0.001      110.592
     NS sqrt iter    5 1.00000000   0.429E-07       0.001       66.432
     Final NS sqrt iter    5 1.00000000   0.330E-09

     Est. extremal eigenvalues     -0.92727     1.67077  converged:  T
     TRS4 it   1 1.00000000   0.855E+00       0.000       16.128   0.100E-07
     TRS4 it   2 1.00000000   0.610E+00       0.001       32.256   0.100E-07
     TRS4 it   3 1.00000000   0.418E+00       0.001       29.536   0.100E-07
     TRS4 it   4 1.00000000   0.217E+00       0.001       32.256   0.100E-07
     TRS4 it   5 1.00000000   0.708E-01       0.001       32.256   0.100E-07
     TRS4 it   6 1.00000000   0.911E-02       0.001       26.210   0.100E-07
     TRS4 it   7 1.00000000   0.201E-03       0.001       32.256   0.100E-07
     TRS4 it   8 1.00000000   0.143E-06       0.001       32.256   0.100E-07
     TRS4 it   9 1.00000000   0.882E-13       0.001       32.256   0.100E-07
     Final TRS4 iteration    9 1.00000000   0.882E-13
     Chemical potential (mu):      -0.00813
 
 PAO| energy:  -7.8205535250973481      penalty:   1.3199276342213141E-005
 PAO|LS| adapt:  T T F
 PAO|LS| adapt: scan_steps:    0.0000000000000000       0.45297632918827357        0.0000000000000000     
 PAO|LS| adapt: energies:   -7.8205043515951242       -7.8205535250973481        0.0000000000000000     
 PAO| ======================= Iteration:        24 =============================

     Lanczos converged:  T threshold:   0.100E-02
     Est. extremal eigenvalues:    0.280E+01   0.187E+00
     Est. condition number :    0.150E+02
     NS sqrt iter    1 1.00000000   0.715E+00       0.001       63.070
     NS sqrt iter    2 1.00000000   0.335E+00       0.001      110.592
     NS sqrt iter    3 1.00000000   0.750E-01       0.001      110.592
     NS sqrt iter    4 1.00000000   0.177E-02       0.001      110.592
     NS sqrt iter    5 1.00000000   0.427E-07       0.001       66.432
     Final NS sqrt iter    5 1.00000000   0.330E-09

     Est. extremal eigenvalues     -0.92727     1.67091  converged:  T
     TRS4 it   1 1.00000000   0.855E+00       0.000       16.128   0.100E-07
     TRS4 it   2 1.00000000   0.610E+00       0.001       32.256   0.100E-07
     TRS4 it   3 1.00000000   0.418E+00       0.001       32.256   0.100E-07
     TRS4 it   4 1.00000000   0.217E+00       0.001       32.256   0.100E-07
     TRS4 it   5 1.00000000   0.708E-01       0.001       32.256   0.100E-07
     TRS4 it   6 1.00000000   0.912E-02       0.001       32.256   0.100E-07
     TRS4 it   7 1.00000000   0.202E-03       0.001       32.256   0.100E-07
     TRS4 it   8 1.00000000   0.144E-06       0.001       32.256   0.100E-07
     TRS4 it   9 1.00000000   0.883E-13       0.001       32.256   0.100E-07
     Final TRS4 iteration    9 1.00000000   0.883E-13
     Chemical potential (mu):      -0.00818
 
 PAO| energy:  -7.8205020494380832      penalty:   1.2539534439251947E-005
 PAO|LS| adapt:  T T T
 PAO|LS| adapt: scan_steps:    0.0000000000000000       0.45297632918827357       0.90595265837654715     
 PAO|LS| adapt: energies:   -7.8205043515951242       -7.8205535250973481       -7.8205020494380832     
 PAO|LS| adapt: suggested step_size:   0.44779584566400776     
 PAO|LS| adapt: predicted energy  -7.8205535316795292     
 PAO| ======================= Iteration:        25 =============================

     Lanczos converged:  T threshold:   0.100E-02
     Est. extremal eigenvalues:    0.280E+01   0.187E+00
     Est. condition number :    0.150E+02
     NS sqrt iter    1 1.00000000   0.715E+00       0.001       49.112
     NS sqrt iter    2 1.00000000   0.335E+00       0.001       80.217
     NS sqrt iter    3 1.00000000   0.750E-01       0.001      110.592
     NS sqrt iter    4 1.00000000   0.177E-02       0.001      110.592
     NS sqrt iter    5 1.00000000   0.429E-07       0.001       66.432
     Final NS sqrt iter    5 1.00000000   0.330E-09

     Est. extremal eigenvalues     -0.92727     1.67077  converged:  T
     TRS4 it   1 1.00000000   0.855E+00       0.001       16.128   0.100E-07
     TRS4 it   2 1.00000000   0.610E+00       0.001       32.256   0.100E-07
     TRS4 it   3 1.00000000   0.418E+00       0.001       32.256   0.100E-07
     TRS4 it   4 1.00000000   0.217E+00       0.001       32.256   0.100E-07
     TRS4 it   5 1.00000000   0.708E-01       0.001       32.256   0.100E-07
     TRS4 it   6 1.00000000   0.911E-02       0.001       32.256   0.100E-07
     TRS4 it   7 1.00000000   0.201E-03       0.001       32.256   0.100E-07
     TRS4 it   8 1.00000000   0.143E-06       0.001       32.256   0.100E-07
     TRS4 it   9 1.00000000   0.880E-13       0.001       32.256   0.100E-07
     Final TRS4 iteration    9 1.00000000   0.880E-13
     Chemical potential (mu):      -0.00814
 
 PAO| energy:  -7.8205535296225017      penalty:   1.3206989289867504E-005
 PAO|CG| trace_G_new    8.3272386928298089E-005
 PAO|CG| trace_G_prev    2.1836274652400352E-004
 PAO|CG| trace_G_mix    9.5578216557031725E-007
 PAO|CG| trace_D    3.1771013589413852E-004
 PAO|CG| trace_D_Gnew  -3.9583946487833133E-007
 PAO|CG| beta:   0.37697183275572660     
 PAO| norm of gradient:   9.1253705090970465E-003
 PAO| energy improvement:  -4.9178027377472233E-005
 PAO| step     25                   -7.820553530  0.570E-03  0.448E+00     0.056
 PAO|LS| adapt:  T F F
 PAO|LS| adapt: scan_steps:    0.0000000000000000        0.0000000000000000        0.0000000000000000     
 PAO|LS| adapt: energies:   -7.8205535296225017        0.0000000000000000        0.0000000000000000     
 PAO| ======================= Iteration:        26 =============================

     Lanczos converged:  T threshold:   0.100E-02
     Est. extremal eigenvalues:    0.280E+01   0.186E+00
     Est. condition number :    0.150E+02
     NS sqrt iter    1 1.00000000   0.715E+00       0.001       64.512
     NS sqrt iter    2 1.00000000   0.334E+00       0.001      106.652
     NS sqrt iter    3 1.00000000   0.749E-01       0.001       79.450
     NS sqrt iter    4 1.00000000   0.177E-02       0.001      109.323
     NS sqrt iter    5 1.00000000   0.429E-07       0.001       58.715
     Final NS sqrt iter    5 1.00000000   0.330E-09

     Est. extremal eigenvalues     -0.92727     1.67057  converged:  T
     TRS4 it   1 1.00000000   0.855E+00       0.000       16.128   0.100E-07
     TRS4 it   2 1.00000000   0.610E+00       0.001       32.256   0.100E-07
     TRS4 it   3 1.00000000   0.418E+00       0.001       32.256   0.100E-07
     TRS4 it   4 1.00000000   0.216E+00       0.001       32.256   0.100E-07
     TRS4 it   5 1.00000000   0.707E-01       0.001       32.256   0.100E-07
     TRS4 it   6 1.00000000   0.907E-02       0.001       32.256   0.100E-07
     TRS4 it   7 1.00000000   0.199E-03       0.001       32.256   0.100E-07
     TRS4 it   8 1.00000000   0.139E-06       0.001       32.256   0.100E-07
     TRS4 it   9 1.00000000   0.825E-13       0.001       32.256   0.100E-07
     Final TRS4 iteration    9 1.00000000   0.825E-13
     Chemical potential (mu):      -0.00785
 
 PAO| energy:  -7.8205567766649260      penalty:   1.2485882228063363E-005
 PAO|LS| adapt:  T T F
 PAO|LS| adapt: scan_steps:    0.0000000000000000       0.44779584566400776        0.0000000000000000     
 PAO|LS| adapt: energies:   -7.8205535296225017       -7.8205567766649260        0.0000000000000000     
 PAO| ======================= Iteration:        27 =============================

     Lanczos converged:  T threshold:   0.100E-02
     Est. extremal eigenvalues:    0.279E+01   0.186E+00
     Est. condition number :    0.150E+02
     NS sqrt iter    1 1.00000000   0.714E+00       0.001       63.066
     NS sqrt iter    2 1.00000000   0.334E+00       0.002       69.721
     NS sqrt iter    3 1.00000000   0.747E-01       0.001      110.592
     NS sqrt iter    4 1.00000000   0.176E-02       0.001      110.592
     NS sqrt iter    5 1.00000000   0.428E-07       0.001       66.432
     Final NS sqrt iter    5 1.00000000   0.329E-09

     Est. extremal eigenvalues     -0.92728     1.67037  converged:  T
     TRS4 it   1 1.00000000   0.855E+00       0.000       16.128   0.100E-07
     TRS4 it   2 1.00000000   0.610E+00       0.001       32.256   0.100E-07
     TRS4 it   3 1.00000000   0.418E+00       0.001       32.256   0.100E-07
     TRS4 it   4 1.00000000   0.216E+00       0.001       32.256   0.100E-07
     TRS4 it   5 1.00000000   0.706E-01       0.001       32.256   0.100E-07
     TRS4 it   6 1.00000000   0.903E-02       0.001       32.240   0.100E-07
     TRS4 it   7 1.00000000   0.196E-03       0.001       32.256   0.100E-07
     TRS4 it   8 1.00000000   0.136E-06       0.001       32.256   0.100E-07
     TRS4 it   9 1.00000000   0.781E-13       0.001       32.256   0.100E-07
     Final TRS4 iteration    9 1.00000000   0.781E-13
     Chemical potential (mu):      -0.00756
 
 PAO| energy:  -7.8204916771997324      penalty:   1.1789257335076572E-005
 PAO|LS| adapt:  T T T
 PAO|LS| adapt: scan_steps:    0.0000000000000000       0.44779584566400776       0.89559169132801553     
 PAO|LS| adapt: energies:   -7.8205535296225017       -7.8205567766649260       -7.8204916771997324     
 PAO|LS| adapt: suggested step_size:   0.24517204727464711     
 PAO|LS| adapt: predicted energy  -7.8205637735882796     
 PAO| ======================= Iteration:        28 =============================

     Lanczos converged:  T threshold:   0.100E-02
     Est. extremal eigenvalues:    0.280E+01   0.187E+00
     Est. condition number :    0.150E+02
     NS sqrt iter    1 1.00000000   0.715E+00       0.001       64.512
     NS sqrt iter    2 1.00000000   0.335E+00       0.001      100.269
     NS sqrt iter    3 1.00000000   0.749E-01       0.002       63.277
     NS sqrt iter    4 1.00000000   0.177E-02       0.002       72.356
     NS sqrt iter    5 1.00000000   0.429E-07       0.002       31.054
     Final NS sqrt iter    5 1.00000000   0.330E-09

     Est. extremal eigenvalues     -0.92727     1.67066  converged:  T
     TRS4 it   1 1.00000000   0.855E+00       0.000       16.128   0.100E-07
     TRS4 it   2 1.00000000   0.610E+00       0.001       32.256   0.100E-07
     TRS4 it   3 1.00000000   0.418E+00       0.001       32.256   0.100E-07
     TRS4 it   4 1.00000000   0.216E+00       0.001       32.256   0.100E-07
     TRS4 it   5 1.00000000   0.707E-01       0.001       32.256   0.100E-07
     TRS4 it   6 1.00000000   0.909E-02       0.001       32.256   0.100E-07
     TRS4 it   7 1.00000000   0.200E-03       0.001       32.256   0.100E-07
     TRS4 it   8 1.00000000   0.141E-06       0.001       32.256   0.100E-07
     TRS4 it   9 1.00000000   0.852E-13       0.001       32.256   0.100E-07
     Final TRS4 iteration    9 1.00000000   0.852E-13
     Chemical potential (mu):      -0.00798
 
 PAO| energy:  -7.8205637620473638      penalty:   1.2809124833440331E-005
 PAO|CG| trace_G_new    2.7920474157624544E-005
 PAO|CG| trace_G_prev    8.3272386928298089E-005
 PAO|CG| trace_G_mix    5.4536483169991424E-008
 PAO|CG| trace_D    1.2871990418163932E-004
 PAO|CG| trace_D_Gnew  -2.7492375313197344E-008
 PAO|CG| beta:   0.33463599042079328     
 PAO| norm of gradient:   5.2839827930855855E-003
 PAO| energy improvement:  -1.0232424862088862E-005
 PAO| step     28                   -7.820563762  0.330E-03  0.245E+00     0.059
 PAO|LS| adapt:  T F F
 PAO|LS| adapt: scan_steps:    0.0000000000000000        0.0000000000000000        0.0000000000000000     
 PAO|LS| adapt: energies:   -7.8205637620473638        0.0000000000000000        0.0000000000000000     
 PAO| ======================= Iteration:        29 =============================

     Lanczos converged:  T threshold:   0.100E-02
     Est. extremal eigenvalues:    0.280E+01   0.186E+00
     Est. condition number :    0.150E+02
     NS sqrt iter    1 1.00000000   0.715E+00       0.001       64.512
     NS sqrt iter    2 1.00000000   0.334E+00       0.001      110.592
     NS sqrt iter    3 1.00000000   0.749E-01       0.001       93.116
     NS sqrt iter    4 1.00000000   0.177E-02       0.001       95.924
     NS sqrt iter    5 1.00000000   0.430E-07       0.001       66.432
     Final NS sqrt iter    5 1.00000000   0.330E-09

     Est. extremal eigenvalues     -0.92727     1.67062  converged:  T
     TRS4 it   1 1.00000000   0.855E+00       0.000       16.128   0.100E-07
     TRS4 it   2 1.00000000   0.610E+00       0.001       32.256   0.100E-07
     TRS4 it   3 1.00000000   0.418E+00       0.001       32.256   0.100E-07
     TRS4 it   4 1.00000000   0.216E+00       0.001       31.545   0.100E-07
     TRS4 it   5 1.00000000   0.706E-01       0.001       32.256   0.100E-07
     TRS4 it   6 1.00000000   0.906E-02       0.001       32.256   0.100E-07
     TRS4 it   7 1.00000000   0.198E-03       0.001       32.256   0.100E-07
     TRS4 it   8 1.00000000   0.138E-06       0.001       32.256   0.100E-07
     TRS4 it   9 1.00000000   0.816E-13       0.001       32.256   0.100E-07
     Final TRS4 iteration    9 1.00000000   0.816E-13
     Chemical potential (mu):      -0.00779
 
 PAO| energy:  -7.8205696332350714      penalty:   1.2424557863863643E-005
 PAO|LS| adapt:  T T F
 PAO|LS| adapt: scan_steps:    0.0000000000000000       0.24517204727464711        0.0000000000000000     
 PAO|LS| adapt: energies:   -7.8205637620473638       -7.8205696332350714        0.0000000000000000     
 PAO| ======================= Iteration:        30 =============================

     Lanczos converged:  T threshold:   0.100E-02
     Est. extremal eigenvalues:    0.280E+01   0.186E+00
     Est. condition number :    0.150E+02
     NS sqrt iter    1 1.00000000   0.714E+00       0.001       61.395
     NS sqrt iter    2 1.00000000   0.334E+00       0.001      110.592
     NS sqrt iter    3 1.00000000   0.748E-01       0.001      110.592
     NS sqrt iter    4 1.00000000   0.176E-02       0.001      110.592
     NS sqrt iter    5 1.00000000   0.430E-07       0.001       66.560
     Final NS sqrt iter    5 1.00000000   0.327E-09

     Est. extremal eigenvalues     -0.92728     1.67057  converged:  T
     TRS4 it   1 1.00000000   0.855E+00       0.000       16.128   0.100E-07
     TRS4 it   2 1.00000000   0.610E+00       0.001       32.256   0.100E-07
     TRS4 it   3 1.00000000   0.418E+00       0.001       32.256   0.100E-07
     TRS4 it   4 1.00000000   0.216E+00       0.001       32.256   0.100E-07
     TRS4 it   5 1.00000000   0.705E-01       0.001       23.175   0.100E-07
     TRS4 it   6 1.00000000   0.902E-02       0.001       29.952   0.100E-07
     TRS4 it   7 1.00000000   0.196E-03       0.001       32.256   0.100E-07
     TRS4 it   8 1.00000000   0.136E-06       0.001       32.256   0.100E-07
     TRS4 it   9 1.00000000   0.796E-13       0.001       32.256   0.100E-07
     Final TRS4 iteration    9 1.00000000   0.796E-13
     Chemical potential (mu):      -0.00760
 
 PAO| energy:  -7.8205735516674038      penalty:   1.2046467577921346E-005
 PAO|LS| adapt:  T T F
 PAO|LS| adapt: scan_steps:    0.0000000000000000       0.49034409454929423        0.0000000000000000     
 PAO|LS| adapt: energies:   -7.8205637620473638       -7.8205735516674038        0.0000000000000000     
 PAO| ======================= Iteration:        31 =============================

     Lanczos converged:  T threshold:   0.100E-02
     Est. extremal eigenvalues:    0.279E+01   0.186E+00
     Est. condition number :    0.150E+02
     NS sqrt iter    1 1.00000000   0.714E+00       0.001       64.512
     NS sqrt iter    2 1.00000000   0.334E+00       0.001      110.592
     NS sqrt iter    3 1.00000000   0.746E-01       0.001       99.044
     NS sqrt iter    4 1.00000000   0.176E-02       0.001      110.592
     NS sqrt iter    5 1.00000000   0.431E-07       0.001       66.688
     Final NS sqrt iter    5 1.00000000   0.332E-09

     Est. extremal eigenvalues     -0.92728     1.67048  converged:  T
     TRS4 it   1 1.00000000   0.855E+00       0.000       16.128   0.100E-07
     TRS4 it   2 1.00000000   0.610E+00       0.001       32.256   0.100E-07
     TRS4 it   3 1.00000000   0.418E+00       0.001       31.720   0.100E-07
     TRS4 it   4 1.00000000   0.216E+00       0.001       32.256   0.100E-07
     TRS4 it   5 1.00000000   0.703E-01       0.001       31.354   0.100E-07
     TRS4 it   6 1.00000000   0.896E-02       0.001       32.256   0.100E-07
     TRS4 it   7 1.00000000   0.193E-03       0.001       32.256   0.100E-07
     TRS4 it   8 1.00000000   0.131E-06       0.001       32.256   0.100E-07
     TRS4 it   9 1.00000000   0.740E-13       0.001       32.256   0.100E-07
     Final TRS4 iteration    9 1.00000000   0.740E-13
     Chemical potential (mu):      -0.00721
 
 PAO| energy:  -7.8205755307367353      penalty:   1.1309603455682000E-005
 PAO|LS| Need extra step
 PAO|LS| adapt:  T T F
 PAO|LS| adapt: scan_steps:    0.0000000000000000       0.98068818909858846        0.0000000000000000     
 PAO|LS| adapt: energies:   -7.8205637620473638       -7.8205755307367353        0.0000000000000000     
 PAO| ======================= Iteration:        32 =============================

     Lanczos converged:  T threshold:   0.100E-02
     Est. extremal eigenvalues:    0.279E+01   0.186E+00
     Est. condition number :    0.150E+02
     NS sqrt iter    1 1.00000000   0.713E+00       0.001       63.937
     NS sqrt iter    2 1.00000000   0.333E+00       0.001       92.125
     NS sqrt iter    3 1.00000000   0.743E-01       0.001       99.181
     NS sqrt iter    4 1.00000000   0.175E-02       0.001      110.592
     NS sqrt iter    5 1.00000000   0.433E-07       0.001       66.688
     Final NS sqrt iter    5 1.00000000   0.332E-09

     Est. extremal eigenvalues     -0.92729     1.67026  converged:  T
     TRS4 it   1 1.00000000   0.855E+00       0.000       16.128   0.100E-07
     TRS4 it   2 1.00000000   0.610E+00       0.001       32.256   0.100E-07
     TRS4 it   3 1.00000000   0.418E+00       0.001       22.466   0.100E-07
     TRS4 it   4 1.00000000   0.215E+00       0.001       29.724   0.100E-07
     TRS4 it   5 1.00000000   0.699E-01       0.001       32.256   0.100E-07
     TRS4 it   6 1.00000000   0.883E-02       0.001       32.256   0.100E-07
     TRS4 it   7 1.00000000   0.187E-03       0.001       32.256   0.100E-07
     TRS4 it   8 1.00000000   0.122E-06       0.001       32.256   0.100E-07
     TRS4 it   9 1.00000000   0.632E-13       0.001       32.256   0.100E-07
     Final TRS4 iteration    9 1.00000000   0.632E-13
     Chemical potential (mu):      -0.00643
 
 PAO| energy:  -7.8205560490033843      penalty:   9.9123496102840255E-006
 PAO|LS| Need extra step
 PAO|LS| adapt:  T T T
 PAO|LS| adapt: scan_steps:    0.0000000000000000       0.98068818909858846        1.9613763781971769     
 PAO|LS| adapt: energies:   -7.8205637620473638       -7.8205755307367353       -7.8205560490033843     
 PAO|LS| adapt: suggested step_size:   0.85966436807893998     
 PAO|LS| adapt: predicted energy  -7.8205757686977062     
 PAO| ======================= Iteration:        33 =============================

     Lanczos converged:  T threshold:   0.100E-02
     Est. extremal eigenvalues:    0.279E+01   0.186E+00
     Est. condition number :    0.150E+02
     NS sqrt iter    1 1.00000000   0.714E+00       0.001       64.512
     NS sqrt iter    2 1.00000000   0.334E+00       0.001      110.592
     NS sqrt iter    3 1.00000000   0.746E-01       0.001      110.592
     NS sqrt iter    4 1.00000000   0.176E-02       0.001      110.592
     NS sqrt iter    5 1.00000000   0.431E-07       0.001       66.688
     Final NS sqrt iter    5 1.00000000   0.332E-09

     Est. extremal eigenvalues     -0.92728     1.67050  converged:  T
     TRS4 it   1 1.00000000   0.855E+00       0.000       16.128   0.100E-07
     TRS4 it   2 1.00000000   0.610E+00       0.001       32.256   0.100E-07
     TRS4 it   3 1.00000000   0.418E+00       0.001       32.256   0.100E-07
     TRS4 it   4 1.00000000   0.216E+00       0.001       32.256   0.100E-07
     TRS4 it   5 1.00000000   0.704E-01       0.001       32.256   0.100E-07
     TRS4 it   6 1.00000000   0.897E-02       0.001       32.256   0.100E-07
     TRS4 it   7 1.00000000   0.194E-03       0.001       32.256   0.100E-07
     TRS4 it   8 1.00000000   0.132E-06       0.001       32.256   0.100E-07
     TRS4 it   9 1.00000000   0.759E-13       0.001       32.256   0.100E-07
     Final TRS4 iteration    9 1.00000000   0.759E-13
     Chemical potential (mu):      -0.00730
 
 PAO| energy:  -7.8205757685225414      penalty:   1.1489086778995835E-005
 PAO|CG| trace_G_new    7.2238464077387977E-005
 PAO|CG| trace_G_prev    2.7920474157624544E-005
 PAO|CG| trace_G_mix    6.5088230299497609E-008
[...]
 PAO| ======================= Iteration:       959 =============================

     Lanczos converged:  T threshold:   0.100E-02
     Est. extremal eigenvalues:    0.254E+01   0.220E+00
     Est. condition number :    0.115E+02
     NS sqrt iter    1 1.00000000   0.649E+00       0.001       64.512
     NS sqrt iter    2 1.00000000   0.282E+00       0.001       82.451
     NS sqrt iter    3 1.00000000   0.456E-01       0.001      100.741
     NS sqrt iter    4 1.00000000   0.421E-03       0.001      110.592
     NS sqrt iter    5 1.00000000   0.456E-09       0.001       36.864
     Final NS sqrt iter    5 1.00000000   0.344E-10

     Est. extremal eigenvalues     -0.92702     1.46221  converged:  T
     TRS4 it   1 1.00000000   0.806E+00       0.000       16.128   0.100E-07
     TRS4 it   2 1.00000000   0.586E+00       0.001       31.243   0.100E-07
     TRS4 it   3 1.00000000   0.417E+00       0.001       32.256   0.100E-07
     TRS4 it   4 1.00000000   0.248E+00       0.001       32.256   0.100E-07
     TRS4 it   5 1.00000000   0.111E+00       0.001       32.256   0.100E-07
     TRS4 it   6 1.00000000   0.284E-01       0.001       32.256   0.100E-07
     TRS4 it   7 1.00000000   0.267E-02       0.001       32.256   0.100E-07
     TRS4 it   8 1.00000000   0.272E-04       0.001       32.256   0.100E-07
     TRS4 it   9 1.00000000   0.307E-08       0.001       32.256   0.100E-07
     Final TRS4 iteration    9 1.00000000   0.307E-08
     Chemical potential (mu):      -0.08417
 
 PAO| energy:  -7.8199108359087495      penalty:   1.2798351693642088E-011
 PAO|LS| Need extra step
 PAO|LS| adapt:  T T T
 PAO|LS| adapt: scan_steps:    0.0000000000000000       0.20000000000000001       0.40000000000000002     
 PAO|LS| adapt: energies:   -7.8199108358861542       -7.8199108359117666       -7.8199108359087495     
 PAO|LS| adapt: suggested step_size:   0.27892287646584346     
 PAO|LS| adapt: predicted energy  -7.8199108359139968     
 PAO| ======================= Iteration:       960 =============================

     Lanczos converged:  T threshold:   0.100E-02
     Est. extremal eigenvalues:    0.254E+01   0.220E+00
     Est. condition number :    0.115E+02
     NS sqrt iter    1 1.00000000   0.649E+00       0.001       63.713
     NS sqrt iter    2 1.00000000   0.282E+00       0.001      110.592
     NS sqrt iter    3 1.00000000   0.456E-01       0.001      110.592
     NS sqrt iter    4 1.00000000   0.421E-03       0.001      110.592
     NS sqrt iter    5 1.00000000   0.456E-09       0.001       36.864
     Final NS sqrt iter    5 1.00000000   0.344E-10

     Est. extremal eigenvalues     -0.92702     1.46221  converged:  T
     TRS4 it   1 1.00000000   0.806E+00       0.001       16.128   0.100E-07
     TRS4 it   2 1.00000000   0.586E+00       0.001       32.256   0.100E-07
     TRS4 it   3 1.00000000   0.417E+00       0.001       32.256   0.100E-07
     TRS4 it   4 1.00000000   0.248E+00       0.001       32.256   0.100E-07
     TRS4 it   5 1.00000000   0.111E+00       0.001       32.256   0.100E-07
     TRS4 it   6 1.00000000   0.284E-01       0.001       32.256   0.100E-07
     TRS4 it   7 1.00000000   0.267E-02       0.001       32.256   0.100E-07
     TRS4 it   8 1.00000000   0.272E-04       0.001       32.256   0.100E-07
     TRS4 it   9 1.00000000   0.307E-08       0.001       32.256   0.100E-07
     Final TRS4 iteration    9 1.00000000   0.307E-08
     Chemical potential (mu):      -0.08417
 
 PAO| energy:  -7.8199108359139951      penalty:   1.2844049956602749E-011
 PAO|CG| warming up with steepest descent
 PAO|CG| beta:    0.0000000000000000     
 PAO| norm of gradient:   7.9151668144424537E-006
 PAO| energy improvement:  -2.7840840743920126E-011
 PAO| step    960                   -7.819910836  0.495E-06  0.279E+00     0.073
 PAO| converged after          960  steps :-)
 PAO| Recalculating energy after mixing.

     Lanczos converged:  T threshold:   0.100E-02
     Est. extremal eigenvalues:    0.254E+01   0.220E+00
     Est. condition number :    0.115E+02
     NS sqrt iter    1 1.00000000   0.649E+00       0.001       62.169
     NS sqrt iter    2 1.00000000   0.282E+00       0.001      110.592
     NS sqrt iter    3 1.00000000   0.456E-01       0.001       88.555
     NS sqrt iter    4 1.00000000   0.421E-03       0.001       98.532
     NS sqrt iter    5 1.00000000   0.456E-09       0.001       36.864
     Final NS sqrt iter    5 1.00000000   0.344E-10

     Est. extremal eigenvalues     -0.92702     1.46221  converged:  T
     TRS4 it   1 1.00000000   0.806E+00       0.000       16.128   0.100E-07
     TRS4 it   2 1.00000000   0.586E+00       0.001       32.256   0.100E-07
     TRS4 it   3 1.00000000   0.417E+00       0.001       32.256   0.100E-07
     TRS4 it   4 1.00000000   0.248E+00       0.001       32.256   0.100E-07
     TRS4 it   5 1.00000000   0.111E+00       0.001       32.256   0.100E-07
     TRS4 it   6 1.00000000   0.284E-01       0.001       32.256   0.100E-07
     TRS4 it   7 1.00000000   0.267E-02       0.001       32.256   0.100E-07
     TRS4 it   8 1.00000000   0.272E-04       0.001       32.256   0.100E-07
     TRS4 it   9 1.00000000   0.307E-08       0.001       32.256   0.100E-07
     Final TRS4 iteration    9 1.00000000   0.307E-08
     Chemical potential (mu):      -0.08417
 
 PAO| energy:  -7.8199108359070344      penalty:   1.2897006793635129E-011
 PAO| Writing restart file.
     Est. extremal eigenvalues     -0.92702     1.46221  converged:  T
     TRS4 it   1 1.00000000   0.806E+00       0.000       16.128   0.100E-07
     TRS4 it   2 1.00000000   0.586E+00       0.001       32.256   0.100E-07
     TRS4 it   3 1.00000000   0.417E+00       0.001       32.256   0.100E-07
     TRS4 it   4 1.00000000   0.248E+00       0.001       32.256   0.100E-07
     TRS4 it   5 1.00000000   0.111E+00       0.001       32.256   0.100E-07
     TRS4 it   6 1.00000000   0.284E-01       0.001       32.256   0.100E-07
     TRS4 it   7 1.00000000   0.267E-02       0.001       32.256   0.100E-07
     TRS4 it   8 1.00000000   0.272E-04       0.001       28.653   0.100E-07
     TRS4 it   9 1.00000000   0.307E-08       0.001       29.138   0.100E-07
     Final TRS4 iteration    9 1.00000000   0.307E-08
     Chemical potential (mu):      -0.08417

 SCF     1       -34.446710612       -34.446710612    2.286099

*********************************************************
 Using MIXING_FRACTION=0.450 to mix KS matrix:  iscf=  2
 KS_nw=0.450*KS + 0.550*KS_old
*********************************************************
     Est. extremal eigenvalues     -0.92702     1.46221  converged:  T
     TRS4 it   1 1.00000000   0.806E+00       0.000       16.128   0.100E-07
     TRS4 it   2 1.00000000   0.586E+00       0.001       32.256   0.100E-07
     TRS4 it   3 1.00000000   0.417E+00       0.001       32.256   0.100E-07
     TRS4 it   4 1.00000000   0.248E+00       0.001       32.256   0.100E-07
     TRS4 it   5 1.00000000   0.111E+00       0.001       32.256   0.100E-07
     TRS4 it   6 1.00000000   0.284E-01       0.001       32.256   0.100E-07
     TRS4 it   7 1.00000000   0.267E-02       0.001       32.256   0.100E-07
     TRS4 it   8 1.00000000   0.272E-04       0.001       32.256   0.100E-07
     TRS4 it   9 1.00000000   0.307E-08       0.001       32.256   0.100E-07
     Final TRS4 iteration    9 1.00000000   0.307E-08
     Chemical potential (mu):      -0.08417

 SCF     2       -34.446710612         0.000000000    2.295506

 PAO| Storing density matrix for ASPC guess in slot:           1

 ENERGY| Total FORCE_EVAL ( QS ) energy (a.u.):              -34.446710612143995


 -------------------------------------------------------------------------------
 -                                                                             -
 -                                DBCSR STATISTICS                             -
 -                                                                             -
 -------------------------------------------------------------------------------
 COUNTER                                    TOTAL       BLAS       SMM       ACC
 flops     5 x     5 x     4                32000       0.0%    100.0%      0.0%
 flops    13 x     5 x     4                33280       0.0%    100.0%      0.0%
 flops     5 x    13 x     4                33280       0.0%    100.0%      0.0%
 flops    13 x    13 x     4                64896       0.0%    100.0%      0.0%
 flops     4 x     4 x     5              7503360       0.0%    100.0%      0.0%
 flops     5 x     4 x     5              9161600       0.0%    100.0%      0.0%
 flops     4 x     4 x    13              9754368       0.0%    100.0%      0.0%
 flops    13 x     4 x     5             11910080       0.0%    100.0%      0.0%
 flops     5 x     4 x    13             11910080       0.0%    100.0%      0.0%
 flops     5 x     4 x     4             14090080       0.0%    100.0%      0.0%
 flops    13 x     4 x    13             15483104       0.0%    100.0%      0.0%
 flops    13 x     4 x     4             18377632       0.0%    100.0%      0.0%
 flops     4 x     4 x     4            952672640       0.0%    100.0%      0.0%
 flops inhomo. stacks                           0       0.0%      0.0%      0.0%
 flops total                         1.051026E+09       0.0%    100.0%      0.0%
 flops max/rank                      1.051026E+09       0.0%    100.0%      0.0%
 matmuls inhomo. stacks                         0       0.0%      0.0%      0.0%
 matmuls total                            7748743       0.0%    100.0%      0.0%
 number of processed stacks                 61689       0.0%    100.0%      0.0%
 average stack size                                     0.0     125.6       0.0
 marketing flops                     1.715307E+09
 -------------------------------------------------------------------------------
 # multiplications                          51702
 max memory usage/rank             321.335296E+06
 # max total images/rank                        1
 # max 3D layers                                1
 # MPI messages exchanged                       0
 MPI messages size (bytes):
  total size                         0.000000E+00
  min size                           0.000000E+00
  max size                           0.000000E+00
  average size                       0.000000E+00
 MPI breakdown and total messages size (bytes):
             size <=      128                   0                        0
       128 < size <=     8192                   0                        0
      8192 < size <=    32768                   0                        0
     32768 < size <=   131072                   0                        0
    131072 < size <=  4194304                   0                        0
   4194304 < size <= 16777216                   0                        0
  16777216 < size                               0                        0
 -------------------------------------------------------------------------------

 MEMORY| Estimated peak process memory [MiB]                                 307

 -------------------------------------------------------------------------------
 -                                                                             -
 -                           R E F E R E N C E S                               -
 -                                                                             -
 -------------------------------------------------------------------------------
 
 CP2K version 7.0 (Development Version), the CP2K developers group (2018).
 CP2K is freely available from https://www.cp2k.org/ .

 Schuett, O; VandeVondele, J. 
 Journal of Chemical Theory and Computation, 14, (2018). 
 Machine Learning Adaptive Basis Sets for Efficient Large Scale Density Functional Theory Simulation.
 https://dx.doi.org/10.1021/acs.jctc.8b00378


 Schuett, Ole; Messmer, Peter; Hutter, Juerg; VandeVondele, Joost. 
 Electronic Structure Calculations on Graphics Processing Units, John Wiley & Sons, Ltd, 173-190 (2016). 
 GPU-Accelerated Sparse Matrix-Matrix Multiplication for Linear Scaling Density Functional Theory.
 https://dx.doi.org/10.1002/9781118670712.ch8


 Borstnik, U; VandeVondele, J; Weber, V; Hutter, J. 
 PARALLEL COMPUTING, 40 (5-6), 47-58 (2014). 
 Sparse matrix multiplication: The distributed block-compressed sparse
 row library.
 https://dx.doi.org/10.1016/j.parco.2014.03.012


 Hutter, J; Iannuzzi, M; Schiffmann, F; VandeVondele, J. 
 WILEY INTERDISCIPLINARY REVIEWS-COMPUTATIONAL MOLECULAR SCIENCE, 4 (1), 15-25 (2014). 
 CP2K: atomistic simulations of condensed matter systems.
 https://dx.doi.org/10.1002/wcms.1159


 VandeVondele, J; Borstnik, U; Hutter, J. 
 JOURNAL OF CHEMICAL THEORY AND COMPUTATION, 8 (10), 3565-3573 (2012). 
 Linear Scaling Self-Consistent Field Calculations with Millions of Atoms
 in the Condensed Phase.
 https://dx.doi.org/10.1021/ct200897x


 VandeVondele, J; Hutter, J. 
 JOURNAL OF CHEMICAL PHYSICS, 127 (11), 114105 (2007). 
 Gaussian basis sets for accurate calculations on molecular systems in
 gas and condensed phases.
 https://dx.doi.org/10.1063/1.2770708


 Krack, M. 
 THEORETICAL CHEMISTRY ACCOUNTS, 114 (1-3), 145-152 (2005). 
 Pseudopotentials for H to Kr optimized for gradient-corrected
 exchange-correlation functionals.
 https://dx.doi.org/10.1007/s00214-005-0655-y


 VandeVondele, J; Krack, M; Mohamed, F; Parrinello, M; Chassaing, T;
 Hutter, J. COMPUTER PHYSICS COMMUNICATIONS, 167 (2), 103-128 (2005). 
 QUICKSTEP: Fast and accurate density functional calculations using a
 mixed Gaussian and plane waves approach.
 https://dx.doi.org/10.1016/j.cpc.2004.12.014


 Frigo, M; Johnson, SG. 
 PROCEEDINGS OF THE IEEE, 93 (2), 216-231 (2005). 
 The design and implementation of FFTW3.
 https://dx.doi.org/10.1109/JPROC.2004.840301


 Niklasson, AMN; Tymczak, CJ; Challacombe, M. 
 JOURNAL OF CHEMICAL PHYSICS, 118 (19), 8611-8620 (2003). 
 Trace resetting density matrix purification in O(N)
 self-consistent-field theory.
 https://dx.doi.org/10.1063/1.1559913


 Hartwigsen, C; Goedecker, S; Hutter, J. 
 PHYSICAL REVIEW B, 58 (7), 3641-3662 (1998). 
 Relativistic separable dual-space Gaussian pseudopotentials from H to Rn.
 https://dx.doi.org/10.1103/PhysRevB.58.3641


 Lippert, G; Hutter, J; Parrinello, M. 
 MOLECULAR PHYSICS, 92 (3), 477-487 (1997). 
 A hybrid Gaussian and plane wave density functional scheme.
 https://dx.doi.org/10.1080/002689797170220


 Perdew, JP; Burke, K; Ernzerhof, M. 
 PHYSICAL REVIEW LETTERS, 77 (18), 3865-3868 (1996). 
 Generalized gradient approximation made simple.
 https://dx.doi.org/10.1103/PhysRevLett.77.3865


 Goedecker, S; Teter, M; Hutter, J. 
 PHYSICAL REVIEW B, 54 (3), 1703-1710 (1996). 
 Separable dual-space Gaussian pseudopotentials.
 https://dx.doi.org/10.1103/PhysRevB.54.1703


 -------------------------------------------------------------------------------
 -                                                                             -
 -                                T I M I N G                                  -
 -                                                                             -
 -------------------------------------------------------------------------------
 SUBROUTINE                       CALLS  ASD         SELF TIME        TOTAL TIME
                                MAXIMUM       AVERAGE  MAXIMUM  AVERAGE  MAXIMUM
 CP2K                                 1  1.0    0.029    0.029   55.767   55.767
 qs_energies                          1  2.0    0.000    0.000   55.331   55.331
 ls_scf                               1  3.0    0.000    0.000   55.208   55.208
 ls_scf_main                          7  4.0    0.002    0.002   34.558   34.558
 ls_scf_dm_to_ks                     15  5.0    0.000    0.000   34.422   34.422
 qs_ks_update_qs_env                 16  6.0    0.000    0.000   26.361   26.361
 rebuild_ks_matrix                   16  7.0    0.000    0.000   26.360   26.360
 qs_ks_build_kohn_sham_matrix        16  8.0    0.003    0.003   26.360   26.360
 pao_update                           7  4.0    0.027    0.027   18.233   18.233
 pao_calc_energy                    966  5.0    0.011    0.011   16.508   16.508
 qs_vxc_create                       16  9.0    0.000    0.000   15.178   15.178
 xc_vxc_pw_create                    16 10.0    0.289    0.289   15.178   15.178
 dbcsr_multiply_generic           51702  8.4    1.026    1.026   13.215   13.215
 xc_rho_set_and_dset_create          16 11.0    0.111    0.111   10.560   10.560
 qs_rho_update_rho                   16  6.0    0.000    0.000   10.389   10.389
 calculate_rho_elec                  16  7.0    8.116    8.116   10.388   10.388
 pw_transfer                        305 10.6    0.028    0.028   10.260   10.260
 fft_wrap_pw1pw2                    273 11.7    0.004    0.004    9.976    9.976
 fft_wrap_pw1pw2_200                177 12.8    1.018    1.018    9.544    9.544
 sum_up_and_integrate                16  9.0    0.061    0.061    9.265    9.265
 integrate_v_rspace                  16 10.0    7.953    7.953    9.203    9.203
 pao_dm_trs4                        966  6.0    0.011    0.011    8.553    8.553
 density_matrix_trs4                981  7.0    0.516    0.516    8.145    8.145
 ls_scf_init_matrix_S               973  7.0    0.010    0.010    7.894    7.894
 pao_rebuild_S                      966  6.0    0.009    0.009    7.847    7.847
 matrix_sqrt_Newton_Schulz          973  8.0    0.362    0.362    7.075    7.075
 xc_functional_eval                  16 12.0    0.000    0.000    6.652    6.652
 pbe_lda_eval                        16 13.0    6.652    6.652    6.652    6.652
 multiply_cannon                  51702  9.4    2.407    2.407    5.182    5.182
 fft3d_s                            274 13.6    5.127    5.127    5.140    5.140
 make_m2s                        103404  9.4    0.344    0.344    4.797    4.797
 make_images                     103404 10.4    1.244    1.244    4.252    4.252
 pao_guess_initial_P                  1  4.0    0.000    0.000    2.336    2.336
 pao_read_preopt_dm                   1  5.0    0.000    0.000    2.336    2.336
 density_rs2pw                       16  8.0    0.001    0.001    2.225    2.225
 arnoldi_extremal                  1954  8.5    0.014    0.014    2.178    2.178
 arnoldi_normal_ev                 1954  9.5    0.032    0.032    2.164    2.164
 pw_scatter_s                       144 14.2    1.986    1.986    1.986    1.986
 pw_gather_s                        129 13.1    1.786    1.786    1.786    1.786
 pao_calc_AB                       1270  5.8    0.003    0.003    1.685    1.685
 pao_calc_AB_direct                1270  6.8    0.062    0.062    1.682    1.682
 pao_calc_grad_lnv_wrt_AB           303  7.0    0.019    0.019    1.545    1.545
 build_subspace                    1954 10.5    0.130    0.130    1.543    1.543
 dbcsr_create_new                395452 10.7    0.777    0.777    1.384    1.384
 dbcsr_matrix_vector_mult         46867 11.5    0.248    0.248    1.367    1.367
 dbcsr_finalize                  122156  9.7    0.250    0.250    1.367    1.367
 pw_derive                           96 11.5    1.333    1.333    1.333    1.333
 potential_pw2rs                     16 11.0    0.006    0.006    1.248    1.248
 -------------------------------------------------------------------------------

 The number of warnings for this run is : 0
 
 -------------------------------------------------------------------------------
  **** **** ******  **  PROGRAM ENDED AT                 2019-02-14 01:15:33.931
 ***** ** ***  *** **   PROGRAM RAN ON                                      otto
 **    ****   ******    PROGRAM RAN BY                                       ole
 ***** **    ** ** **   PROGRAM PROCESS ID                                  6049
  **** **  *******  **  PROGRAM STOPPED IN /home/ole/git/pao_ml_equivar/2H2O_MD/
                                           frame_0300
