 DBCSR| CPU Multiplication driver                                           XSMM (U)
 DBCSR| Multrec recursion limit                                              512 (U)
 DBCSR| Multiplication stack size                                           1000 (D)
 DBCSR| Maximum elements for images                                    UNLIMITED (U)
 DBCSR| Multiplicative factor virtual images                                   1 (U)
 DBCSR| Use multiplication densification                                       T (D)
 DBCSR| Multiplication size stacks                                             3 (U)
 DBCSR| Use memory pool for CPU allocation                                     F (U)
 DBCSR| OMP: Current number of threads                                         1
 DBCSR| OMP: Max number of threads                                             1
 DBCSR| Split modifier for TAS multiplication algorithm                  1.0E+00 (U)


  **** **** ******  **  PROGRAM STARTED AT               2023-02-01 10:43:54.931
 ***** ** ***  *** **   PROGRAM STARTED ON                                moritz
 **    ****   ******    PROGRAM STARTED BY                                   ole
 ***** **    ** ** **   PROGRAM PROCESS ID                                148488
  **** **  *******  **  PROGRAM STARTED IN /home/ole/git/pao_ml_equivar/2H2O_rot
                                           ations/rand_00

 CP2K| version string:                 CP2K version 2023.1 (Development Version)
 CP2K| source code revision number:                                  git:03b4147
 CP2K| cp2kflags: omp libint fftw3 libxc quip xsmm spglib libvori libbqb libtorc
 CP2K|            h
 CP2K| is freely available from                            https://www.cp2k.org/
 CP2K| Program compiled at                           Mi 01 Feb 2023 10:36:52 CET
 CP2K| Program compiled on                                                moritz
 CP2K| Program compiled for                                                local
 CP2K| Data directory path                               /home/ole/git/cp2k/data
 CP2K| Input file name                                            2H2O_pao44.inp

 GLOBAL| Force Environment number                                              1
 GLOBAL| Basis set file name                                        BASIS_MOLOPT
 GLOBAL| Potential file name                                      GTH_POTENTIALS
 GLOBAL| MM Potential file name                                     MM_POTENTIAL
 GLOBAL| Coordinate file name                                         coords.xyz
 GLOBAL| Method name                                                        CP2K
 GLOBAL| Project name                                                 2H2O_pao44
 GLOBAL| Run type                                                         ENERGY
 GLOBAL| FFT library                                                       FFTW3
 GLOBAL| Diagonalization library                                       ScaLAPACK
 GLOBAL| DGEMM library                                                      BLAS
 GLOBAL| Orthonormality check for eigenvectors                          DISABLED
 GLOBAL| Matrix multiplication library                                 ScaLAPACK
 GLOBAL| All-to-all communication in single precision                          F
 GLOBAL| FFTs using library dependent lengths                                  F
 GLOBAL| Grid backend                                                       AUTO
 GLOBAL| Global print level                                                  LOW
 GLOBAL| MPI I/O enabled                                                       T
 GLOBAL| Total number of message passing processes                             1
 GLOBAL| Number of threads for this process                                    1
 GLOBAL| This output is from process                                           0
 GLOBAL| Stack size for threads created by OpenMP (OMP_STACKSIZE)        default
 GLOBAL| CPU model name           AMD Ryzen Threadripper 3970X 32-Core Processor
 GLOBAL| CPUID                                                              1002
 GLOBAL| Compiled for CPUID                                                    0

 *** HINT in environment.F:884 :: The compiler target flags (generic) used ***
 *** to build this binary cannot exploit all extensions of this CPU model  ***
 *** (x86_avx2). Consider compiler target flags as part of FCFLAGS and     ***
 *** CFLAGS (ARCH file).                                                   ***


 MEMORY| system memory details [Kb]
 MEMORY|                        rank 0           min           max       average
 MEMORY| MemTotal            131773860     131773860     131773860     131773860
 MEMORY| MemFree             115369504     115369504     115369504     115369504
 MEMORY| Buffers                301492        301492        301492        301492
 MEMORY| Cached                7000768       7000768       7000768       7000768
 MEMORY| Slab                   776600        776600        776600        776600
 MEMORY| SReclaimable           330700        330700        330700        330700
 MEMORY| MemLikelyFree       123002464     123002464     123002464     123002464


 GENERATE|  Preliminary Number of Bonds generated:                             0
 GENERATE|  Achieved consistency in connectivity generation.

 *******************************************************************************
 *******************************************************************************
 **                                                                           **
 **     #####                         ##              ##                      **
 **    ##   ##            ##          ##              ##                      **
 **   ##     ##                       ##            ######                    **
 **   ##     ##  ##   ##  ##   #####  ##  ##   ####   ##    #####    #####    **
 **   ##     ##  ##   ##  ##  ##      ## ##   ##      ##   ##   ##  ##   ##   **
 **   ##  ## ##  ##   ##  ##  ##      ####     ###    ##   ######   ######    **
 **    ##  ###   ##   ##  ##  ##      ## ##      ##   ##   ##       ##        **
 **     #######   #####   ##   #####  ##  ##  ####    ##    #####   ##        **
 **           ##                                                    ##        **
 **                                                                           **
 **                                                ... make the atoms dance   **
 **                                                                           **
 **            Copyright (C) by CP2K developers group (2000-2023)             **
 **                      J. Chem. Phys. 152, 194103 (2020)                    **
 **                                                                           **
 *******************************************************************************


 TOTAL NUMBERS AND MAXIMUM NUMBERS

  Total number of            - Atomic kinds:                                   2
                             - Atoms:                                          6
                             - Shell sets:                                     6
                             - Shells:                                        22
                             - Primitive Cartesian functions:                 42
                             - Cartesian basis functions:                     48
                             - Spherical basis functions:                     46

  Maximum angular momentum of- Orbital basis functions:                        2
                             - Local part of the GTH pseudopotential:          2
                             - Non-local part of the GTH pseudopotential:      0

 ------------------------------ Linear scaling SCF -----------------------------
 eps_scf:                                                              0.100E-07
 eps_filter:                                                           0.100E-07
 mixing_fraction:                                                      0.450E+00
 max_scf:                                                                     25
 fixed chemical potential (mu)                                                 F
 has unit metric:                                                              F
 Computing inv(S):                                                             T
 Computing sqrt(S):                                                            T
 Computing S preconditioner                                                    F
 S sqrt method:                                                     NEWTONSCHULZ
 S sqrt order:                                                                 3
 Extrapolation order:                                                          1
 Use single precision matrices                                                 F
 S preconditioner type                                                      NONE
 Polarized Atomic Orbitals (PAO)                                               T
 Purification method                                   Trace resetting 4th order
 Cluster type                                                             ATOMIC
 Computing Chebyshev                                                       FALSE
 Using PAO                                                                     T
 -------------------------------------------------------------------------------

 
 PAO|                                  EPS_PAO                           0.1E-04
 PAO|                                  MIXING                            0.5E+00
 PAO|                                  MAX_PAO                              1000
 PAO|                                  MAX_CYCLES                           1000
 PAO|                                  PARAMETERIZATION              EQUIVARIANT
 PAO|                                  PRECONDITION                            F
 PAO|                                  REGULARIZATION                    0.0E+00
 PAO|                                  EPS_PGF                           0.1E-09
 PAO|                                  PENALTY_DISTANCE                  0.1E+00
 PAO|                                  PENALTY_STRENGTH                  0.5E-02
 PAO|                                  LINPOT_PRECONDITION_DELTA         0.0E+00
 PAO|                                  LINPOT_INITGUESS_DELT             0.0E+00
 PAO|                                  LINPOT_REGULARIZATION_DELTA       0.0E+00
 PAO|                                  LINPOT_REGULARIZATION_STRENGTH    0.0E+00
 PAO|                                  OPTIMIZER                              CG
 PAO|                                  CG_INIT_STEPS                           2
 PAO|                                  CG_RESET_LIMIT                    0.1E+00
 PAO|                                  CHECK_UNITARY_TOL                -0.1E+01
 PAO|                                  CHECK_GRADIENT_TOL               -0.1E+01
 PAO|                                  NUM_GRADIENT_ORDER                      2
 PAO|                                  NUM_GRADIENT_EPS                  0.1E-07
 PAO|                                  PRINT%RESTART%WRITE_CYCLES            100
 PAO|                                  RESTART_FILE 
 PAO|                                  PREOPT_DM_FILE 2H2O_ref_LS_DM_SPIN_1_RESTART.dm
 PAO|                                  MACHINE_LEARNING%METHOD       GAUSSIAN_PR
 PAO|                                  MACHINE_LEARNING%PRIOR               ZERO
 PAO|                                  MACHINE_LEARNING%DESCRIPTOR     POTENTIAL
 PAO|                                  MACHINE_LEARNING%TOLERANCE        0.1E-01
 PAO|                                  MACHINE_LEARNING%GP_NOISE_VAR     0.1E+00
 PAO|                                  MACHINE_LEARNING%GP_SCALE         0.5E-01
 

 Calculating atomic Fock matrix for atomic kind: O

 Electronic structure
    Total number of core electrons                                          2.00
    Total number of valence electrons                                       6.00
    Total number of electrons                                               8.00
    Multiplicity                                                   not specified
    S   [  2.00] 2.00
    P      4.00


 *******************************************************************************
                  Iteration          Convergence                     Energy [au]
 *******************************************************************************
                          1        0.708315                     -15.576645311500
                          2        0.608879                     -15.587933561584
                          3        0.102828E-01                 -15.656849565404
                          4        0.113889E-02                 -15.656866888140
                          5        0.434197E-03                 -15.656867072159
                          6        0.263771E-03                 -15.656867091904
                          7        0.478536E-06                 -15.656867103452

 Energy components [Hartree]           Total Energy ::          -15.656867103452
                                        Band Energy ::           -3.000198112285
                                     Kinetic Energy ::           11.759971203220
                                   Potential Energy ::          -27.416838306672
                                      Virial (-V/T) ::            2.331369510426
                                        Core Energy ::          -26.140716385623
                                          XC Energy ::           -3.154051012914
                                     Coulomb Energy ::           13.637900295084
                       Total Pseudopotential Energy ::          -37.935781716540
                       Local Pseudopotential Energy ::          -39.218907440693
                    Nonlocal Pseudopotential Energy ::            1.283125724153
                                        Confinement ::            0.350941276976

 Orbital energies  State     L     Occupation   Energy[a.u.]          Energy[eV]

                       1     0          2.000      -0.864471          -23.523463

                       1     1          4.000      -0.317814           -8.648154


 Total Electron Density at R=0:                                         0.000068

 Calculating atomic Fock matrix for atomic kind: H

 Electronic structure
    Total number of core electrons                                          0.00
    Total number of valence electrons                                       1.00
    Total number of electrons                                               1.00
    Multiplicity                                                   not specified
    S      1.00


 *******************************************************************************
                  Iteration          Convergence                     Energy [au]
 *******************************************************************************
                          1        0.437545E-02                  -0.424159432110
                          2        0.531356E-03                  -0.424178438213
                          3        0.259176E-06                  -0.424178722480

 Energy components [Hartree]           Total Energy ::           -0.424178722480
                                        Band Energy ::           -0.199015229016
                                     Kinetic Energy ::            0.464007633961
                                   Potential Energy ::           -0.888186356441
                                      Virial (-V/T) ::            1.914163240935
                                        Core Energy ::           -0.479160803564
                                          XC Energy ::           -0.244352904054
                                     Coulomb Energy ::            0.299334985138
                       Total Pseudopotential Energy ::           -0.962295316385
                       Local Pseudopotential Energy ::           -0.962295316385
                    Nonlocal Pseudopotential Energy ::            0.000000000000
                                        Confinement ::            0.191268788606

 Orbital energies  State     L     Occupation   Energy[a.u.]          Energy[eV]

                       1     0          1.000      -0.199015           -5.415480


 Total Electron Density at R=0:                                         0.242907
 PAO| Made initial guess for matrix_X with norm:   4.8989794855663558     

     Lanczos converged:  T threshold:   0.100E-02
     Est. extremal eigenvalues:    0.337E+01   0.114E+00
     Est. condition number :    0.296E+02

 Order=           3
     NS sqrt iter    1 1.00000000   0.822E+00       0.001       53.325
     NS sqrt iter    2 1.00000000   0.440E+00       0.001      105.599
     NS sqrt iter    3 1.00000000   0.171E+00       0.001      105.170
     NS sqrt iter    4 1.00000000   0.209E-01       0.001      107.778
     NS sqrt iter    5 1.00000000   0.562E-04       0.001       91.195
     Symmetrizing Results
     Final NS sqrt iter    5 1.00000000   0.285E-08

 PAO| Read restart DM 2H2O_ref_LS_DM_SPIN_1_RESTART.dm with checksum:    44.383944471210540     
 PAO| Quickstep energy from restart density:  -34.450832618072006     
 PAO| ======================= Iteration:         1 =============================

     Lanczos converged:  T threshold:   0.100E-02
     Est. extremal eigenvalues:    0.337E+01   0.114E+00
     Est. condition number :    0.296E+02

 Order=           3
     NS sqrt iter    1 1.00000000   0.822E+00       0.001       60.237
     NS sqrt iter    2 1.00000000   0.440E+00       0.001      100.573
     NS sqrt iter    3 1.00000000   0.171E+00       0.001      102.500
     NS sqrt iter    4 1.00000000   0.209E-01       0.001      102.653
     NS sqrt iter    5 1.00000000   0.562E-04       0.001       85.773
     Symmetrizing Results
     Final NS sqrt iter    5 1.00000000   0.285E-08

     Est. extremal eigenvalues     -0.91962     1.90942  converged:  T
     TRS4 it   1 1.00000000   0.893E+00       0.000       16.128   0.100E-07
     TRS4 it   2 1.00000000   0.698E+00       0.001       32.256   0.100E-07
     TRS4 it   3 1.00000000   0.501E+00       0.001       32.256   0.100E-07
     TRS4 it   4 1.00000000   0.314E+00       0.001       32.256   0.100E-07
     TRS4 it   5 1.00000000   0.156E+00       0.001       32.256   0.100E-07
     TRS4 it   6 1.00000000   0.489E-01       0.001       32.256   0.100E-07
     TRS4 it   7 1.00000000   0.662E-02       0.001       32.256   0.100E-07
     TRS4 it   8 1.00000000   0.172E-03       0.001       32.256   0.100E-07
     TRS4 it   9 1.00000000   0.132E-06       0.001       32.256   0.100E-07
     TRS4 it  10 1.00000000   0.773E-13       0.001       32.256   0.100E-07
     Final TRS4 iteration   10 1.00000000   0.773E-13
     Chemical potential (mu):      -0.06415
 
 PAO| energy:  -7.6209117718060364      penalty:   5.3001592069536750E-033
 PAO|CG| warming up with steepest descent
 PAO|CG| beta:    0.0000000000000000     
 PAO| norm of gradient:  0.78365047165468671     
 PAO|LS| adapt:  T F F
 PAO|LS| adapt: scan_steps:    0.0000000000000000        0.0000000000000000        0.0000000000000000     
 PAO|LS| adapt: energies:   -7.6209117718060364        0.0000000000000000        0.0000000000000000     
 PAO| ======================= Iteration:         2 =============================

     Lanczos converged:  T threshold:   0.100E-02
     Est. extremal eigenvalues:    0.328E+01   0.126E+00
     Est. condition number :    0.261E+02

 Order=           3
     NS sqrt iter    1 1.00000000   0.805E+00       0.001       59.779
     NS sqrt iter    2 1.00000000   0.425E+00       0.001      101.205
     NS sqrt iter    3 1.00000000   0.153E+00       0.001      102.743
     NS sqrt iter    4 1.00000000   0.145E-01       0.001      100.988
     NS sqrt iter    5 1.00000000   0.186E-04       0.001       78.523
     Symmetrizing Results
     Final NS sqrt iter    5 1.00000000   0.521E-09

     Est. extremal eigenvalues     -0.92329     1.85778  converged:  T
     TRS4 it   1 1.00000000   0.891E+00       0.000       16.128   0.100E-07
     TRS4 it   2 1.00000000   0.681E+00       0.001       32.256   0.100E-07
     TRS4 it   3 1.00000000   0.486E+00       0.001       32.256   0.100E-07
     TRS4 it   4 1.00000000   0.295E+00       0.001       32.256   0.100E-07
     TRS4 it   5 1.00000000   0.137E+00       0.001       32.256   0.100E-07
     TRS4 it   6 1.00000000   0.379E-01       0.001       32.256   0.100E-07
     TRS4 it   7 1.00000000   0.403E-02       0.001       32.256   0.100E-07
     TRS4 it   8 1.00000000   0.644E-04       0.001       32.256   0.100E-07
     TRS4 it   9 1.00000000   0.184E-07       0.001       32.256   0.100E-07
     Final TRS4 iteration    9 1.00000000   0.184E-07
     Chemical potential (mu):      -0.05222
 
 PAO| energy:  -7.6764351321916751      penalty:   2.2530571520763407E-008
 PAO|LS| adapt:  T T F
 PAO|LS| adapt: scan_steps:    0.0000000000000000       0.10000000000000001        0.0000000000000000     
 PAO|LS| adapt: energies:   -7.6209117718060364       -7.6764351321916751        0.0000000000000000     
 PAO| ======================= Iteration:         3 =============================

     Lanczos converged:  T threshold:   0.100E-02
     Est. extremal eigenvalues:    0.319E+01   0.137E+00
     Est. condition number :    0.233E+02

 Order=           3
     NS sqrt iter    1 1.00000000   0.787E+00       0.001       58.933
     NS sqrt iter    2 1.00000000   0.408E+00       0.001      101.553
     NS sqrt iter    3 1.00000000   0.136E+00       0.001      102.844
     NS sqrt iter    4 1.00000000   0.101E-01       0.001      100.504
     NS sqrt iter    5 1.00000000   0.654E-05       0.001       76.830
     Symmetrizing Results
     Final NS sqrt iter    5 1.00000000   0.658E-10

     Est. extremal eigenvalues     -0.92672     1.81605  converged:  T
     TRS4 it   1 1.00000000   0.889E+00       0.000       16.128   0.100E-07
     TRS4 it   2 1.00000000   0.665E+00       0.001       32.256   0.100E-07
     TRS4 it   3 1.00000000   0.471E+00       0.001       32.256   0.100E-07
     TRS4 it   4 1.00000000   0.276E+00       0.001       32.256   0.100E-07
     TRS4 it   5 1.00000000   0.119E+00       0.001       32.256   0.100E-07
     TRS4 it   6 1.00000000   0.286E-01       0.001       32.256   0.100E-07
     TRS4 it   7 1.00000000   0.229E-02       0.001       32.256   0.100E-07
     TRS4 it   8 1.00000000   0.207E-04       0.001       32.256   0.100E-07
     TRS4 it   9 1.00000000   0.191E-08       0.001       32.256   0.100E-07
     Final TRS4 iteration    9 1.00000000   0.191E-08
     Chemical potential (mu):      -0.03934
 
 PAO| energy:  -7.7195217391702329      penalty:   3.6048925172938034E-007
 PAO|LS| adapt:  T T F
 PAO|LS| adapt: scan_steps:    0.0000000000000000       0.20000000000000001        0.0000000000000000     
 PAO|LS| adapt: energies:   -7.6209117718060364       -7.7195217391702329        0.0000000000000000     
 PAO| ======================= Iteration:         4 =============================

     Lanczos converged:  T threshold:   0.100E-02
     Est. extremal eigenvalues:    0.299E+01   0.154E+00
     Est. condition number :    0.194E+02

 Order=           3
     NS sqrt iter    1 1.00000000   0.750E+00       0.001       59.937
     NS sqrt iter    2 1.00000000   0.373E+00       0.001      101.628
     NS sqrt iter    3 1.00000000   0.106E+00       0.001      103.153
     NS sqrt iter    4 1.00000000   0.499E-02       0.001       98.929
     NS sqrt iter    5 1.00000000   0.999E-06       0.001       78.509
     Symmetrizing Results
     Final NS sqrt iter    5 1.00000000   0.169E-11

     Est. extremal eigenvalues     -0.93205     1.75476  converged:  T
     TRS4 it   1 1.00000000   0.887E+00       0.000       16.128   0.100E-07
     TRS4 it   2 1.00000000   0.639E+00       0.001       32.256   0.100E-07
     TRS4 it   3 1.00000000   0.444E+00       0.001       32.256   0.100E-07
     TRS4 it   4 1.00000000   0.240E+00       0.001       32.256   0.100E-07
     TRS4 it   5 1.00000000   0.884E-01       0.001       32.256   0.100E-07
     TRS4 it   6 1.00000000   0.152E-01       0.001       32.256   0.100E-07
     TRS4 it   7 1.00000000   0.612E-03       0.001       32.256   0.100E-07
     TRS4 it   8 1.00000000   0.144E-05       0.001       32.256   0.100E-07
     TRS4 it   9 1.00000000   0.920E-11       0.001       32.256   0.100E-07
     Final TRS4 iteration    9 1.00000000   0.920E-11
     Chemical potential (mu):      -0.01098
 
 PAO| energy:  -7.7667740395173048      penalty:   5.7678288868600697E-006
 PAO|LS| Need extra step
 PAO|LS| adapt:  T T F
 PAO|LS| adapt: scan_steps:    0.0000000000000000       0.40000000000000002        0.0000000000000000     
 PAO|LS| adapt: energies:   -7.6209117718060364       -7.7667740395173048        0.0000000000000000     
 PAO| ======================= Iteration:         5 =============================

     Lanczos converged:  T threshold:   0.100E-02
     Est. extremal eigenvalues:    0.263E+01   0.181E+00
     Est. condition number :    0.145E+02

 Order=           3
     NS sqrt iter    1 1.00000000   0.685E+00       0.001       58.634
     NS sqrt iter    2 1.00000000   0.311E+00       0.001      102.392
     NS sqrt iter    3 1.00000000   0.658E-01       0.001       99.363
     NS sqrt iter    4 1.00000000   0.139E-02       0.001       99.835
     NS sqrt iter    5 1.00000000   0.280E-07       0.001       54.580
     Symmetrizing Results
     Final NS sqrt iter    5 1.00000000   0.322E-08

     Est. extremal eigenvalues     -0.93327     1.68443  converged:  T
     TRS4 it   1 1.00000000   0.884E+00       0.000       16.128   0.100E-07
     TRS4 it   2 1.00000000   0.604E+00       0.001       32.256   0.100E-07
     TRS4 it   3 1.00000000   0.398E+00       0.001       32.256   0.100E-07
     TRS4 it   4 1.00000000   0.185E+00       0.001       32.256   0.100E-07
     TRS4 it   5 1.00000000   0.488E-01       0.001       32.256   0.100E-07
     TRS4 it   6 1.00000000   0.419E-02       0.001       32.256   0.100E-07
     TRS4 it   7 1.00000000   0.397E-04       0.001       32.256   0.100E-07
     TRS4 it   8 1.00000000   0.454E-08       0.001       32.256   0.100E-07
     Final TRS4 iteration    8 1.00000000   0.454E-08
     Chemical potential (mu):       0.03748
 
 PAO| energy:  -7.7120621300831687      penalty:   9.2285269063328599E-005
 PAO|LS| Need extra step
 PAO|LS| adapt:  T T T
 PAO|LS| adapt: scan_steps:    0.0000000000000000       0.40000000000000002       0.80000000000000004     
 PAO|LS| adapt: energies:   -7.6209117718060364       -7.7667740395173048       -7.7120621300831687     
 PAO|LS| adapt: suggested step_size:   0.49088942512380701     
 PAO|LS| adapt: predicted energy  -7.7719519168070779     
 PAO| ======================= Iteration:         6 =============================

     Lanczos converged:  T threshold:   0.100E-02
     Est. extremal eigenvalues:    0.290E+01   0.161E+00
     Est. condition number :    0.181E+02

 Order=           3
     NS sqrt iter    1 1.00000000   0.733E+00       0.001       59.538
     NS sqrt iter    2 1.00000000   0.358E+00       0.001       98.828
     NS sqrt iter    3 1.00000000   0.951E-01       0.001      101.501
     NS sqrt iter    4 1.00000000   0.368E-02       0.001      101.282
     NS sqrt iter    5 1.00000000   0.441E-06       0.001       77.003
     Symmetrizing Results
     Final NS sqrt iter    5 1.00000000   0.866E-11

     Est. extremal eigenvalues     -0.93353     1.73402  converged:  T
     TRS4 it   1 1.00000000   0.886E+00       0.000       16.128   0.100E-07
     TRS4 it   2 1.00000000   0.630E+00       0.001       32.256   0.100E-07
     TRS4 it   3 1.00000000   0.432E+00       0.001       32.256   0.100E-07
     TRS4 it   4 1.00000000   0.226E+00       0.001       32.256   0.100E-07
     TRS4 it   5 1.00000000   0.768E-01       0.001       32.256   0.100E-07
     TRS4 it   6 1.00000000   0.112E-01       0.001       32.256   0.100E-07
     TRS4 it   7 1.00000000   0.318E-03       0.001       32.256   0.100E-07
     TRS4 it   8 1.00000000   0.371E-06       0.001       32.256   0.100E-07
     TRS4 it   9 1.00000000   0.605E-12       0.001       32.256   0.100E-07
     Final TRS4 iteration    9 1.00000000   0.605E-12
     Chemical potential (mu):       0.00271
 
 PAO| energy:  -7.7712149106336117      penalty:   1.3082993344647658E-005
 PAO|CG| warming up with steepest descent
 PAO|CG| beta:    0.0000000000000000     
 PAO| norm of gradient:  0.41711067042034927     
 PAO| energy improvement: -0.15030313882757529     
 PAO| step      6                   -7.771214911  0.261E-01  0.491E+00     0.091
 PAO|LS| adapt:  T F F
 PAO|LS| adapt: scan_steps:    0.0000000000000000        0.0000000000000000        0.0000000000000000     
 PAO|LS| adapt: energies:   -7.7712149106336117        0.0000000000000000        0.0000000000000000     
 PAO| ======================= Iteration:         7 =============================

     Lanczos converged:  T threshold:   0.100E-02
     Est. extremal eigenvalues:    0.281E+01   0.175E+00
     Est. condition number :    0.161E+02

 Order=           3
     NS sqrt iter    1 1.00000000   0.716E+00       0.001       59.232
     NS sqrt iter    2 1.00000000   0.337E+00       0.001      100.565
     NS sqrt iter    3 1.00000000   0.795E-01       0.001      102.823
     NS sqrt iter    4 1.00000000   0.224E-02       0.001      100.700
     NS sqrt iter    5 1.00000000   0.109E-06       0.001       71.946
     Symmetrizing Results
     Final NS sqrt iter    5 1.00000000   0.135E-08

     Est. extremal eigenvalues     -0.93523     1.71932  converged:  T
     TRS4 it   1 1.00000000   0.885E+00       0.000       16.128   0.100E-07
     TRS4 it   2 1.00000000   0.627E+00       0.001       32.256   0.100E-07
     TRS4 it   3 1.00000000   0.432E+00       0.001       32.256   0.100E-07
     TRS4 it   4 1.00000000   0.226E+00       0.001       32.256   0.100E-07
     TRS4 it   5 1.00000000   0.774E-01       0.001       32.256   0.100E-07
     TRS4 it   6 1.00000000   0.111E-01       0.001       32.256   0.100E-07
     TRS4 it   7 1.00000000   0.297E-03       0.001       32.256   0.100E-07
     TRS4 it   8 1.00000000   0.305E-06       0.001       32.256   0.100E-07
     TRS4 it   9 1.00000000   0.403E-12       0.001       32.256   0.100E-07
     Final TRS4 iteration    9 1.00000000   0.403E-12
     Chemical potential (mu):       0.00473
 
 PAO| energy:  -7.7651297453650265      penalty:   1.9786646623567032E-005
 PAO|LS| adapt:  T F T
 PAO|LS| adapt: scan_steps:    0.0000000000000000        0.0000000000000000       0.49088942512380701     
 PAO|LS| adapt: energies:   -7.7712149106336117        0.0000000000000000       -7.7651297453650265     
 PAO| ======================= Iteration:         8 =============================

     Lanczos converged:  T threshold:   0.100E-02
     Est. extremal eigenvalues:    0.286E+01   0.168E+00
     Est. condition number :    0.171E+02

 Order=           3
     NS sqrt iter    1 1.00000000   0.724E+00       0.001       59.123
     NS sqrt iter    2 1.00000000   0.348E+00       0.001       99.327
     NS sqrt iter    3 1.00000000   0.871E-01       0.001      102.801
     NS sqrt iter    4 1.00000000   0.289E-02       0.001       99.237
     NS sqrt iter    5 1.00000000   0.224E-06       0.001       75.441
     Symmetrizing Results
     Final NS sqrt iter    5 1.00000000   0.698E-09

     Est. extremal eigenvalues     -0.93535     1.72610  converged:  T
     TRS4 it   1 1.00000000   0.885E+00       0.000       16.128   0.100E-07
     TRS4 it   2 1.00000000   0.628E+00       0.001       32.256   0.100E-07
     TRS4 it   3 1.00000000   0.431E+00       0.001       32.256   0.100E-07
     TRS4 it   4 1.00000000   0.225E+00       0.001       32.256   0.100E-07
     TRS4 it   5 1.00000000   0.768E-01       0.001       32.256   0.100E-07
     TRS4 it   6 1.00000000   0.112E-01       0.001       32.256   0.100E-07
     TRS4 it   7 1.00000000   0.315E-03       0.001       32.256   0.100E-07
     TRS4 it   8 1.00000000   0.357E-06       0.001       32.256   0.100E-07
     TRS4 it   9 1.00000000   0.558E-12       0.001       32.256   0.100E-07
     Final TRS4 iteration    9 1.00000000   0.558E-12
     Chemical potential (mu):       0.00327
 
 PAO| energy:  -7.7908056091909978      penalty:   1.4182110902717015E-005
 PAO|LS| adapt:  T T T
 PAO|LS| adapt: scan_steps:    0.0000000000000000       0.24544471256190351       0.49088942512380701     
 PAO|LS| adapt: energies:   -7.7712149106336117       -7.7908056091909978       -7.7651297453650265     
 PAO|LS| adapt: suggested step_size:   0.22894719693888504     
 PAO|LS| adapt: predicted energy  -7.7909078624724390     
 PAO| ======================= Iteration:         9 =============================

     Lanczos converged:  T threshold:   0.100E-02
     Est. extremal eigenvalues:    0.286E+01   0.167E+00
     Est. condition number :    0.171E+02

 Order=           3
     NS sqrt iter    1 1.00000000   0.725E+00       0.001       58.906
     NS sqrt iter    2 1.00000000   0.348E+00       0.001      100.175
     NS sqrt iter    3 1.00000000   0.877E-01       0.001       99.521
     NS sqrt iter    4 1.00000000   0.294E-02       0.001       99.503
     NS sqrt iter    5 1.00000000   0.234E-06       0.001       75.893
     Symmetrizing Results
     Final NS sqrt iter    5 1.00000000   0.755E-09

     Est. extremal eigenvalues     -0.93529     1.72659  converged:  T
     TRS4 it   1 1.00000000   0.885E+00       0.000       16.128   0.100E-07
     TRS4 it   2 1.00000000   0.628E+00       0.001       32.256   0.100E-07
     TRS4 it   3 1.00000000   0.431E+00       0.001       32.256   0.100E-07
     TRS4 it   4 1.00000000   0.225E+00       0.001       32.256   0.100E-07
     TRS4 it   5 1.00000000   0.768E-01       0.001       32.256   0.100E-07
     TRS4 it   6 1.00000000   0.112E-01       0.001       32.256   0.100E-07
     TRS4 it   7 1.00000000   0.316E-03       0.001       32.256   0.100E-07
     TRS4 it   8 1.00000000   0.359E-06       0.001       32.256   0.100E-07
     TRS4 it   9 1.00000000   0.565E-12       0.001       32.256   0.100E-07
     Final TRS4 iteration    9 1.00000000   0.565E-12
     Chemical potential (mu):       0.00320
 
 PAO| energy:  -7.7909324719579995      penalty:   1.4006345181812051E-005
 PAO|CG| trace_G_new    3.6788800172560587E-002
 PAO|CG| trace_G_prev   0.17398131137851322     
 PAO|CG| trace_G_mix   -1.4424475927124537E-003
 PAO|CG| trace_D   0.17398131137851322     
 PAO|CG| trace_D_Gnew   1.4424475927124537E-003
 PAO|CG| beta:   0.21974341647590673     
 PAO| norm of gradient:  0.19180406714290651     
 PAO| energy improvement:  -1.9717561324387844E-002
 PAO| step      9                   -7.790932472  0.120E-01  0.229E+00     0.057
 PAO|LS| adapt:  T F F
 PAO|LS| adapt: scan_steps:    0.0000000000000000        0.0000000000000000        0.0000000000000000     
 PAO|LS| adapt: energies:   -7.7909324719579995        0.0000000000000000        0.0000000000000000     
 PAO| ======================= Iteration:        10 =============================

     Lanczos converged:  T threshold:   0.100E-02
     Est. extremal eigenvalues:    0.283E+01   0.173E+00
     Est. condition number :    0.163E+02

 Order=           3
     NS sqrt iter    1 1.00000000   0.717E+00       0.001       60.156
     NS sqrt iter    2 1.00000000   0.340E+00       0.001       99.418
     NS sqrt iter    3 1.00000000   0.820E-01       0.001      102.543
     NS sqrt iter    4 1.00000000   0.242E-02       0.001      100.209
     NS sqrt iter    5 1.00000000   0.131E-06       0.001       72.622
     Symmetrizing Results
     Final NS sqrt iter    5 1.00000000   0.133E-08

     Est. extremal eigenvalues     -0.93617     1.72288  converged:  T
     TRS4 it   1 1.00000000   0.884E+00       0.000       16.128   0.100E-07
     TRS4 it   2 1.00000000   0.627E+00       0.001       32.256   0.100E-07
     TRS4 it   3 1.00000000   0.430E+00       0.001       32.256   0.100E-07
     TRS4 it   4 1.00000000   0.223E+00       0.001       32.256   0.100E-07
     TRS4 it   5 1.00000000   0.749E-01       0.001       32.256   0.100E-07
     TRS4 it   6 1.00000000   0.106E-01       0.001       32.256   0.100E-07
     TRS4 it   7 1.00000000   0.278E-03       0.001       32.256   0.100E-07
     TRS4 it   8 1.00000000   0.271E-06       0.001       32.256   0.100E-07
     TRS4 it   9 1.00000000   0.318E-12       0.001       32.256   0.100E-07
     Final TRS4 iteration    9 1.00000000   0.318E-12
     Chemical potential (mu):       0.00628
 
 PAO| energy:  -7.7959521625905532      penalty:   1.4539330541200790E-005
 PAO|LS| adapt:  T T F
 PAO|LS| adapt: scan_steps:    0.0000000000000000       0.22894719693888504        0.0000000000000000     
 PAO|LS| adapt: energies:   -7.7909324719579995       -7.7959521625905532        0.0000000000000000     
 PAO| ======================= Iteration:        11 =============================

     Lanczos converged:  T threshold:   0.100E-02
     Est. extremal eigenvalues:    0.279E+01   0.179E+00
     Est. condition number :    0.156E+02

 Order=           3
     NS sqrt iter    1 1.00000000   0.709E+00       0.001       58.729
     NS sqrt iter    2 1.00000000   0.332E+00       0.001       98.800
     NS sqrt iter    3 1.00000000   0.767E-01       0.001      102.628
     NS sqrt iter    4 1.00000000   0.198E-02       0.001       98.204
     NS sqrt iter    5 1.00000000   0.721E-07       0.001       68.070
     Symmetrizing Results
     Final NS sqrt iter    5 1.00000000   0.598E-09

     Est. extremal eigenvalues     -0.93609     1.72032  converged:  T
     TRS4 it   1 1.00000000   0.882E+00       0.000       16.128   0.100E-07
     TRS4 it   2 1.00000000   0.626E+00       0.001       32.256   0.100E-07
     TRS4 it   3 1.00000000   0.428E+00       0.001       32.256   0.100E-07
     TRS4 it   4 1.00000000   0.221E+00       0.001       32.256   0.100E-07
     TRS4 it   5 1.00000000   0.731E-01       0.001       32.256   0.100E-07
     TRS4 it   6 1.00000000   0.999E-02       0.001       32.256   0.100E-07
     TRS4 it   7 1.00000000   0.244E-03       0.001       32.256   0.100E-07
     TRS4 it   8 1.00000000   0.203E-06       0.001       32.256   0.100E-07
     TRS4 it   9 1.00000000   0.175E-12       0.001       32.256   0.100E-07
     Final TRS4 iteration    9 1.00000000   0.175E-12
     Chemical potential (mu):       0.00946
 
 PAO| energy:  -7.7945533771959790      penalty:   1.5736837267124650E-005
 PAO|LS| adapt:  T T T
 PAO|LS| adapt: scan_steps:    0.0000000000000000       0.22894719693888504       0.45789439387777009     
 PAO|LS| adapt: energies:   -7.7909324719579995       -7.7959521625905532       -7.7945533771959790     
 PAO|LS| adapt: suggested step_size:   0.29352608615751941     
 PAO|LS| adapt: predicted energy  -7.7962074988005625     
 PAO| ======================= Iteration:        12 =============================

     Lanczos converged:  T threshold:   0.100E-02
     Est. extremal eigenvalues:    0.281E+01   0.175E+00
     Est. condition number :    0.161E+02

 Order=           3
     NS sqrt iter    1 1.00000000   0.715E+00       0.001       59.390
     NS sqrt iter    2 1.00000000   0.338E+00       0.001      100.390
     NS sqrt iter    3 1.00000000   0.805E-01       0.001       99.396
     NS sqrt iter    4 1.00000000   0.229E-02       0.001      101.057
     NS sqrt iter    5 1.00000000   0.111E-06       0.001       72.059
     Symmetrizing Results
     Final NS sqrt iter    5 1.00000000   0.132E-08

     Est. extremal eigenvalues     -0.93625     1.72204  converged:  T
     TRS4 it   1 1.00000000   0.883E+00       0.000       16.128   0.100E-07
     TRS4 it   2 1.00000000   0.626E+00       0.001       32.256   0.100E-07
     TRS4 it   3 1.00000000   0.429E+00       0.001       32.256   0.100E-07
     TRS4 it   4 1.00000000   0.222E+00       0.001       32.256   0.100E-07
     TRS4 it   5 1.00000000   0.744E-01       0.001       32.256   0.100E-07
     TRS4 it   6 1.00000000   0.104E-01       0.001       32.256   0.100E-07
     TRS4 it   7 1.00000000   0.268E-03       0.001       32.256   0.100E-07
     TRS4 it   8 1.00000000   0.250E-06       0.001       32.256   0.100E-07
     TRS4 it   9 1.00000000   0.270E-12       0.001       32.256   0.100E-07
     Final TRS4 iteration    9 1.00000000   0.270E-12
     Chemical potential (mu):       0.00717
 
 PAO| energy:  -7.7961913412175372      penalty:   1.4802222744513104E-005
 PAO|CG| trace_G_new    1.1779838105397608E-002
 PAO|CG| trace_G_prev    3.6788800172560587E-002
 PAO|CG| trace_G_mix   -4.5564566077615099E-004
 PAO|CG| trace_D    4.4555928448418387E-002
 PAO|CG| trace_D_Gnew   2.0815244683530516E-004
 PAO|CG| beta:   0.33258719253637836     
 PAO| norm of gradient:  0.10853496259453729     
 PAO| energy improvement:  -5.2588692595376685E-003
 PAO| step     12                   -7.796191341  0.678E-02  0.294E+00     0.057
 PAO|LS| adapt:  T F F
 PAO|LS| adapt: scan_steps:    0.0000000000000000        0.0000000000000000        0.0000000000000000     
 PAO|LS| adapt: energies:   -7.7961913412175372        0.0000000000000000        0.0000000000000000     
 PAO| ======================= Iteration:        13 =============================

     Lanczos converged:  T threshold:   0.100E-02
     Est. extremal eigenvalues:    0.278E+01   0.179E+00
     Est. condition number :    0.156E+02

 Order=           3
     NS sqrt iter    1 1.00000000   0.708E+00       0.001       57.880
     NS sqrt iter    2 1.00000000   0.331E+00       0.001       99.246
     NS sqrt iter    3 1.00000000   0.762E-01       0.001      103.110
     NS sqrt iter    4 1.00000000   0.195E-02       0.001       99.145
     NS sqrt iter    5 1.00000000   0.695E-07       0.001       68.970
     Symmetrizing Results
     Final NS sqrt iter    5 1.00000000   0.532E-09

     Est. extremal eigenvalues     -0.93673     1.71585  converged:  T
     TRS4 it   1 1.00000000   0.883E+00       0.000       16.128   0.100E-07
     TRS4 it   2 1.00000000   0.624E+00       0.001       32.256   0.100E-07
     TRS4 it   3 1.00000000   0.425E+00       0.001       32.256   0.100E-07
     TRS4 it   4 1.00000000   0.217E+00       0.001       32.256   0.100E-07
     TRS4 it   5 1.00000000   0.709E-01       0.001       32.256   0.100E-07
     TRS4 it   6 1.00000000   0.939E-02       0.001       32.256   0.100E-07
     TRS4 it   7 1.00000000   0.216E-03       0.001       32.256   0.100E-07
     TRS4 it   8 1.00000000   0.158E-06       0.001       32.256   0.100E-07
     TRS4 it   9 1.00000000   0.105E-12       0.001       32.256   0.100E-07
     Final TRS4 iteration    9 1.00000000   0.105E-12
     Chemical potential (mu):       0.01164
 
 PAO| energy:  -7.7982546416644967      penalty:   1.5104392102623426E-005
 PAO|LS| adapt:  T T F
 PAO|LS| adapt: scan_steps:    0.0000000000000000       0.29352608615751941        0.0000000000000000     
 PAO|LS| adapt: energies:   -7.7961913412175372       -7.7982546416644967        0.0000000000000000     
 PAO| ======================= Iteration:        14 =============================

     Lanczos converged:  T threshold:   0.100E-02
     Est. extremal eigenvalues:    0.275E+01   0.183E+00
     Est. condition number :    0.150E+02

 Order=           3
     NS sqrt iter    1 1.00000000   0.701E+00       0.001       59.408
     NS sqrt iter    2 1.00000000   0.324E+00       0.001      101.026
     NS sqrt iter    3 1.00000000   0.720E-01       0.001      100.341
     NS sqrt iter    4 1.00000000   0.166E-02       0.001       99.600
     NS sqrt iter    5 1.00000000   0.434E-07       0.001       65.027
     Symmetrizing Results
     Final NS sqrt iter    5 1.00000000   0.358E-09

     Est. extremal eigenvalues     -0.93671     1.70993  converged:  T
     TRS4 it   1 1.00000000   0.882E+00       0.000       16.128   0.100E-07
     TRS4 it   2 1.00000000   0.621E+00       0.001       32.256   0.100E-07
     TRS4 it   3 1.00000000   0.422E+00       0.001       32.256   0.100E-07
     TRS4 it   4 1.00000000   0.213E+00       0.001       32.256   0.100E-07
     TRS4 it   5 1.00000000   0.676E-01       0.001       32.256   0.100E-07
     TRS4 it   6 1.00000000   0.848E-02       0.001       32.256   0.100E-07
     TRS4 it   7 1.00000000   0.173E-03       0.001       32.256   0.100E-07
     TRS4 it   8 1.00000000   0.995E-07       0.001       32.256   0.100E-07
     TRS4 it   9 1.00000000   0.416E-13       0.001       32.256   0.100E-07
     Final TRS4 iteration    9 1.00000000   0.416E-13
     Chemical potential (mu):       0.01601
 
 PAO| energy:  -7.7976193681748596      penalty:   1.5883963457884271E-005
 PAO|LS| adapt:  T T T
 PAO|LS| adapt: scan_steps:    0.0000000000000000       0.29352608615751941       0.58705217231503881     
 PAO|LS| adapt: energies:   -7.7961913412175372       -7.7982546416644967       -7.7976193681748596     
 PAO|LS| adapt: suggested step_size:   0.37118991408267005     
 PAO|LS| adapt: predicted energy  -7.7983491017867106     
 PAO| ======================= Iteration:        15 =============================

     Lanczos converged:  T threshold:   0.100E-02
     Est. extremal eigenvalues:    0.277E+01   0.180E+00
     Est. condition number :    0.154E+02

 Order=           3
     NS sqrt iter    1 1.00000000   0.706E+00       0.001       59.787
     NS sqrt iter    2 1.00000000   0.329E+00       0.001       98.876
     NS sqrt iter    3 1.00000000   0.750E-01       0.001      101.019
     NS sqrt iter    4 1.00000000   0.187E-02       0.001      100.694
     NS sqrt iter    5 1.00000000   0.614E-07       0.001       67.144
     Symmetrizing Results
     Final NS sqrt iter    5 1.00000000   0.515E-09

     Est. extremal eigenvalues     -0.93677     1.71426  converged:  T
     TRS4 it   1 1.00000000   0.883E+00       0.000       16.128   0.100E-07
     TRS4 it   2 1.00000000   0.623E+00       0.001       32.256   0.100E-07
     TRS4 it   3 1.00000000   0.424E+00       0.001       32.256   0.100E-07
     TRS4 it   4 1.00000000   0.216E+00       0.001       32.256   0.100E-07
     TRS4 it   5 1.00000000   0.700E-01       0.001       32.256   0.100E-07
     TRS4 it   6 1.00000000   0.914E-02       0.001       32.256   0.100E-07
     TRS4 it   7 1.00000000   0.203E-03       0.001       32.256   0.100E-07
     TRS4 it   8 1.00000000   0.140E-06       0.001       32.256   0.100E-07
     TRS4 it   9 1.00000000   0.820E-13       0.001       32.256   0.100E-07
     Final TRS4 iteration    9 1.00000000   0.820E-13
     Chemical potential (mu):       0.01281
 
 PAO| energy:  -7.7983460268800977      penalty:   1.5261162071092822E-005
 PAO|CG| trace_G_new    2.6312055169529372E-003
 PAO|CG| trace_G_prev    1.1779838105397608E-002
 PAO|CG| trace_G_mix    6.2655761707009128E-005
 PAO|CG| trace_D    1.6569900620870218E-002
 PAO|CG| trace_D_Gnew   3.3722181058961972E-005
 PAO|CG| beta:   0.21804626958913806     
 PAO| norm of gradient:   5.1295277725663377E-002
 PAO| energy improvement:  -2.1546856625604960E-003
 PAO| step     15                   -7.798346027  0.321E-02  0.371E+00     0.057
 PAO|LS| adapt:  T F F
 PAO|LS| adapt: scan_steps:    0.0000000000000000        0.0000000000000000        0.0000000000000000     
 PAO|LS| adapt: energies:   -7.7983460268800977        0.0000000000000000        0.0000000000000000     
 PAO| ======================= Iteration:        16 =============================

     Lanczos converged:  T threshold:   0.100E-02
     Est. extremal eigenvalues:    0.276E+01   0.181E+00
     Est. condition number :    0.153E+02

 Order=           3
     NS sqrt iter    1 1.00000000   0.704E+00       0.001       59.443
     NS sqrt iter    2 1.00000000   0.328E+00       0.001      101.015
     NS sqrt iter    3 1.00000000   0.743E-01       0.001      100.779
     NS sqrt iter    4 1.00000000   0.181E-02       0.001      100.207
     NS sqrt iter    5 1.00000000   0.554E-07       0.001       66.637
     Symmetrizing Results
     Final NS sqrt iter    5 1.00000000   0.485E-09

     Est. extremal eigenvalues     -0.93680     1.71326  converged:  T
     TRS4 it   1 1.00000000   0.883E+00       0.000       16.128   0.100E-07
     TRS4 it   2 1.00000000   0.622E+00       0.001       32.256   0.100E-07
     TRS4 it   3 1.00000000   0.423E+00       0.001       32.256   0.100E-07
     TRS4 it   4 1.00000000   0.215E+00       0.001       32.256   0.100E-07
     TRS4 it   5 1.00000000   0.688E-01       0.001       32.256   0.100E-07
     TRS4 it   6 1.00000000   0.884E-02       0.001       32.256   0.100E-07
     TRS4 it   7 1.00000000   0.191E-03       0.001       32.256   0.100E-07
     TRS4 it   8 1.00000000   0.125E-06       0.001       32.256   0.100E-07
     TRS4 it   9 1.00000000   0.662E-13       0.001       32.256   0.100E-07
     Final TRS4 iteration    9 1.00000000   0.662E-13
     Chemical potential (mu):       0.01365
 
 PAO| energy:  -7.7984696785904051      penalty:   1.5042126694565081E-005
 PAO|LS| adapt:  T T F
 PAO|LS| adapt: scan_steps:    0.0000000000000000       0.37118991408267005        0.0000000000000000     
 PAO|LS| adapt: energies:   -7.7983460268800977       -7.7984696785904051        0.0000000000000000     
 PAO| ======================= Iteration:        17 =============================

     Lanczos converged:  T threshold:   0.100E-02
     Est. extremal eigenvalues:    0.275E+01   0.181E+00
     Est. condition number :    0.152E+02

 Order=           3
     NS sqrt iter    1 1.00000000   0.702E+00       0.001       59.237
     NS sqrt iter    2 1.00000000   0.326E+00       0.001      100.709
     NS sqrt iter    3 1.00000000   0.736E-01       0.001      102.521
     NS sqrt iter    4 1.00000000   0.175E-02       0.001       99.977
     NS sqrt iter    5 1.00000000   0.501E-07       0.001       66.438
     Symmetrizing Results
     Final NS sqrt iter    5 1.00000000   0.393E-09

     Est. extremal eigenvalues     -0.93670     1.71234  converged:  T
     TRS4 it   1 1.00000000   0.883E+00       0.000       16.128   0.100E-07
     TRS4 it   2 1.00000000   0.621E+00       0.001       32.256   0.100E-07
     TRS4 it   3 1.00000000   0.422E+00       0.001       32.256   0.100E-07
     TRS4 it   4 1.00000000   0.213E+00       0.001       32.256   0.100E-07
     TRS4 it   5 1.00000000   0.676E-01       0.001       32.256   0.100E-07
     TRS4 it   6 1.00000000   0.855E-02       0.001       32.256   0.100E-07
     TRS4 it   7 1.00000000   0.180E-03       0.001       32.256   0.100E-07
     TRS4 it   8 1.00000000   0.111E-06       0.001       32.256   0.100E-07
     TRS4 it   9 1.00000000   0.523E-13       0.001       32.256   0.100E-07
     Final TRS4 iteration    9 1.00000000   0.523E-13
     Chemical potential (mu):       0.01448
 
 PAO| energy:  -7.7968871599458041      penalty:   1.4950464703713451E-005
 PAO|LS| adapt:  T T T
 PAO|LS| adapt: scan_steps:    0.0000000000000000       0.37118991408267005       0.74237982816534009     
 PAO|LS| adapt: energies:   -7.7983460268800977       -7.7984696785904051       -7.7968871599458041     
 PAO|LS| adapt: suggested step_size:   0.21249629640239359     
 PAO|LS| adapt: predicted energy  -7.7986256047502582     
 PAO| ======================= Iteration:        18 =============================

     Lanczos converged:  T threshold:   0.100E-02
     Est. extremal eigenvalues:    0.277E+01   0.180E+00
     Est. condition number :    0.153E+02

 Order=           3
     NS sqrt iter    1 1.00000000   0.705E+00       0.001       57.139
     NS sqrt iter    2 1.00000000   0.328E+00       0.001       99.576
     NS sqrt iter    3 1.00000000   0.746E-01       0.001       99.592
     NS sqrt iter    4 1.00000000   0.183E-02       0.001       98.082
     NS sqrt iter    5 1.00000000   0.579E-07       0.001       66.407
     Symmetrizing Results
     Final NS sqrt iter    5 1.00000000   0.503E-09

     Est. extremal eigenvalues     -0.93680     1.71368  converged:  T
     TRS4 it   1 1.00000000   0.883E+00       0.000       16.128   0.100E-07
     TRS4 it   2 1.00000000   0.622E+00       0.001       32.256   0.100E-07
     TRS4 it   3 1.00000000   0.424E+00       0.001       32.256   0.100E-07
     TRS4 it   4 1.00000000   0.215E+00       0.001       32.256   0.100E-07
     TRS4 it   5 1.00000000   0.693E-01       0.001       32.256   0.100E-07
     TRS4 it   6 1.00000000   0.897E-02       0.001       32.256   0.100E-07
     TRS4 it   7 1.00000000   0.196E-03       0.001       32.256   0.100E-07
     TRS4 it   8 1.00000000   0.131E-06       0.001       32.256   0.100E-07
     TRS4 it   9 1.00000000   0.738E-13       0.001       32.256   0.100E-07
     Final TRS4 iteration    9 1.00000000   0.738E-13
     Chemical potential (mu):       0.01329
 
 PAO| energy:  -7.7986251454946176      penalty:   1.5120466762430160E-005
 PAO|CG| trace_G_new    7.2444101886583634E-004
 PAO|CG| trace_G_prev    2.6312055169529372E-003
 PAO|CG| trace_G_mix    1.4220165935267957E-006
 PAO|CG| trace_D    3.4043017915359151E-003
 PAO|CG| trace_D_Gnew  -1.7242635432340133E-006
 PAO|CG| beta:   0.27478621400490233     
 PAO| norm of gradient:   2.6915442015055899E-002
 PAO| energy improvement:  -2.7911861451990205E-004
 PAO| step     18                   -7.798625145  0.168E-02  0.212E+00     0.058
 PAO|LS| adapt:  T F F
 PAO|LS| adapt: scan_steps:    0.0000000000000000        0.0000000000000000        0.0000000000000000     
 PAO|LS| adapt: energies:   -7.7986251454946176        0.0000000000000000        0.0000000000000000     
 PAO| ======================= Iteration:        19 =============================

     Lanczos converged:  T threshold:   0.100E-02
     Est. extremal eigenvalues:    0.277E+01   0.180E+00
     Est. condition number :    0.154E+02

 Order=           3
     NS sqrt iter    1 1.00000000   0.705E+00       0.001       59.075
     NS sqrt iter    2 1.00000000   0.328E+00       0.001      101.014
     NS sqrt iter    3 1.00000000   0.748E-01       0.001      103.288
     NS sqrt iter    4 1.00000000   0.184E-02       0.001      100.268
     NS sqrt iter    5 1.00000000   0.583E-07       0.001       66.546
     Symmetrizing Results
     Final NS sqrt iter    5 1.00000000   0.498E-09

     Est. extremal eigenvalues     -0.93680     1.71389  converged:  T
     TRS4 it   1 1.00000000   0.883E+00       0.000       16.128   0.100E-07
     TRS4 it   2 1.00000000   0.622E+00       0.001       32.256   0.100E-07
     TRS4 it   3 1.00000000   0.423E+00       0.001       32.256   0.100E-07
     TRS4 it   4 1.00000000   0.215E+00       0.001       32.256   0.100E-07
     TRS4 it   5 1.00000000   0.692E-01       0.001       32.256   0.100E-07
     TRS4 it   6 1.00000000   0.896E-02       0.001       32.256   0.100E-07
     TRS4 it   7 1.00000000   0.197E-03       0.001       32.256   0.100E-07
     TRS4 it   8 1.00000000   0.133E-06       0.001       32.256   0.100E-07
     TRS4 it   9 1.00000000   0.749E-13       0.001       32.256   0.100E-07
     Final TRS4 iteration    9 1.00000000   0.749E-13
     Chemical potential (mu):       0.01302
 
 PAO| energy:  -7.7987427228226940      penalty:   1.4831417696170541E-005
 PAO|LS| adapt:  T T F
 PAO|LS| adapt: scan_steps:    0.0000000000000000       0.21249629640239359        0.0000000000000000     
 PAO|LS| adapt: energies:   -7.7986251454946176       -7.7987427228226940        0.0000000000000000     
 PAO| ======================= Iteration:        20 =============================

     Lanczos converged:  T threshold:   0.100E-02
     Est. extremal eigenvalues:    0.277E+01   0.180E+00
     Est. condition number :    0.154E+02

 Order=           3
     NS sqrt iter    1 1.00000000   0.705E+00       0.001       59.089
     NS sqrt iter    2 1.00000000   0.329E+00       0.001      101.461
     NS sqrt iter    3 1.00000000   0.750E-01       0.001      101.697
     NS sqrt iter    4 1.00000000   0.185E-02       0.001       97.880
     NS sqrt iter    5 1.00000000   0.589E-07       0.001       66.611
     Symmetrizing Results
     Final NS sqrt iter    5 1.00000000   0.507E-09

     Est. extremal eigenvalues     -0.93680     1.71411  converged:  T
     TRS4 it   1 1.00000000   0.883E+00       0.000       16.128   0.100E-07
     TRS4 it   2 1.00000000   0.622E+00       0.001       32.256   0.100E-07
     TRS4 it   3 1.00000000   0.423E+00       0.001       32.256   0.100E-07
     TRS4 it   4 1.00000000   0.215E+00       0.001       32.256   0.100E-07
     TRS4 it   5 1.00000000   0.691E-01       0.001       32.256   0.100E-07
     TRS4 it   6 1.00000000   0.895E-02       0.001       32.256   0.100E-07
     TRS4 it   7 1.00000000   0.197E-03       0.001       32.256   0.100E-07
     TRS4 it   8 1.00000000   0.135E-06       0.001       32.256   0.100E-07
     TRS4 it   9 1.00000000   0.780E-13       0.001       32.256   0.100E-07
     Final TRS4 iteration    9 1.00000000   0.780E-13
     Chemical potential (mu):       0.01274
 
 PAO| energy:  -7.7987869814563640      penalty:   1.4554737509375888E-005
 PAO|LS| adapt:  T T F
 PAO|LS| adapt: scan_steps:    0.0000000000000000       0.42499259280478718        0.0000000000000000     
 PAO|LS| adapt: energies:   -7.7986251454946176       -7.7987869814563640        0.0000000000000000     
 PAO| ======================= Iteration:        21 =============================

     Lanczos converged:  T threshold:   0.100E-02
     Est. extremal eigenvalues:    0.277E+01   0.180E+00
     Est. condition number :    0.154E+02

 Order=           3
     NS sqrt iter    1 1.00000000   0.705E+00       0.001       58.890
     NS sqrt iter    2 1.00000000   0.329E+00       0.001      100.769
     NS sqrt iter    3 1.00000000   0.755E-01       0.001      101.173
     NS sqrt iter    4 1.00000000   0.187E-02       0.001      100.345
     NS sqrt iter    5 1.00000000   0.600E-07       0.001       67.002
     Symmetrizing Results
     Final NS sqrt iter    5 1.00000000   0.506E-09

     Est. extremal eigenvalues     -0.93679     1.71455  converged:  T
     TRS4 it   1 1.00000000   0.883E+00       0.000       16.128   0.100E-07
     TRS4 it   2 1.00000000   0.622E+00       0.001       32.256   0.100E-07
     TRS4 it   3 1.00000000   0.423E+00       0.001       32.256   0.100E-07
     TRS4 it   4 1.00000000   0.215E+00       0.001       32.256   0.100E-07
     TRS4 it   5 1.00000000   0.689E-01       0.001       32.256   0.100E-07
     TRS4 it   6 1.00000000   0.893E-02       0.001       32.256   0.100E-07
     TRS4 it   7 1.00000000   0.199E-03       0.001       32.256   0.100E-07
     TRS4 it   8 1.00000000   0.139E-06       0.001       32.256   0.100E-07
     TRS4 it   9 1.00000000   0.831E-13       0.001       32.256   0.100E-07
     Final TRS4 iteration    9 1.00000000   0.831E-13
     Chemical potential (mu):       0.01219
 
 PAO| energy:  -7.7986531833565520      penalty:   1.4037909121409957E-005
 PAO|LS| Need extra step
 PAO|LS| adapt:  T T T
 PAO|LS| adapt: scan_steps:    0.0000000000000000       0.42499259280478718       0.84998518560957437     
 PAO|LS| adapt: energies:   -7.7986251454946176       -7.7987869814563640       -7.7986531833565520     
 PAO|LS| adapt: suggested step_size:   0.44514568946995375     
 PAO|LS| adapt: predicted energy  -7.7987873138443584     
 PAO| ======================= Iteration:        22 =============================

     Lanczos converged:  T threshold:   0.100E-02
     Est. extremal eigenvalues:    0.277E+01   0.180E+00
     Est. condition number :    0.154E+02

 Order=           3
     NS sqrt iter    1 1.00000000   0.705E+00       0.001       59.078
     NS sqrt iter    2 1.00000000   0.329E+00       0.001       99.968
     NS sqrt iter    3 1.00000000   0.751E-01       0.001       99.466
     NS sqrt iter    4 1.00000000   0.185E-02       0.001       99.799
     NS sqrt iter    5 1.00000000   0.589E-07       0.001       65.604
     Symmetrizing Results
     Final NS sqrt iter    5 1.00000000   0.507E-09

     Est. extremal eigenvalues     -0.93680     1.71413  converged:  T
     TRS4 it   1 1.00000000   0.883E+00       0.000       16.128   0.100E-07
     TRS4 it   2 1.00000000   0.622E+00       0.001       32.256   0.100E-07
     TRS4 it   3 1.00000000   0.423E+00       0.001       32.256   0.100E-07
     TRS4 it   4 1.00000000   0.215E+00       0.001       32.256   0.100E-07
     TRS4 it   5 1.00000000   0.691E-01       0.001       32.256   0.100E-07
     TRS4 it   6 1.00000000   0.895E-02       0.001       32.256   0.100E-07
     TRS4 it   7 1.00000000   0.197E-03       0.001       32.256   0.100E-07
     TRS4 it   8 1.00000000   0.135E-06       0.001       32.256   0.100E-07
     TRS4 it   9 1.00000000   0.784E-13       0.001       32.256   0.100E-07
     Final TRS4 iteration    9 1.00000000   0.784E-13
     Chemical potential (mu):       0.01272
 
 PAO| energy:  -7.7987873510573147      penalty:   1.4529133020588289E-005
 PAO|CG| trace_G_new    2.2081220566254063E-004
 PAO|CG| trace_G_prev    7.2444101886583634E-004
 PAO|CG| trace_G_mix    2.9956777480623587E-006
 PAO|CG| trace_D    9.8243881951910663E-004
 PAO|CG| trace_D_Gnew  -1.8390098321992626E-006
 PAO|CG| beta:   0.30066840811345202     
 PAO| norm of gradient:   1.4859751197868039E-002
 PAO| energy improvement:  -1.6220556269708197E-004
 PAO| step     22                   -7.798787351  0.929E-03  0.445E+00     0.075
 PAO|LS| adapt:  T F F
 PAO|LS| adapt: scan_steps:    0.0000000000000000        0.0000000000000000        0.0000000000000000     
 PAO|LS| adapt: energies:   -7.7987873510573147        0.0000000000000000        0.0000000000000000     
 PAO| ======================= Iteration:        23 =============================

     Lanczos converged:  T threshold:   0.100E-02
     Est. extremal eigenvalues:    0.277E+01   0.180E+00
     Est. condition number :    0.154E+02

 Order=           3
     NS sqrt iter    1 1.00000000   0.705E+00       0.001       58.854
     NS sqrt iter    2 1.00000000   0.329E+00       0.001      100.299
     NS sqrt iter    3 1.00000000   0.751E-01       0.001      101.797
     NS sqrt iter    4 1.00000000   0.185E-02       0.001      100.078
     NS sqrt iter    5 1.00000000   0.590E-07       0.001       67.683
     Symmetrizing Results
     Final NS sqrt iter    5 1.00000000   0.512E-09

     Est. extremal eigenvalues     -0.93680     1.71399  converged:  T
     TRS4 it   1 1.00000000   0.883E+00       0.000       16.128   0.100E-07
     TRS4 it   2 1.00000000   0.622E+00       0.001       32.256   0.100E-07
     TRS4 it   3 1.00000000   0.423E+00       0.001       32.256   0.100E-07
     TRS4 it   4 1.00000000   0.215E+00       0.001       32.256   0.100E-07
     TRS4 it   5 1.00000000   0.692E-01       0.001       32.256   0.100E-07
     TRS4 it   6 1.00000000   0.899E-02       0.001       32.256   0.100E-07
     TRS4 it   7 1.00000000   0.200E-03       0.001       32.256   0.100E-07
     TRS4 it   8 1.00000000   0.138E-06       0.001       32.256   0.100E-07
     TRS4 it   9 1.00000000   0.822E-13       0.001       32.256   0.100E-07
     Final TRS4 iteration    9 1.00000000   0.822E-13
     Chemical potential (mu):       0.01241
 
 PAO| energy:  -7.7988363019348474      penalty:   1.3846165785430119E-005
 PAO|LS| adapt:  T T F
 PAO|LS| adapt: scan_steps:    0.0000000000000000       0.44514568946995375        0.0000000000000000     
 PAO|LS| adapt: energies:   -7.7987873510573147       -7.7988363019348474        0.0000000000000000     
 PAO| ======================= Iteration:        24 =============================

     Lanczos converged:  T threshold:   0.100E-02
     Est. extremal eigenvalues:    0.277E+01   0.180E+00
     Est. condition number :    0.154E+02

 Order=           3
     NS sqrt iter    1 1.00000000   0.705E+00       0.001       58.827
     NS sqrt iter    2 1.00000000   0.329E+00       0.001      101.185
     NS sqrt iter    3 1.00000000   0.752E-01       0.001      101.912
     NS sqrt iter    4 1.00000000   0.186E-02       0.001       99.953
     NS sqrt iter    5 1.00000000   0.590E-07       0.001       67.024
     Symmetrizing Results
     Final NS sqrt iter    5 1.00000000   0.516E-09

     Est. extremal eigenvalues     -0.93680     1.71386  converged:  T
     TRS4 it   1 1.00000000   0.883E+00       0.000       16.128   0.100E-07
     TRS4 it   2 1.00000000   0.622E+00       0.001       32.256   0.100E-07
     TRS4 it   3 1.00000000   0.423E+00       0.001       32.256   0.100E-07
     TRS4 it   4 1.00000000   0.215E+00       0.001       32.256   0.100E-07
     TRS4 it   5 1.00000000   0.693E-01       0.001       32.256   0.100E-07
     TRS4 it   6 1.00000000   0.903E-02       0.001       32.256   0.100E-07
     TRS4 it   7 1.00000000   0.202E-03       0.001       32.256   0.100E-07
     TRS4 it   8 1.00000000   0.142E-06       0.001       32.256   0.100E-07
     TRS4 it   9 1.00000000   0.863E-13       0.001       32.256   0.100E-07
     Final TRS4 iteration    9 1.00000000   0.863E-13
     Chemical potential (mu):       0.01209
 
 PAO| energy:  -7.7987854460600037      penalty:   1.3191502567719391E-005
 PAO|LS| adapt:  T T T
 PAO|LS| adapt: scan_steps:    0.0000000000000000       0.44514568946995375       0.89029137893990751     
 PAO|LS| adapt: energies:   -7.7987873510573147       -7.7988363019348474       -7.7987854460600037     
 PAO|LS| adapt: suggested step_size:   0.44089747318570793     
 PAO|LS| adapt: predicted energy  -7.7988363064798989     
 PAO| ======================= Iteration:        25 =============================

     Lanczos converged:  T threshold:   0.100E-02
     Est. extremal eigenvalues:    0.277E+01   0.180E+00
     Est. condition number :    0.154E+02

 Order=           3
     NS sqrt iter    1 1.00000000   0.705E+00       0.001       58.577
     NS sqrt iter    2 1.00000000   0.329E+00       0.001       98.652
     NS sqrt iter    3 1.00000000   0.751E-01       0.001      100.477
     NS sqrt iter    4 1.00000000   0.185E-02       0.001       97.401
     NS sqrt iter    5 1.00000000   0.590E-07       0.001       67.411
     Symmetrizing Results
     Final NS sqrt iter    5 1.00000000   0.512E-09

     Est. extremal eigenvalues     -0.93680     1.71400  converged:  T
     TRS4 it   1 1.00000000   0.883E+00       0.000       16.128   0.100E-07
     TRS4 it   2 1.00000000   0.622E+00       0.001       32.256   0.100E-07
     TRS4 it   3 1.00000000   0.423E+00       0.001       32.256   0.100E-07
     TRS4 it   4 1.00000000   0.215E+00       0.001       32.256   0.100E-07
     TRS4 it   5 1.00000000   0.692E-01       0.001       32.256   0.100E-07
     TRS4 it   6 1.00000000   0.899E-02       0.001       32.256   0.100E-07
     TRS4 it   7 1.00000000   0.200E-03       0.001       32.256   0.100E-07
     TRS4 it   8 1.00000000   0.138E-06       0.001       32.256   0.100E-07
     TRS4 it   9 1.00000000   0.823E-13       0.001       32.256   0.100E-07
     Final TRS4 iteration    9 1.00000000   0.823E-13
     Chemical potential (mu):       0.01241
 
 PAO| energy:  -7.7988363049791003      penalty:   1.3852548897418324E-005
 PAO|CG| trace_G_new    7.8495253426329482E-005
 PAO|CG| trace_G_prev    2.2081220566254063E-004
 PAO|CG| trace_G_mix    6.9126438364269866E-007
 PAO|CG| trace_D    3.1073200470713494E-004
 PAO|CG| trace_D_Gnew  -3.5326245363230812E-007
 PAO|CG| beta:   0.35235366092756587     
 PAO| norm of gradient:   8.8597547046365497E-003
 PAO| energy improvement:  -4.8953921785610532E-005
 PAO| step     25                   -7.798836305  0.554E-03  0.441E+00     0.058
 PAO|LS| adapt:  T F F
 PAO|LS| adapt: scan_steps:    0.0000000000000000        0.0000000000000000        0.0000000000000000     
 PAO|LS| adapt: energies:   -7.7988363049791003        0.0000000000000000        0.0000000000000000     
 PAO| ======================= Iteration:        26 =============================

     Lanczos converged:  T threshold:   0.100E-02
     Est. extremal eigenvalues:    0.277E+01   0.180E+00
     Est. condition number :    0.154E+02

 Order=           3
     NS sqrt iter    1 1.00000000   0.704E+00       0.001       58.232
     NS sqrt iter    2 1.00000000   0.329E+00       0.001      100.181
     NS sqrt iter    3 1.00000000   0.750E-01       0.001      102.084
     NS sqrt iter    4 1.00000000   0.185E-02       0.001      100.324
     NS sqrt iter    5 1.00000000   0.585E-07       0.001       66.835
     Symmetrizing Results
     Final NS sqrt iter    5 1.00000000   0.509E-09

     Est. extremal eigenvalues     -0.93680     1.71370  converged:  T
     TRS4 it   1 1.00000000   0.883E+00       0.000       16.128   0.100E-07
     TRS4 it   2 1.00000000   0.622E+00       0.001       32.256   0.100E-07
     TRS4 it   3 1.00000000   0.423E+00       0.001       32.256   0.100E-07
     TRS4 it   4 1.00000000   0.215E+00       0.001       32.256   0.100E-07
     TRS4 it   5 1.00000000   0.691E-01       0.001       32.256   0.100E-07
     TRS4 it   6 1.00000000   0.897E-02       0.001       32.256   0.100E-07
     TRS4 it   7 1.00000000   0.199E-03       0.001       32.256   0.100E-07
     TRS4 it   8 1.00000000   0.137E-06       0.001       32.256   0.100E-07
     TRS4 it   9 1.00000000   0.793E-13       0.001       32.256   0.100E-07
     Final TRS4 iteration    9 1.00000000   0.793E-13
     Chemical potential (mu):       0.01253
 
 PAO| energy:  -7.7988400815884544      penalty:   1.3132833592214428E-005
 PAO|LS| adapt:  T T F
 PAO|LS| adapt: scan_steps:    0.0000000000000000       0.44089747318570793        0.0000000000000000     
 PAO|LS| adapt: energies:   -7.7988363049791003       -7.7988400815884544        0.0000000000000000     
 PAO| ======================= Iteration:        27 =============================

     Lanczos converged:  T threshold:   0.100E-02
     Est. extremal eigenvalues:    0.277E+01   0.180E+00
     Est. condition number :    0.153E+02

 Order=           3
     NS sqrt iter    1 1.00000000   0.704E+00       0.001       59.140
     NS sqrt iter    2 1.00000000   0.328E+00       0.001      100.000
     NS sqrt iter    3 1.00000000   0.749E-01       0.001      102.778
     NS sqrt iter    4 1.00000000   0.184E-02       0.001       99.674
     NS sqrt iter    5 1.00000000   0.581E-07       0.001       66.576
     Symmetrizing Results
     Final NS sqrt iter    5 1.00000000   0.506E-09

     Est. extremal eigenvalues     -0.93680     1.71341  converged:  T
     TRS4 it   1 1.00000000   0.883E+00       0.000       16.128   0.100E-07
     TRS4 it   2 1.00000000   0.622E+00       0.001       32.256   0.100E-07
     TRS4 it   3 1.00000000   0.423E+00       0.001       32.256   0.100E-07
     TRS4 it   4 1.00000000   0.215E+00       0.001       32.256   0.100E-07
     TRS4 it   5 1.00000000   0.691E-01       0.001       32.256   0.100E-07
     TRS4 it   6 1.00000000   0.895E-02       0.001       32.256   0.100E-07
     TRS4 it   7 1.00000000   0.198E-03       0.001       32.256   0.100E-07
     TRS4 it   8 1.00000000   0.135E-06       0.001       32.256   0.100E-07
     TRS4 it   9 1.00000000   0.779E-13       0.001       32.256   0.100E-07
     Final TRS4 iteration    9 1.00000000   0.779E-13
     Chemical potential (mu):       0.01264
 
 PAO| energy:  -7.7987819817460258      penalty:   1.2436493697404429E-005
 PAO|LS| adapt:  T T T
 PAO|LS| adapt: scan_steps:    0.0000000000000000       0.44089747318570793       0.88179494637141587     
 PAO|LS| adapt: energies:   -7.7988363049791003       -7.7988400815884544       -7.7987819817460258     
 PAO|LS| adapt: suggested step_size:   0.24735877221176805     
 PAO|LS| adapt: predicted energy  -7.7988460430923192     
 PAO| ======================= Iteration:        28 =============================

     Lanczos converged:  T threshold:   0.100E-02
     Est. extremal eigenvalues:    0.277E+01   0.180E+00
     Est. condition number :    0.154E+02

 Order=           3
     NS sqrt iter    1 1.00000000   0.704E+00       0.001       59.032
     NS sqrt iter    2 1.00000000   0.329E+00       0.001       99.909
     NS sqrt iter    3 1.00000000   0.751E-01       0.001      100.021
     NS sqrt iter    4 1.00000000   0.185E-02       0.001      100.953
     NS sqrt iter    5 1.00000000   0.587E-07       0.001       67.081
     Symmetrizing Results
     Final NS sqrt iter    5 1.00000000   0.510E-09

     Est. extremal eigenvalues     -0.93680     1.71383  converged:  T
     TRS4 it   1 1.00000000   0.883E+00       0.000       16.128   0.100E-07
     TRS4 it   2 1.00000000   0.622E+00       0.001       32.256   0.100E-07
     TRS4 it   3 1.00000000   0.423E+00       0.001       32.256   0.100E-07
     TRS4 it   4 1.00000000   0.215E+00       0.001       32.256   0.100E-07
     TRS4 it   5 1.00000000   0.692E-01       0.001       32.256   0.100E-07
     TRS4 it   6 1.00000000   0.897E-02       0.001       32.256   0.100E-07
     TRS4 it   7 1.00000000   0.199E-03       0.001       32.256   0.100E-07
     TRS4 it   8 1.00000000   0.137E-06       0.001       32.256   0.100E-07
     TRS4 it   9 1.00000000   0.809E-13       0.001       32.256   0.100E-07
     Final TRS4 iteration    9 1.00000000   0.809E-13
     Chemical potential (mu):       0.01248
 
 PAO| energy:  -7.7988460340064183      penalty:   1.3445866756129342E-005
 PAO|CG| trace_G_new    3.0622909868657779E-005
 PAO|CG| trace_G_prev    7.8495253426329482E-005
 PAO|CG| trace_G_mix    4.5763502012909211E-008
 PAO|CG| trace_D    1.1732254245368825E-004
 PAO|CG| trace_D_Gnew  -2.4166644434034333E-008
 PAO|CG| beta:   0.38954134208054475     
 PAO| norm of gradient:   5.5337970570538434E-003
 PAO| energy improvement:  -9.7290273179950759E-006
 PAO| step     28                   -7.798846034  0.346E-03  0.247E+00     0.057
 PAO|LS| adapt:  T F F
 PAO|LS| adapt: scan_steps:    0.0000000000000000        0.0000000000000000        0.0000000000000000     
 PAO|LS| adapt: energies:   -7.7988460340064183        0.0000000000000000        0.0000000000000000     
 PAO| ======================= Iteration:        29 =============================

     Lanczos converged:  T threshold:   0.100E-02
     Est. extremal eigenvalues:    0.277E+01   0.180E+00
     Est. condition number :    0.154E+02

 Order=           3
     NS sqrt iter    1 1.00000000   0.704E+00       0.001       59.856
     NS sqrt iter    2 1.00000000   0.328E+00       0.001      100.139
     NS sqrt iter    3 1.00000000   0.750E-01       0.001      103.710
     NS sqrt iter    4 1.00000000   0.185E-02       0.001      100.363
     NS sqrt iter    5 1.00000000   0.586E-07       0.001       66.998
     Symmetrizing Results
     Final NS sqrt iter    5 1.00000000   0.509E-09

     Est. extremal eigenvalues     -0.93680     1.71376  converged:  T
     TRS4 it   1 1.00000000   0.883E+00       0.000       16.128   0.100E-07
     TRS4 it   2 1.00000000   0.622E+00       0.001       32.256   0.100E-07
     TRS4 it   3 1.00000000   0.423E+00       0.001       32.256   0.100E-07
     TRS4 it   4 1.00000000   0.215E+00       0.001       32.256   0.100E-07
     TRS4 it   5 1.00000000   0.691E-01       0.001       32.256   0.100E-07
     TRS4 it   6 1.00000000   0.895E-02       0.001       32.256   0.100E-07
     TRS4 it   7 1.00000000   0.198E-03       0.001       32.256   0.100E-07
     TRS4 it   8 1.00000000   0.136E-06       0.001       32.256   0.100E-07
     TRS4 it   9 1.00000000   0.792E-13       0.001       32.256   0.100E-07
     Final TRS4 iteration    9 1.00000000   0.792E-13
     Chemical potential (mu):       0.01260
 
 PAO| energy:  -7.7988527113262869      penalty:   1.3021550036446100E-005
 PAO|LS| adapt:  T T F
 PAO|LS| adapt: scan_steps:    0.0000000000000000       0.24735877221176805        0.0000000000000000     
 PAO|LS| adapt: energies:   -7.7988460340064183       -7.7988527113262869        0.0000000000000000     
 PAO| ======================= Iteration:        30 =============================

     Lanczos converged:  T threshold:   0.100E-02
     Est. extremal eigenvalues:    0.276E+01   0.180E+00
     Est. condition number :    0.154E+02

 Order=           3
     NS sqrt iter    1 1.00000000   0.704E+00       0.001       59.293
     NS sqrt iter    2 1.00000000   0.328E+00       0.001       99.407
     NS sqrt iter    3 1.00000000   0.749E-01       0.001      101.526
     NS sqrt iter    4 1.00000000   0.185E-02       0.001      101.000
     NS sqrt iter    5 1.00000000   0.585E-07       0.001       67.022
     Symmetrizing Results
     Final NS sqrt iter    5 1.00000000   0.508E-09

     Est. extremal eigenvalues     -0.93680     1.71368  converged:  T
     TRS4 it   1 1.00000000   0.883E+00       0.000       16.128   0.100E-07
     TRS4 it   2 1.00000000   0.622E+00       0.001       32.256   0.100E-07
     TRS4 it   3 1.00000000   0.423E+00       0.001       32.256   0.100E-07
     TRS4 it   4 1.00000000   0.215E+00       0.001       32.256   0.100E-07
     TRS4 it   5 1.00000000   0.690E-01       0.001       32.256   0.100E-07
     TRS4 it   6 1.00000000   0.893E-02       0.001       32.256   0.100E-07
     TRS4 it   7 1.00000000   0.197E-03       0.001       32.256   0.100E-07
     TRS4 it   8 1.00000000   0.134E-06       0.001       32.256   0.100E-07
     TRS4 it   9 1.00000000   0.775E-13       0.001       32.256   0.100E-07
     Final TRS4 iteration    9 1.00000000   0.775E-13
     Chemical potential (mu):       0.01273
 
 PAO| energy:  -7.7988575888895610      penalty:   1.2604795786830048E-005
 PAO|LS| adapt:  T T F
 PAO|LS| adapt: scan_steps:    0.0000000000000000       0.49471754442353610        0.0000000000000000     
 PAO|LS| adapt: energies:   -7.7988460340064183       -7.7988575888895610        0.0000000000000000     
 PAO| ======================= Iteration:        31 =============================

     Lanczos converged:  T threshold:   0.100E-02
     Est. extremal eigenvalues:    0.276E+01   0.180E+00
     Est. condition number :    0.153E+02

 Order=           3
     NS sqrt iter    1 1.00000000   0.704E+00       0.001       59.249
     NS sqrt iter    2 1.00000000   0.328E+00       0.001       99.172
     NS sqrt iter    3 1.00000000   0.748E-01       0.001      102.028
     NS sqrt iter    4 1.00000000   0.184E-02       0.001      101.810
     NS sqrt iter    5 1.00000000   0.583E-07       0.001       66.699
     Symmetrizing Results
     Final NS sqrt iter    5 1.00000000   0.511E-09

     Est. extremal eigenvalues     -0.93681     1.71353  converged:  T
     TRS4 it   1 1.00000000   0.883E+00       0.000       16.128   0.100E-07
     TRS4 it   2 1.00000000   0.622E+00       0.001       32.256   0.100E-07
     TRS4 it   3 1.00000000   0.423E+00       0.001       32.256   0.100E-07
     TRS4 it   4 1.00000000   0.214E+00       0.001       32.256   0.100E-07
     TRS4 it   5 1.00000000   0.688E-01       0.001       32.256   0.100E-07
     TRS4 it   6 1.00000000   0.889E-02       0.001       32.256   0.100E-07
     TRS4 it   7 1.00000000   0.195E-03       0.001       32.256   0.100E-07
     TRS4 it   8 1.00000000   0.131E-06       0.001       32.256   0.100E-07
     TRS4 it   9 1.00000000   0.737E-13       0.001       32.256   0.100E-07
     Final TRS4 iteration    9 1.00000000   0.737E-13
     Chemical potential (mu):       0.01298
 
 PAO| energy:  -7.7988619454012564      penalty:   1.1793827993993978E-005
 PAO|LS| Need extra step
 PAO|LS| adapt:  T T F
 PAO|LS| adapt: scan_steps:    0.0000000000000000       0.98943508884707221        0.0000000000000000     
 PAO|LS| adapt: energies:   -7.7988460340064183       -7.7988619454012564        0.0000000000000000     
 PAO| ======================= Iteration:        32 =============================

     Lanczos converged:  T threshold:   0.100E-02
     Est. extremal eigenvalues:    0.276E+01   0.180E+00
     Est. condition number :    0.153E+02

 Order=           3
[...]
     NS sqrt iter    1 1.00000000   0.631E+00       0.001       64.512
     NS sqrt iter    2 1.00000000   0.274E+00       0.001      110.592
     NS sqrt iter    3 1.00000000   0.483E-01       0.001      110.592
     NS sqrt iter    4 1.00000000   0.744E-03       0.001      110.592
     NS sqrt iter    5 1.00000000   0.542E-08       0.001       38.144
     Symmetrizing Results
     Final NS sqrt iter    5 1.00000000   0.324E-09

     Est. extremal eigenvalues     -0.93649     1.62775  converged:  T
     TRS4 it   1 1.00000000   0.881E+00       0.000       16.128   0.100E-07
     TRS4 it   2 1.00000000   0.632E+00       0.000       32.256   0.100E-07
     TRS4 it   3 1.00000000   0.453E+00       0.000       32.256   0.100E-07
     TRS4 it   4 1.00000000   0.276E+00       0.000       32.256   0.100E-07
     TRS4 it   5 1.00000000   0.135E+00       0.000       32.256   0.100E-07
     TRS4 it   6 1.00000000   0.414E-01       0.000       32.256   0.100E-07
     TRS4 it   7 1.00000000   0.535E-02       0.000       32.256   0.100E-07
     TRS4 it   8 1.00000000   0.120E-03       0.000       32.256   0.100E-07
     TRS4 it   9 1.00000000   0.651E-07       0.000       32.256   0.100E-07
     Final TRS4 iteration    9 1.00000000   0.651E-07
     Chemical potential (mu):      -0.07299
 
 PAO| energy:  -7.7979039203778413      penalty:   2.4469939146168092E-008
 PAO|CG| warming up with steepest descent
 PAO|CG| beta:    0.0000000000000000     
 PAO| norm of gradient:   1.2079395326063007E-004
 PAO| energy improvement:  -4.6961057265093586E-009
 PAO| step    406                   -7.797903920  0.755E-05  0.253E+00     0.051
 PAO| converged after          406  steps :-)
 PAO| Recalculating energy after mixing.

     Lanczos converged:  T threshold:   0.100E-02
     Est. extremal eigenvalues:    0.249E+01   0.191E+00
     Est. condition number :    0.130E+02

 Order=           3
     NS sqrt iter    1 1.00000000   0.631E+00       0.001       64.512
     NS sqrt iter    2 1.00000000   0.274E+00       0.001      110.592
     NS sqrt iter    3 1.00000000   0.483E-01       0.001      110.592
     NS sqrt iter    4 1.00000000   0.744E-03       0.001      110.592
     NS sqrt iter    5 1.00000000   0.542E-08       0.001       38.144
     Symmetrizing Results
     Final NS sqrt iter    5 1.00000000   0.324E-09

     Est. extremal eigenvalues     -0.93649     1.62774  converged:  T
     TRS4 it   1 1.00000000   0.881E+00       0.000       16.128   0.100E-07
     TRS4 it   2 1.00000000   0.632E+00       0.000       32.256   0.100E-07
     TRS4 it   3 1.00000000   0.453E+00       0.000       32.256   0.100E-07
     TRS4 it   4 1.00000000   0.276E+00       0.000       32.256   0.100E-07
     TRS4 it   5 1.00000000   0.135E+00       0.000       32.256   0.100E-07
     TRS4 it   6 1.00000000   0.414E-01       0.000       32.256   0.100E-07
     TRS4 it   7 1.00000000   0.535E-02       0.000       32.256   0.100E-07
     TRS4 it   8 1.00000000   0.120E-03       0.000       32.256   0.100E-07
     TRS4 it   9 1.00000000   0.651E-07       0.000       32.256   0.100E-07
     Final TRS4 iteration    9 1.00000000   0.651E-07
     Chemical potential (mu):      -0.07299
 
 PAO| energy:  -7.7979039192038062      penalty:   2.4721049920358736E-008
 PAO| Writing restart file.
     Est. extremal eigenvalues     -0.93649     1.62774  converged:  T
     TRS4 it   1 1.00000000   0.881E+00       0.000       16.128   0.100E-07
     TRS4 it   2 1.00000000   0.632E+00       0.000       32.256   0.100E-07
     TRS4 it   3 1.00000000   0.453E+00       0.000       32.256   0.100E-07
     TRS4 it   4 1.00000000   0.276E+00       0.000       32.256   0.100E-07
     TRS4 it   5 1.00000000   0.135E+00       0.000       32.256   0.100E-07
     TRS4 it   6 1.00000000   0.414E-01       0.000       32.256   0.100E-07
     TRS4 it   7 1.00000000   0.535E-02       0.000       32.256   0.100E-07
     TRS4 it   8 1.00000000   0.120E-03       0.000       32.256   0.100E-07
     TRS4 it   9 1.00000000   0.651E-07       0.000       32.256   0.100E-07
     Final TRS4 iteration    9 1.00000000   0.651E-07
     Chemical potential (mu):      -0.07299

 SCF     1       -34.450295886       -34.450295886    1.850952

*********************************************************
 Using MIXING_FRACTION=0.450 to mix KS matrix:  iscf=  2
 KS_nw=0.450*KS + 0.550*KS_old
*********************************************************
     Est. extremal eigenvalues     -0.93650     1.62775  converged:  T
     TRS4 it   1 1.00000000   0.881E+00       0.000       16.128   0.100E-07
     TRS4 it   2 1.00000000   0.632E+00       0.000       32.256   0.100E-07
     TRS4 it   3 1.00000000   0.453E+00       0.000       32.256   0.100E-07
     TRS4 it   4 1.00000000   0.276E+00       0.000       32.256   0.100E-07
     TRS4 it   5 1.00000000   0.135E+00       0.000       32.256   0.100E-07
     TRS4 it   6 1.00000000   0.414E-01       0.000       32.256   0.100E-07
     TRS4 it   7 1.00000000   0.535E-02       0.000       32.256   0.100E-07
     TRS4 it   8 1.00000000   0.120E-03       0.000       32.256   0.100E-07
     TRS4 it   9 1.00000000   0.651E-07       0.000       32.256   0.100E-07
     Final TRS4 iteration    9 1.00000000   0.651E-07
     Chemical potential (mu):      -0.07299

 SCF     2       -34.450295886        -0.000000000    1.552672


 SCF run converged in     2 steps.

 PAO| Storing density matrix for ASPC guess in slot:           1

 ENERGY| Total FORCE_EVAL ( QS ) energy [a.u.]:              -34.450295885674535

 -------------------------------------------------------------------------------
 -                                                                             -
 -                                DBCSR STATISTICS                             -
 -                                                                             -
 -------------------------------------------------------------------------------
 COUNTER                                    TOTAL       BLAS       SMM       ACC
 flops     5 x     5 x     4                20000       0.0%    100.0%      0.0%
 flops    13 x     5 x     4                20800       0.0%    100.0%      0.0%
 flops     5 x    13 x     4                20800       0.0%    100.0%      0.0%
 flops    13 x    13 x     4                40560       0.0%    100.0%      0.0%
 flops     4 x     4 x     5              3191040       0.0%    100.0%      0.0%
 flops     5 x     4 x     5              3907200       0.0%    100.0%      0.0%
 flops     4 x     4 x    13              4148352       0.0%    100.0%      0.0%
 flops    13 x     4 x     5              5079360       0.0%    100.0%      0.0%
 flops     5 x     4 x    13              5079360       0.0%    100.0%      0.0%
 flops     5 x     4 x     4              6516800       0.0%    100.0%      0.0%
 flops    13 x     4 x    13              6603168       0.0%    100.0%      0.0%
 flops    13 x     4 x     4              8778016       0.0%    100.0%      0.0%
 flops     4 x     4 x     4            407050112       0.0%    100.0%      0.0%
 flops inhomo. stacks                           0       0.0%      0.0%      0.0%
 flops total                       450.455568E+06       0.0%    100.0%      0.0%
 flops max/rank                    450.455568E+06       0.0%    100.0%      0.0%
 matmuls inhomo. stacks                         0       0.0%      0.0%      0.0%
 matmuls total                            3315992       0.0%    100.0%      0.0%
 number of processed stacks                 26493       0.0%    100.0%      0.0%
 average stack size                                     0.0     125.2       0.0
 marketing flops                   730.892352E+06
 -------------------------------------------------------------------------------
 # multiplications                          22016
 max memory usage/rank             506.249216E+06
 # max total images/rank                        1
 # max 3D layers                                1
 # MPI messages exchanged                       0
 -------------------------------------------------------------------------------

 -------------------------------------------------------------------------------
 -                                                                             -
 -                                DBM STATISTICS                               -
 -                                                                             -
 -------------------------------------------------------------------------------
    M  x    N  x    K                                          COUNT     PERCENT
 -------------------------------------------------------------------------------

 -------------------------------------------------------------------------------
 -                                                                             -
 -                                GRID STATISTICS                              -
 -                                                                             -
 -------------------------------------------------------------------------------
 LP    KERNEL             BACKEND                              COUNT     PERCENT
 2     collocate ortho    REF                                  38100      30.76%
 2     integrate ortho    REF                                  38100      30.76%
 3     collocate ortho    REF                                  19560      15.79%
 3     integrate ortho    REF                                  19560      15.79%
 4     collocate ortho    REF                                   4270       3.45%
 4     integrate ortho    REF                                   4270       3.45%
 0     collocate general  REF                                      6       0.00%
 -------------------------------------------------------------------------------

 MEMORY| Estimated peak process memory [MiB]                                 483

 -------------------------------------------------------------------------------
 -                                                                             -
 -                           R E F E R E N C E S                               -
 -                                                                             -
 -------------------------------------------------------------------------------
 
 CP2K version 2023.1 (Development Version), the CP2K developers group (2023).
 CP2K is freely available from https://www.cp2k.org/ .

 Kuehne,Thomas D.; Iannuzzi,Marcella; Del Ben,Mauro;
 Rybkin,Vladimir V.; Seewald,Patrick; Stein,Frederick; Laino,Teodoro;
 Khaliullin,Rustam Z.; Schuett,Ole; Schiffmann,Florian; Golze,Dorothea;
 Wilhelm,Jan; Chulkov,Sergey; Bani-Hashemian,Mohammad Hossein;
 Weber,Valery; Borstnik,Urban; Taillefumier,Mathieu;
 Jakobovits,Alice Shoshana; Lazzaro,Alfio; Pabst,Hans; Mueller,Tiziano;
 Schade,Robert; Guidon,Manuel; Andermatt,Samuel; Holmberg,Nico;
 Schenter,Gregory K.; Hehn,Anna; Bussy,Augustin; Belleflamme,Fabian;
 Tabacchi,Gloria; Gloess,Andreas; Lass,Michael; Bethune,Iain;
 Mundy,Christopher J.; Plessl,Christian; Watkins,Matt;
 VandeVondele,Joost; Krack,Matthias; Hutter,Juerg. 
 The Journal of Chemical Physics, 152 (19), (2020). 
 CP2K: An electronic structure and molecular dynamics software package -
 Quickstep: Efficient and accurate electronic structure calculations.
 https://doi.org/10.1063/5.0007045

 Schuett, O; VandeVondele, J. 
 Journal of Chemical Theory and Computation, 14, (2018). 
 Machine Learning Adaptive Basis Sets for Efficient Large Scale
 Density Functional Theory Simulation.
 https://doi.org/10.1021/acs.jctc.8b00378

 Schuett, Ole; Messmer, Peter; Hutter, Juerg; VandeVondele, Joost. 
 Electronic Structure Calculations on Graphics Processing Units, John
 Wiley & Sons, Ltd, 173-190 (2016). 
 GPU-Accelerated Sparse Matrix-Matrix Multiplication for
 Linear Scaling Density Functional Theory.
 https://doi.org/10.1002/9781118670712.ch8

 Heinecke, A; Henry, G; Hutchinson, M; Pabst, H. 
 Proceedings of Intl. Supercomputing Conference, 981-991 (2016). 
 LIBXSMM: Accelerating Small Matrix Multiplications
 by Runtime Code Generation.
 https://doi.org/10.1109/SC.2016.83

 Borstnik, U; VandeVondele, J; Weber, V; Hutter, J. 
 PARALLEL COMPUTING, 40 (5-6), 47-58 (2014). 
 Sparse matrix multiplication: The distributed block-compressed sparse
 row library.
 https://doi.org/10.1016/j.parco.2014.03.012

 Hutter, J; Iannuzzi, M; Schiffmann, F; VandeVondele, J. 
 WIREs Comput Mol Sci., 4 (1), 15-25 (2014). 
 CP2K: atomistic simulations of condensed matter systems.
 https://doi.org/10.1002/wcms.1159

 VandeVondele, J; Borstnik, U; Hutter, J. 
 JOURNAL OF CHEMICAL THEORY AND COMPUTATION, 8 (10), 3565-3573 (2012). 
 Linear Scaling Self-Consistent Field Calculations with Millions of Atoms
 in the Condensed Phase.
 https://doi.org/10.1021/ct200897x

 VandeVondele, J; Hutter, J. 
 JOURNAL OF CHEMICAL PHYSICS, 127 (11), 114105 (2007). 
 Gaussian basis sets for accurate calculations on molecular systems in
 gas and condensed phases.
 https://doi.org/10.1063/1.2770708

 Krack, M. 
 THEORETICAL CHEMISTRY ACCOUNTS, 114 (1-3), 145-152 (2005). 
 Pseudopotentials for H to Kr optimized for gradient-corrected
 exchange-correlation functionals.
 https://doi.org/10.1007/s00214-005-0655-y

 VandeVondele, J; Krack, M; Mohamed, F; Parrinello, M; Chassaing, T;
 Hutter, J. COMPUTER PHYSICS COMMUNICATIONS, 167 (2), 103-128 (2005). 
 QUICKSTEP: Fast and accurate density functional calculations using a
 mixed Gaussian and plane waves approach.
 https://doi.org/10.1016/j.cpc.2004.12.014

 Frigo, M; Johnson, SG. 
 PROCEEDINGS OF THE IEEE, 93 (2), 216-231 (2005). 
 The design and implementation of FFTW3.
 https://doi.org/10.1109/JPROC.2004.840301

 Niklasson, AMN; Tymczak, CJ; Challacombe, M. 
 JOURNAL OF CHEMICAL PHYSICS, 118 (19), 8611-8620 (2003). 
 Trace resetting density matrix purification in O(N)
 self-consistent-field theory.
 https://doi.org/10.1063/1.1559913

 Hartwigsen, C; Goedecker, S; Hutter, J. 
 PHYSICAL REVIEW B, 58 (7), 3641-3662 (1998). 
 Relativistic separable dual-space Gaussian pseudopotentials from H to Rn.
 https://doi.org/10.1103/PhysRevB.58.3641

 Lippert, G; Hutter, J; Parrinello, M. 
 MOLECULAR PHYSICS, 92 (3), 477-487 (1997). 
 A hybrid Gaussian and plane wave density functional scheme.
 https://doi.org/10.1080/002689797170220

 Perdew, JP; Burke, K; Ernzerhof, M. 
 PHYSICAL REVIEW LETTERS, 77 (18), 3865-3868 (1996). 
 Generalized gradient approximation made simple.
 https://doi.org/10.1103/PhysRevLett.77.3865

 Goedecker, S; Teter, M; Hutter, J. 
 PHYSICAL REVIEW B, 54 (3), 1703-1710 (1996). 
 Separable dual-space Gaussian pseudopotentials.
 https://doi.org/10.1103/PhysRevB.54.1703


 -------------------------------------------------------------------------------
 -                                                                             -
 -                                T I M I N G                                  -
 -                                                                             -
 -------------------------------------------------------------------------------
 SUBROUTINE                       CALLS  ASD         SELF TIME        TOTAL TIME
                                MAXIMUM       AVERAGE  MAXIMUM  AVERAGE  MAXIMUM
 CP2K                                 1  1.0    0.011    0.011   38.781   38.781
 qs_energies                          1  2.0    0.000    0.000   38.152   38.152
 ls_scf                               1  3.0    0.000    0.000   37.908   37.908
 ls_scf_main                          4  4.0    0.003    0.003   26.260   26.260
 ls_scf_dm_to_ks                      9  5.0    0.000    0.000   26.185   26.185
 qs_ks_update_qs_env                 10  6.0    0.000    0.000   23.811   23.811
 rebuild_ks_matrix                   10  7.0    0.000    0.000   23.811   23.811
 qs_ks_build_kohn_sham_matrix        10  8.0    0.003    0.003   23.811   23.811
 qs_vxc_create                       10  9.0    0.001    0.001   15.458   15.458
 xc_vxc_pw_create                    10 10.0    0.258    0.258   15.457   15.457
 pw_transfer                        191 11.1    0.034    0.034   13.873   13.873
 fft_wrap_pw1pw2                    171 12.3    0.005    0.005   13.459   13.459
 fft_wrap_pw1pw2_200                111 13.7    1.385    1.385   13.088   13.088
 xc_pw_derive                        60 12.0    0.002    0.002   10.061   10.061
 xc_rho_set_and_dset_create          10 11.0    0.346    0.346    8.808    8.808
 pao_update                           4  4.0    0.008    0.008    7.832    7.832
 pao_calc_energy                    409  5.0    0.003    0.003    7.077    7.077
 xc_pw_divergence                    10 11.0    0.001    0.001    6.199    6.199
 qs_rho_update_rho_low               10  6.0    0.000    0.000    6.142    6.142
 calculate_rho_elec                  10  7.0    0.046    0.046    6.142    6.142
 sum_up_and_integrate                10  9.0    0.212    0.212    5.790    5.790
 fft3d_s                            172 14.2    5.716    5.716    5.740    5.740
 dbcsr_multiply_generic           22016  8.4    0.349    0.349    5.623    5.623
 integrate_v_rspace                  10 10.0    0.001    0.001    5.578    5.578
 grid_integrate_task_list            10 11.0    4.113    4.113    4.113    4.113
 pao_guess_initial_P                  1  4.0    0.000    0.000    3.773    3.773
 pao_read_preopt_dm                   1  5.0    0.000    0.000    3.773    3.773
 pao_dm_trs4                        409  6.0    0.002    0.002    3.642    3.642
 grid_collocate_task_list            10  8.0    3.619    3.619    3.619    3.619
 pw_scatter_s                        90 14.7    3.567    3.567    3.567    3.567
 density_matrix_trs4                418  7.0    0.111    0.111    3.497    3.497
 ls_scf_init_matrix_S               413  7.0    0.002    0.002    3.415    3.415
 pao_rebuild_S                      409  6.0    0.001    0.001    3.385    3.385
 matrix_sqrt_Newton_Schulz          413  8.0    0.074    0.074    3.087    3.087
 pw_gather_s                         81 13.8    2.724    2.724    2.724    2.724
 xc_functional_eval                  10 12.0    0.000    0.000    2.718    2.718
 pbe_lda_eval                        10 13.0    2.718    2.718    2.718    2.718
 density_rs2pw                       10  8.0    0.001    0.001    2.477    2.477
 make_m2s                         44032  9.4    0.135    0.135    2.108    2.108
 multiply_cannon                  22016  9.4    0.866    0.866    2.104    2.104
 make_images                      44032 10.4    0.519    0.519    1.865    1.865
 pw_derive                           60 13.0    1.825    1.825    1.825    1.825
 potential_pw2rs                     10 11.0    0.004    0.004    1.464    1.464
 pw_copy                            120 11.8    1.357    1.357    1.357    1.357
 arnoldi_extremal                   831  8.5    0.003    0.003    1.126    1.126
 arnoldi_normal_ev                  831  9.5    0.009    0.009    1.124    1.124
 pw_poisson_solve                    10  9.0    0.181    0.181    1.008    1.008
 build_subspace                     831 10.5    0.045    0.045    0.885    0.885
 pw_axpy                             90 10.3    0.863    0.863    0.863    0.863
 dbcsr_matrix_vector_mult         19930 11.5    0.093    0.093    0.821    0.821
 -------------------------------------------------------------------------------

 The number of warnings for this run is : 0
 
 -------------------------------------------------------------------------------
  **** **** ******  **  PROGRAM ENDED AT                 2023-02-01 10:44:33.990
 ***** ** ***  *** **   PROGRAM RAN ON                                    moritz
 **    ****   ******    PROGRAM RAN BY                                       ole
 ***** **    ** ** **   PROGRAM PROCESS ID                                148488
  **** **  *******  **  PROGRAM STOPPED IN /home/ole/git/pao_ml_equivar/2H2O_rot
                                           ations/rand_00
