6
Properties=species:S:1:pos:R:3 i=0 time=0.0 E=-34.4504806384 pbc="F F F"
O       2.00129435       4.49014887       4.32069384 
H       1.46044636       4.94991573       3.67001198 
H       1.77124654       3.55965585       4.23473024 
O       4.89796130       4.85430820       3.63090653 
H       5.37444756       5.25878467       4.36130685 
H       3.98043313       4.77442624       3.93453446 
