 DBCSR| CPU Multiplication driver                                           XSMM (U)
 DBCSR| Multrec recursion limit                                              512 (U)
 DBCSR| Multiplication stack size                                           1000 (D)
 DBCSR| Maximum elements for images                                    UNLIMITED (U)
 DBCSR| Multiplicative factor virtual images                                   1 (U)
 DBCSR| Use multiplication densification                                       T (D)
 DBCSR| Multiplication size stacks                                             3 (U)
 DBCSR| Use memory pool for CPU allocation                                     F (U)
 DBCSR| Number of 3D layers                                               SINGLE (U)
 DBCSR| Use MPI memory allocation                                              F (U)
 DBCSR| Use RMA algorithm                                                      F (U)
 DBCSR| Use Communication thread                                               T (U)
 DBCSR| Communication thread load                                             87 (D)
 DBCSR| MPI: My process id                                                     0
 DBCSR| MPI: Number of processes                                              32
 DBCSR| OMP: Current number of threads                                         1
 DBCSR| OMP: Max number of threads                                             1
 DBCSR| Split modifier for TAS multiplication algorithm                  1.0E+00 (U)


  **** **** ******  **  PROGRAM STARTED AT               2024-09-23 23:00:36.658
 ***** ** ***  *** **   PROGRAM STARTED ON                                moritz
 **    ****   ******    PROGRAM STARTED BY                                   ole
 ***** **    ** ** **   PROGRAM PROCESS ID                                163901
  **** **  *******  **  PROGRAM STARTED IN /home/ole/git/pao_ml_equivar/64H2O_MD
                                           /Frame0600

 CP2K| version string:                 CP2K version 2024.3 (Development Version)
 CP2K| source code revision number:                                  git:3f890bb
 CP2K| cp2kflags: omp libint fftw3 libxc libgrpp pexsi elpa parallel scalapack c
 CP2K|            osma quip deepmd xsmm plumed2 spglib libdftd4 sirius libvori l
 CP2K|            libbqb libvdwxc hdf5
 CP2K| is freely available from                            https://www.cp2k.org/
 CP2K| Program compiled at                          Mo 23 Sep 2024 17:17:04 CEST
 CP2K| Program compiled on                                                moritz
 CP2K| Program compiled for                                                local
 CP2K| Data directory path                               /home/ole/git/cp2k/data
 CP2K| Input file name                                           64H2O_pao44.inp

 GLOBAL| Force Environment number                                              1
 GLOBAL| Basis set file name                                        BASIS_MOLOPT
 GLOBAL| Potential file name                                      GTH_POTENTIALS
 GLOBAL| MM Potential file name                                     MM_POTENTIAL
 GLOBAL| Coordinate file name                                         coords.xyz
 GLOBAL| Method name                                                        CP2K
 GLOBAL| Project name                                                64H2O_pao44
 GLOBAL| Run type                                                         ENERGY
 GLOBAL| FFT library                                                       FFTW3
 GLOBAL| Diagonalization library                                            ELPA
 GLOBAL| DGEMM library                                                      BLAS
 GLOBAL| Minimum number of eigenvectors for ELPA usage                        16
 GLOBAL| Orthonormality check for eigenvectors                          DISABLED
 GLOBAL| Matrix multiplication library                                     COSMA
 GLOBAL| All-to-all communication in single precision                          F
 GLOBAL| FFTs using library dependent lengths                                  F
 GLOBAL| Grid backend                                                       AUTO
 GLOBAL| Global print level                                                  LOW
 GLOBAL| MPI I/O enabled                                                       T
 GLOBAL| Total number of message passing processes                            32
 GLOBAL| Number of threads for this process                                    1
 GLOBAL| This output is from process                                           0
 GLOBAL| Stack size for threads created by OpenMP (OMP_STACKSIZE)        default
 GLOBAL| CPU model name           AMD Ryzen Threadripper 3970X 32-Core Processor
 GLOBAL| CPUID                                                              1002

 MEMORY| system memory details [Kb]
 MEMORY|                        rank 0           min           max       average
 MEMORY| MemTotal            131752136     131752136     131752136     131752136
 MEMORY| MemFree             114419580     114419580     114419580     114419580
 MEMORY| Buffers               1985496       1985496       1985496       1985496
 MEMORY| Cached                8586708       8586708       8586708       8586708
 MEMORY| Slab                  1635212       1635212       1635212       1635212
 MEMORY| SReclaimable          1141260       1141260       1141260       1141260
 MEMORY| MemLikelyFree       126133044     126133044     126133044     126133044


 GENERATE|  Preliminary Number of Bonds generated:                             0
 GENERATE|  Achieved consistency in connectivity generation.

 *******************************************************************************
 *******************************************************************************
 **                                                                           **
 **     #####                         ##              ##                      **
 **    ##   ##            ##          ##              ##                      **
 **   ##     ##                       ##            ######                    **
 **   ##     ##  ##   ##  ##   #####  ##  ##   ####   ##    #####    #####    **
 **   ##     ##  ##   ##  ##  ##      ## ##   ##      ##   ##   ##  ##   ##   **
 **   ##  ## ##  ##   ##  ##  ##      ####     ###    ##   ######   ######    **
 **    ##  ###   ##   ##  ##  ##      ## ##      ##   ##   ##       ##        **
 **     #######   #####   ##   #####  ##  ##  ####    ##    #####   ##        **
 **           ##                                                    ##        **
 **                                                                           **
 **                                                ... make the atoms dance   **
 **                                                                           **
 **            Copyright (C) by CP2K developers group (2000-2024)             **
 **                      J. Chem. Phys. 152, 194103 (2020)                    **
 **                                                                           **
 *******************************************************************************


 TOTAL NUMBERS AND MAXIMUM NUMBERS

  Total number of            - Atomic kinds:                                   2
                             - Atoms:                                        192
                             - Shell sets:                                   192
                             - Shells:                                       704
                             - Primitive Cartesian functions:               1344
                             - Cartesian basis functions:                   1536
                             - Spherical basis functions:                   1472

  Maximum angular momentum of- Orbital basis functions:                        2
                             - Local part of the GTH pseudopotential:          2
                             - Non-local part of the GTH pseudopotential:      0

 ------------------------------ Linear scaling SCF -----------------------------
 eps_scf:                                                              0.100E-07
 eps_filter:                                                           0.100E-11
 mixing_fraction:                                                      0.450E+00
 max_scf:                                                                     25
 fixed chemical potential (mu)                                                 F
 has unit metric:                                                              F
 Computing inv(S):                                                             T
 Computing sqrt(S):                                                            T
 Computing S preconditioner                                                    F
 S sqrt method:                                                     NEWTONSCHULZ
 S sqrt order:                                                                 3
 Extrapolation order:                                                          1
 S preconditioner type                                                      NONE
 Polarized Atomic Orbitals (PAO)                                               T
 Purification method                                   Trace resetting 4th order
 Cluster type                                                             ATOMIC
 Computing Chebyshev                                                       FALSE
 Using PAO                                                                     T
 -------------------------------------------------------------------------------

 
 PAO|                                  EPS_PAO                           0.5E-06
 PAO|                                  MIXING                            0.5E+00
 PAO|                                  MAX_PAO                              1500
 PAO|                                  MAX_CYCLES                           1000
 PAO|                                  PARAMETERIZATION              EQUIVARIANT
 PAO|                                  PRECONDITION                            F
 PAO|                                  REGULARIZATION                    0.0E+00
 PAO|                                  EPS_PGF                           0.1E-09
 PAO|                                  PENALTY_DISTANCE                  0.1E+00
 PAO|                                  PENALTY_STRENGTH                  0.5E-02
 PAO|                                  LINPOT_PRECONDITION_DELTA         0.0E+00
 PAO|                                  LINPOT_INITGUESS_DELT             0.0E+00
 PAO|                                  LINPOT_REGULARIZATION_DELTA       0.0E+00
 PAO|                                  LINPOT_REGULARIZATION_STRENGTH    0.0E+00
 PAO|                                  OPTIMIZER                              CG
 PAO|                                  CG_INIT_STEPS                           2
 PAO|                                  CG_RESET_LIMIT                    0.1E+00
 PAO|                                  CHECK_UNITARY_TOL                -0.1E+01
 PAO|                                  CHECK_GRADIENT_TOL               -0.1E+01
 PAO|                                  NUM_GRADIENT_ORDER                      2
 PAO|                                  NUM_GRADIENT_EPS                  0.1E-07
 PAO|                                  PRINT%RESTART%WRITE_CYCLES            100
 PAO|                                  RESTART_FILE 
 PAO|                                  PREOPT_DM_FILE 64H2O_ref_LS_DM_SPIN_1_RESTART.dm
 PAO|                                  MACHINE_LEARNING%METHOD       GAUSSIAN_PR
 PAO|                                  MACHINE_LEARNING%PRIOR               ZERO
 PAO|                                  MACHINE_LEARNING%DESCRIPTOR     POTENTIAL
 PAO|                                  MACHINE_LEARNING%TOLERANCE        0.1E-01
 PAO|                                  MACHINE_LEARNING%GP_NOISE_VAR     0.1E+00
 PAO|                                  MACHINE_LEARNING%GP_SCALE         0.5E-01
 

 Calculating atomic Fock matrix for atomic kind: O

 Electronic structure
    Total number of core electrons                                          2.00
    Total number of valence electrons                                       6.00
    Total number of electrons                                               8.00
    Multiplicity                                                   not specified
    S   [  2.00] 2.00
    P      4.00


 *******************************************************************************
                  Iteration          Convergence                     Energy [au]
 *******************************************************************************
                          1        0.708315                     -15.576645311500
                          2        0.608879                     -15.587933561584
                          3        0.102828E-01                 -15.656849565404
                          4        0.113889E-02                 -15.656866888140
                          5        0.434197E-03                 -15.656867072159
                          6        0.263771E-03                 -15.656867091904
                          7        0.478536E-06                 -15.656867103452

 Energy components [Hartree]           Total Energy ::          -15.656867103452
                                        Band Energy ::           -3.000198112285
                                     Kinetic Energy ::           11.759971203220
                                   Potential Energy ::          -27.416838306672
                                      Virial (-V/T) ::            2.331369510426
                                        Core Energy ::          -26.140716385623
                                          XC Energy ::           -3.154051012914
                                     Coulomb Energy ::           13.637900295084
                       Total Pseudopotential Energy ::          -37.935781716540
                       Local Pseudopotential Energy ::          -39.218907440693
                    Nonlocal Pseudopotential Energy ::            1.283125724153
                                        Confinement ::            0.350941276976

 Orbital energies  State     L     Occupation   Energy[a.u.]          Energy[eV]

                       1     0          2.000      -0.864471          -23.523463

                       1     1          4.000      -0.317814           -8.648154


 Total Electron Density at R=0:                                         0.000068

 Calculating atomic Fock matrix for atomic kind: H

 Electronic structure
    Total number of core electrons                                          0.00
    Total number of valence electrons                                       1.00
    Total number of electrons                                               1.00
    Multiplicity                                                   not specified
    S      1.00


 *******************************************************************************
                  Iteration          Convergence                     Energy [au]
 *******************************************************************************
                          1        0.437545E-02                  -0.424159432110
                          2        0.531356E-03                  -0.424178438213
                          3        0.259176E-06                  -0.424178722480

 Energy components [Hartree]           Total Energy ::           -0.424178722480
                                        Band Energy ::           -0.199015229016
                                     Kinetic Energy ::            0.464007633961
                                   Potential Energy ::           -0.888186356441
                                      Virial (-V/T) ::            1.914163240935
                                        Core Energy ::           -0.479160803564
                                          XC Energy ::           -0.244352904054
                                     Coulomb Energy ::            0.299334985138
                       Total Pseudopotential Energy ::           -0.962295316385
                       Local Pseudopotential Energy ::           -0.962295316385
                    Nonlocal Pseudopotential Energy ::            0.000000000000
                                        Confinement ::            0.191268788606

 Orbital energies  State     L     Occupation   Energy[a.u.]          Energy[eV]

                       1     0          1.000      -0.199015           -5.415480


 Total Electron Density at R=0:                                         0.242907
 PAO| Made initial guess for matrix_X with norm:   27.712812921102035     

     Lanczos converged:  T threshold:   0.100E-02
     Est. extremal eigenvalues:    0.616E+01   0.912E-01
     Est. condition number :    0.676E+02

 Order=           3
     NS sqrt iter    1 1.00000000   0.150E+01       0.021     2674.810
     NS sqrt iter    2 1.00000000   0.817E+00       0.034     3354.573
     NS sqrt iter    3 1.00000000   0.328E+00       0.034     3358.681
     NS sqrt iter    4 1.00000000   0.907E-01       0.034     3343.647
     NS sqrt iter    5 1.00000000   0.316E-02       0.034     3372.903
     NS sqrt iter    6 1.00000000   0.253E-06       0.029     2927.186
     Symmetrizing Results
     Final NS sqrt iter    6 1.00000000   0.137E-12

 PAO| Read restart DM 64H2O_ref_LS_DM_SPIN_1_RESTART.dm with checksum:    6204.2895977535536     
 PAO| Quickstep energy from restart density:  -1103.1420399082242     
 PAO| ======================= Iteration:         1 =============================

     Lanczos converged:  T threshold:   0.100E-02
     Est. extremal eigenvalues:    0.616E+01   0.912E-01
     Est. condition number :    0.676E+02

 Order=           3
     NS sqrt iter    1 1.00000000   0.150E+01       0.021     2688.998
     NS sqrt iter    2 1.00000000   0.817E+00       0.034     3366.221
     NS sqrt iter    3 1.00000000   0.328E+00       0.034     3351.355
     NS sqrt iter    4 1.00000000   0.907E-01       0.034     3371.148
     NS sqrt iter    5 1.00000000   0.316E-02       0.034     3332.732
     NS sqrt iter    6 1.00000000   0.253E-06       0.029     2912.648
     Symmetrizing Results
     Final NS sqrt iter    6 1.00000000   0.137E-12

     Est. extremal eigenvalues     -0.81803     2.74127  converged:  T
     TRS4 it   1 1.00000000   0.277E+02       0.007     2097.462   0.100E-11
     TRS4 it   2 1.00000000   0.243E+02       0.013     2188.837   0.100E-11
     TRS4 it   3 1.00000000   0.161E+02       0.013     2190.084   0.100E-11
     TRS4 it   4 1.00000000   0.101E+02       0.013     2176.005   0.100E-11
     TRS4 it   5 1.00000000   0.486E+01       0.013     2200.966   0.100E-11
     TRS4 it   6 1.00000000   0.162E+01       0.013     2188.873   0.100E-11
     TRS4 it   7 1.00000000   0.319E+00       0.013     2182.921   0.100E-11
     TRS4 it   8 1.00000000   0.226E-01       0.013     2198.017   0.100E-11
     TRS4 it   9 1.00000000   0.222E-03       0.013     2194.745   0.100E-11
     TRS4 it  10 1.00000000   0.314E-07       0.013     2202.479   0.100E-11
     TRS4 it  11 1.00000000   0.355E-14       0.013     2212.903   0.100E-11
     Final TRS4 iteration   11 1.00000000   0.355E-14
     Chemical potential (mu):       0.01224
 
 PAO| energy:  -186.06037284526244      penalty:   1.3712621204037119E-031
 PAO|CG| warming up with steepest descent
 PAO|CG| beta:    0.0000000000000000     
 PAO| norm of gradient:   3.9865910212015407     
 PAO|LS| adapt:  T F F
 PAO|LS| adapt: scan_steps:    0.0000000000000000        0.0000000000000000        0.0000000000000000     
 PAO|LS| adapt: energies:   -186.06037284526244        0.0000000000000000        0.0000000000000000     
 PAO| ======================= Iteration:         2 =============================

     Lanczos converged:  T threshold:   0.100E-02
     Est. extremal eigenvalues:    0.594E+01   0.973E-01
     Est. condition number :    0.610E+02

 Order=           3
     NS sqrt iter    1 1.00000000   0.146E+01       0.021     2681.462
     NS sqrt iter    2 1.00000000   0.786E+00       0.034     3362.680
     NS sqrt iter    3 1.00000000   0.307E+00       0.034     3373.567
     NS sqrt iter    4 1.00000000   0.759E-01       0.034     3362.632
     NS sqrt iter    5 1.00000000   0.195E-02       0.034     3371.097
     NS sqrt iter    6 1.00000000   0.723E-07       0.029     2941.455
     Symmetrizing Results
     Final NS sqrt iter    6 1.00000000   0.205E-13

     Est. extremal eigenvalues     -0.82122     2.72200  converged:  T
     TRS4 it   1 1.00000000   0.279E+02       0.007     2127.946   0.100E-11
     TRS4 it   2 1.00000000   0.242E+02       0.013     2186.488   0.100E-11
     TRS4 it   3 1.00000000   0.160E+02       0.013     2198.514   0.100E-11
     TRS4 it   4 1.00000000   0.986E+01       0.013     2178.446   0.100E-11
     TRS4 it   5 1.00000000   0.465E+01       0.013     2202.901   0.100E-11
     TRS4 it   6 1.00000000   0.149E+01       0.013     2198.796   0.100E-11
     TRS4 it   7 1.00000000   0.273E+00       0.013     2205.730   0.100E-11
     TRS4 it   8 1.00000000   0.162E-01       0.013     2192.292   0.100E-11
     TRS4 it   9 1.00000000   0.103E-03       0.013     2188.726   0.100E-11
     TRS4 it  10 1.00000000   0.785E-08       0.013     2176.028   0.100E-11
     TRS4 it  11 1.00000000   0.107E-13       0.013     2191.612   0.100E-11
     Final TRS4 iteration   11 1.00000000   0.107E-13
     Chemical potential (mu):       0.01829
 
 PAO| energy:  -187.51873922545479      penalty:   4.7533672629203584E-007
 PAO|LS| adapt:  T T F
 PAO|LS| adapt: scan_steps:    0.0000000000000000       0.10000000000000001        0.0000000000000000     
 PAO|LS| adapt: energies:   -186.06037284526244       -187.51873922545479        0.0000000000000000     
 PAO| ======================= Iteration:         3 =============================

     Lanczos converged:  T threshold:   0.100E-02
     Est. extremal eigenvalues:    0.571E+01   0.103E+00
     Est. condition number :    0.555E+02

 Order=           3
     NS sqrt iter    1 1.00000000   0.141E+01       0.021     2693.026
     NS sqrt iter    2 1.00000000   0.756E+00       0.034     3358.680
     NS sqrt iter    3 1.00000000   0.286E+00       0.034     3361.790
     NS sqrt iter    4 1.00000000   0.633E-01       0.034     3378.685
     NS sqrt iter    5 1.00000000   0.121E-02       0.034     3366.344
     NS sqrt iter    6 1.00000000   0.213E-07       0.029     2895.278
     Symmetrizing Results
     Final NS sqrt iter    6 1.00000000   0.348E-14

     Est. extremal eigenvalues     -0.82427     2.70522  converged:  T
     TRS4 it   1 1.00000000   0.281E+02       0.007     2137.610   0.100E-11
     TRS4 it   2 1.00000000   0.241E+02       0.013     2195.407   0.100E-11
     TRS4 it   3 1.00000000   0.159E+02       0.013     2199.141   0.100E-11
     TRS4 it   4 1.00000000   0.967E+01       0.013     2207.020   0.100E-11
     TRS4 it   5 1.00000000   0.444E+01       0.013     2210.254   0.100E-11
     TRS4 it   6 1.00000000   0.136E+01       0.013     2182.059   0.100E-11
     TRS4 it   7 1.00000000   0.232E+00       0.013     2201.073   0.100E-11
     TRS4 it   8 1.00000000   0.112E-01       0.013     2197.368   0.100E-11
     TRS4 it   9 1.00000000   0.445E-04       0.013     2207.916   0.100E-11
     TRS4 it  10 1.00000000   0.167E-08       0.013     2185.538   0.100E-11
     TRS4 it  11 1.00000000   0.107E-13       0.013     2187.490   0.100E-11
     Final TRS4 iteration   11 1.00000000   0.107E-13
     Chemical potential (mu):       0.02534
 
 PAO| energy:  -188.69886844642150      penalty:   7.6053876206931224E-006
 PAO|LS| adapt:  T T F
 PAO|LS| adapt: scan_steps:    0.0000000000000000       0.20000000000000001        0.0000000000000000     
 PAO|LS| adapt: energies:   -186.06037284526244       -188.69886844642150        0.0000000000000000     
 PAO| ======================= Iteration:         4 =============================

     Lanczos converged:  T threshold:   0.100E-02
     Est. extremal eigenvalues:    0.528E+01   0.113E+00
     Est. condition number :    0.467E+02

 Order=           3
     NS sqrt iter    1 1.00000000   0.132E+01       0.021     2690.597
     NS sqrt iter    2 1.00000000   0.697E+00       0.034     3362.572
     NS sqrt iter    3 1.00000000   0.248E+00       0.034     3367.997
     NS sqrt iter    4 1.00000000   0.438E-01       0.034     3362.005
     NS sqrt iter    5 1.00000000   0.483E-03       0.034     3367.718
     NS sqrt iter    6 1.00000000   0.182E-08       0.032     2577.612
     Symmetrizing Results
     Final NS sqrt iter    6 1.00000000   0.163E-13

     Est. extremal eigenvalues     -0.82942     2.67859  converged:  T
     TRS4 it   1 1.00000000   0.284E+02       0.008     1709.545   0.100E-11
     TRS4 it   2 1.00000000   0.240E+02       0.016     1796.514   0.100E-11
     TRS4 it   3 1.00000000   0.157E+02       0.016     1773.774   0.100E-11
     TRS4 it   4 1.00000000   0.934E+01       0.016     1778.777   0.100E-11
     TRS4 it   5 1.00000000   0.408E+01       0.016     1782.661   0.100E-11
     TRS4 it   6 1.00000000   0.115E+01       0.016     1771.451   0.100E-11
     TRS4 it   7 1.00000000   0.165E+00       0.015     1910.928   0.100E-11
     TRS4 it   8 1.00000000   0.521E-02       0.013     2198.970   0.100E-11
     TRS4 it   9 1.00000000   0.772E-05       0.013     2199.165   0.100E-11
     TRS4 it  10 1.00000000   0.525E-10       0.013     2197.827   0.100E-11
     Final TRS4 iteration   10 1.00000000   0.525E-10
     Chemical potential (mu):       0.04430
 
 PAO| energy:  -190.18270813219524      penalty:   1.2168620193125569E-004
 PAO|LS| Need extra step
 PAO|LS| adapt:  T T F
 PAO|LS| adapt: scan_steps:    0.0000000000000000       0.40000000000000002        0.0000000000000000     
 PAO|LS| adapt: energies:   -186.06037284526244       -190.18270813219524        0.0000000000000000     
 PAO| ======================= Iteration:         5 =============================

     Lanczos converged:  T threshold:   0.100E-02
     Est. extremal eigenvalues:    0.463E+01   0.129E+00
     Est. condition number :    0.358E+02

 Order=           3
     NS sqrt iter    1 1.00000000   0.120E+01       0.021     2667.519
     NS sqrt iter    2 1.00000000   0.609E+00       0.033     3390.623
     NS sqrt iter    3 1.00000000   0.191E+00       0.034     3355.222
     NS sqrt iter    4 1.00000000   0.228E-01       0.034     3332.076
     NS sqrt iter    5 1.00000000   0.915E-04       0.034     3374.275
     NS sqrt iter    6 1.00000000   0.180E-10       0.017     2170.248
     Symmetrizing Results
     Final NS sqrt iter    6 1.00000000   0.198E-11

     Est. extremal eigenvalues     -0.83323     2.64551  converged:  T
     TRS4 it   1 1.00000000   0.289E+02       0.007     2136.676   0.100E-11
     TRS4 it   2 1.00000000   0.238E+02       0.013     2208.803   0.100E-11
     TRS4 it   3 1.00000000   0.154E+02       0.013     2197.177   0.100E-11
     TRS4 it   4 1.00000000   0.884E+01       0.013     2184.689   0.100E-11
     TRS4 it   5 1.00000000   0.356E+01       0.013     2168.046   0.100E-11
     TRS4 it   6 1.00000000   0.851E+00       0.013     2183.742   0.100E-11
     TRS4 it   7 1.00000000   0.898E-01       0.013     2204.934   0.100E-11
     TRS4 it   8 1.00000000   0.144E-02       0.013     2181.786   0.100E-11
     TRS4 it   9 1.00000000   0.590E-06       0.013     2208.304   0.100E-11
     TRS4 it  10 1.00000000   0.359E-12       0.013     2207.017   0.100E-11
     Final TRS4 iteration   10 1.00000000   0.359E-12
     Chemical potential (mu):       0.06667
 
 PAO| energy:  -189.77820479926575      penalty:   1.9469792309014182E-003
 PAO|LS| Need extra step
 PAO|LS| adapt:  T T T
 PAO|LS| adapt: scan_steps:    0.0000000000000000       0.40000000000000002       0.80000000000000004     
 PAO|LS| adapt: energies:   -186.06037284526244       -190.18270813219524       -189.77820479926575     
 PAO|LS| adapt: suggested step_size:   0.56425732243648696     
 PAO|LS| adapt: predicted energy  -190.56438383346611     
 PAO| ======================= Iteration:         6 =============================

     Lanczos converged:  T threshold:   0.100E-02
     Est. extremal eigenvalues:    0.497E+01   0.120E+00
     Est. condition number :    0.413E+02

 Order=           3
     NS sqrt iter    1 1.00000000   0.126E+01       0.021     2701.264
     NS sqrt iter    2 1.00000000   0.656E+00       0.034     3350.917
     NS sqrt iter    3 1.00000000   0.221E+00       0.034     3372.570
     NS sqrt iter    4 1.00000000   0.329E-01       0.034     3347.090
     NS sqrt iter    5 1.00000000   0.235E-03       0.034     3364.586
     NS sqrt iter    6 1.00000000   0.251E-09       0.028     2666.338
     Symmetrizing Results
     Final NS sqrt iter    6 1.00000000   0.595E-12

     Est. extremal eigenvalues     -0.83219     2.66249  converged:  T
     TRS4 it   1 1.00000000   0.286E+02       0.007     2138.320   0.100E-11
     TRS4 it   2 1.00000000   0.239E+02       0.013     2200.632   0.100E-11
     TRS4 it   3 1.00000000   0.156E+02       0.013     2214.844   0.100E-11
     TRS4 it   4 1.00000000   0.911E+01       0.013     2210.187   0.100E-11
     TRS4 it   5 1.00000000   0.384E+01       0.013     2177.958   0.100E-11
     TRS4 it   6 1.00000000   0.100E+01       0.013     2203.730   0.100E-11
     TRS4 it   7 1.00000000   0.125E+00       0.013     2195.216   0.100E-11
     TRS4 it   8 1.00000000   0.288E-02       0.013     2191.462   0.100E-11
     TRS4 it   9 1.00000000   0.224E-05       0.013     2180.745   0.100E-11
     TRS4 it  10 1.00000000   0.440E-11       0.013     2211.323   0.100E-11
     Final TRS4 iteration   10 1.00000000   0.440E-11
     Chemical potential (mu):       0.05509
 
 PAO| energy:  -190.53724086264137      penalty:   4.8184813848846538E-004
 PAO|CG| warming up with steepest descent
 PAO|CG| beta:    0.0000000000000000     
 PAO| norm of gradient:   2.1064085029351109     
 PAO| energy improvement:  -4.4768680173789335     
 PAO| step      6                 -190.537240863  0.411E-02  0.564E+00     2.419
 PAO|LS| adapt:  T F F
 PAO|LS| adapt: scan_steps:    0.0000000000000000        0.0000000000000000        0.0000000000000000     
 PAO|LS| adapt: energies:   -190.53724086264137        0.0000000000000000        0.0000000000000000     
 PAO| ======================= Iteration:         7 =============================

     Lanczos converged:  T threshold:   0.100E-02
     Est. extremal eigenvalues:    0.482E+01   0.128E+00
     Est. condition number :    0.378E+02

 Order=           3
     NS sqrt iter    1 1.00000000   0.123E+01       0.021     2685.796
     NS sqrt iter    2 1.00000000   0.631E+00       0.034     3368.284
     NS sqrt iter    3 1.00000000   0.204E+00       0.034     3373.443
     NS sqrt iter    4 1.00000000   0.265E-01       0.033     3381.074
     NS sqrt iter    5 1.00000000   0.132E-03       0.034     3338.565
     NS sqrt iter    6 1.00000000   0.487E-10       0.022     2312.174
     Symmetrizing Results
     Final NS sqrt iter    6 1.00000000   0.223E-11

     Est. extremal eigenvalues     -0.83244     2.66205  converged:  T
     TRS4 it   1 1.00000000   0.287E+02       0.007     2149.684   0.100E-11
     TRS4 it   2 1.00000000   0.240E+02       0.013     2170.233   0.100E-11
     TRS4 it   3 1.00000000   0.157E+02       0.013     2205.098   0.100E-11
     TRS4 it   4 1.00000000   0.924E+01       0.013     2205.265   0.100E-11
     TRS4 it   5 1.00000000   0.393E+01       0.013     2186.650   0.100E-11
     TRS4 it   6 1.00000000   0.103E+01       0.013     2209.060   0.100E-11
     TRS4 it   7 1.00000000   0.127E+00       0.013     2206.613   0.100E-11
     TRS4 it   8 1.00000000   0.290E-02       0.013     2202.975   0.100E-11
     TRS4 it   9 1.00000000   0.232E-05       0.013     2193.451   0.100E-11
     TRS4 it  10 1.00000000   0.488E-11       0.013     2231.090   0.100E-11
     Final TRS4 iteration   10 1.00000000   0.488E-11
     Chemical potential (mu):       0.05707
 
 PAO| energy:  -189.62923208537904      penalty:   6.9011632645786677E-004
 PAO|LS| adapt:  T F T
 PAO|LS| adapt: scan_steps:    0.0000000000000000        0.0000000000000000       0.56425732243648696     
 PAO|LS| adapt: energies:   -190.53724086264137        0.0000000000000000       -189.62923208537904     
 PAO| ======================= Iteration:         8 =============================

     Lanczos converged:  T threshold:   0.100E-02
     Est. extremal eigenvalues:    0.489E+01   0.124E+00
     Est. condition number :    0.395E+02

 Order=           3
     NS sqrt iter    1 1.00000000   0.125E+01       0.021     2700.877
     NS sqrt iter    2 1.00000000   0.643E+00       0.034     3374.332
     NS sqrt iter    3 1.00000000   0.212E+00       0.034     3354.391
     NS sqrt iter    4 1.00000000   0.296E-01       0.034     3350.724
     NS sqrt iter    5 1.00000000   0.176E-03       0.034     3365.853
     NS sqrt iter    6 1.00000000   0.113E-09       0.026     2511.281
     Symmetrizing Results
     Final NS sqrt iter    6 1.00000000   0.160E-11

     Est. extremal eigenvalues     -0.83333     2.66343  converged:  T
     TRS4 it   1 1.00000000   0.287E+02       0.007     2114.860   0.100E-11
     TRS4 it   2 1.00000000   0.239E+02       0.013     2204.225   0.100E-11
     TRS4 it   3 1.00000000   0.156E+02       0.013     2197.433   0.100E-11
     TRS4 it   4 1.00000000   0.914E+01       0.013     2210.021   0.100E-11
     TRS4 it   5 1.00000000   0.386E+01       0.013     2211.359   0.100E-11
     TRS4 it   6 1.00000000   0.101E+01       0.013     2201.986   0.100E-11
     TRS4 it   7 1.00000000   0.125E+00       0.013     2197.089   0.100E-11
     TRS4 it   8 1.00000000   0.287E-02       0.013     2207.683   0.100E-11
     TRS4 it   9 1.00000000   0.229E-05       0.013     2199.518   0.100E-11
     TRS4 it  10 1.00000000   0.483E-11       0.013     2198.903   0.100E-11
     Final TRS4 iteration   10 1.00000000   0.483E-11
     Chemical potential (mu):       0.05520
 
 PAO| energy:  -190.92250789958715      penalty:   5.1311697885309513E-004
 PAO|LS| adapt:  T T T
 PAO|LS| adapt: scan_steps:    0.0000000000000000       0.28212866121824348       0.56425732243648696     
 PAO|LS| adapt: energies:   -190.53724086264137       -190.92250789958715       -189.62923208537904     
 PAO|LS| adapt: suggested step_size:   0.20581982569243853     
 PAO|LS| adapt: predicted energy  -190.98390638719638     
 PAO| ======================= Iteration:         9 =============================

     Lanczos converged:  T threshold:   0.100E-02
     Est. extremal eigenvalues:    0.491E+01   0.123E+00
     Est. condition number :    0.400E+02

 Order=           3
     NS sqrt iter    1 1.00000000   0.125E+01       0.021     2695.062
     NS sqrt iter    2 1.00000000   0.647E+00       0.034     3364.275
     NS sqrt iter    3 1.00000000   0.215E+00       0.034     3338.229
     NS sqrt iter    4 1.00000000   0.304E-01       0.033     3384.511
     NS sqrt iter    5 1.00000000   0.191E-03       0.034     3349.213
     NS sqrt iter    6 1.00000000   0.141E-09       0.027     2523.412
     Symmetrizing Results
     Final NS sqrt iter    6 1.00000000   0.132E-11

     Est. extremal eigenvalues     -0.83323     2.66343  converged:  T
     TRS4 it   1 1.00000000   0.286E+02       0.007     2115.004   0.100E-11
     TRS4 it   2 1.00000000   0.239E+02       0.013     2219.483   0.100E-11
     TRS4 it   3 1.00000000   0.156E+02       0.013     2202.504   0.100E-11
     TRS4 it   4 1.00000000   0.912E+01       0.013     2199.117   0.100E-11
     TRS4 it   5 1.00000000   0.385E+01       0.013     2209.903   0.100E-11
     TRS4 it   6 1.00000000   0.100E+01       0.013     2211.257   0.100E-11
     TRS4 it   7 1.00000000   0.125E+00       0.013     2207.208   0.100E-11
     TRS4 it   8 1.00000000   0.287E-02       0.013     2167.003   0.100E-11
     TRS4 it   9 1.00000000   0.228E-05       0.013     2193.000   0.100E-11
     TRS4 it  10 1.00000000   0.474E-11       0.013     2183.298   0.100E-11
     Final TRS4 iteration   10 1.00000000   0.474E-11
     Chemical potential (mu):       0.05500
 
 PAO| energy:  -190.98824014466851      penalty:   4.9505718085387281E-004
 PAO|CG| trace_G_new   0.74145171712096503     
 PAO|CG| trace_G_prev    4.4369567812373347     
 PAO|CG| trace_G_mix   -4.3549044927944404E-002
 PAO|CG| trace_D    4.4369567812373347     
 PAO|CG| trace_D_Gnew   4.3549044927944404E-002
 PAO|CG| beta:   0.17692323832597626     
 PAO| norm of gradient:  0.86107590671262257     
 PAO| energy improvement: -0.45099928202714068     
 PAO| step      9                 -190.988240145  0.168E-02  0.206E+00     1.470
 PAO|LS| adapt:  T F F
 PAO|LS| adapt: scan_steps:    0.0000000000000000        0.0000000000000000        0.0000000000000000     
 PAO|LS| adapt: energies:   -190.98824014466851        0.0000000000000000        0.0000000000000000     
 PAO| ======================= Iteration:        10 =============================

     Lanczos converged:  T threshold:   0.100E-02
     Est. extremal eigenvalues:    0.486E+01   0.126E+00
     Est. condition number :    0.387E+02

 Order=           3
     NS sqrt iter    1 1.00000000   0.124E+01       0.021     2685.698
     NS sqrt iter    2 1.00000000   0.638E+00       0.034     3314.976
     NS sqrt iter    3 1.00000000   0.209E+00       0.034     3348.186
     NS sqrt iter    4 1.00000000   0.282E-01       0.034     3342.972
     NS sqrt iter    5 1.00000000   0.153E-03       0.034     3371.358
     NS sqrt iter    6 1.00000000   0.744E-10       0.024     2408.440
     Symmetrizing Results
     Final NS sqrt iter    6 1.00000000   0.201E-11

     Est. extremal eigenvalues     -0.83374     2.65669  converged:  T
     TRS4 it   1 1.00000000   0.287E+02       0.007     2131.312   0.100E-11
     TRS4 it   2 1.00000000   0.239E+02       0.013     2193.740   0.100E-11
     TRS4 it   3 1.00000000   0.156E+02       0.013     2191.735   0.100E-11
     TRS4 it   4 1.00000000   0.911E+01       0.013     2212.364   0.100E-11
     TRS4 it   5 1.00000000   0.383E+01       0.013     2219.606   0.100E-11
     TRS4 it   6 1.00000000   0.991E+00       0.013     2220.129   0.100E-11
     TRS4 it   7 1.00000000   0.122E+00       0.013     2201.477   0.100E-11
     TRS4 it   8 1.00000000   0.272E-02       0.013     2207.780   0.100E-11
     TRS4 it   9 1.00000000   0.206E-05       0.013     2189.487   0.100E-11
     TRS4 it  10 1.00000000   0.399E-11       0.013     2194.253   0.100E-11
     Final TRS4 iteration   10 1.00000000   0.399E-11
     Chemical potential (mu):       0.05585
 
 PAO| energy:  -191.09012853409067      penalty:   4.9810978699860197E-004
 PAO|LS| adapt:  T T F
 PAO|LS| adapt: scan_steps:    0.0000000000000000       0.20581982569243853        0.0000000000000000     
 PAO|LS| adapt: energies:   -190.98824014466851       -191.09012853409067        0.0000000000000000     
 PAO| ======================= Iteration:        11 =============================

     Lanczos converged:  T threshold:   0.100E-02
     Est. extremal eigenvalues:    0.481E+01   0.128E+00
     Est. condition number :    0.375E+02

 Order=           3
     NS sqrt iter    1 1.00000000   0.123E+01       0.021     2699.260
     NS sqrt iter    2 1.00000000   0.630E+00       0.034     3370.608
     NS sqrt iter    3 1.00000000   0.204E+00       0.034     3358.004
     NS sqrt iter    4 1.00000000   0.262E-01       0.034     3353.478
     NS sqrt iter    5 1.00000000   0.122E-03       0.034     3351.489
     NS sqrt iter    6 1.00000000   0.390E-10       0.020     2258.131
     Symmetrizing Results
     Final NS sqrt iter    6 1.00000000   0.230E-11

     Est. extremal eigenvalues     -0.83397     2.64948  converged:  T
     TRS4 it   1 1.00000000   0.287E+02       0.007     2118.891   0.100E-11
     TRS4 it   2 1.00000000   0.239E+02       0.013     2202.105   0.100E-11
     TRS4 it   3 1.00000000   0.156E+02       0.013     2218.900   0.100E-11
     TRS4 it   4 1.00000000   0.909E+01       0.013     2189.823   0.100E-11
     TRS4 it   5 1.00000000   0.381E+01       0.013     2199.622   0.100E-11
     TRS4 it   6 1.00000000   0.978E+00       0.013     2204.329   0.100E-11
     TRS4 it   7 1.00000000   0.118E+00       0.013     2177.931   0.100E-11
     TRS4 it   8 1.00000000   0.256E-02       0.013     2205.612   0.100E-11
     TRS4 it   9 1.00000000   0.185E-05       0.013     2207.323   0.100E-11
     TRS4 it  10 1.00000000   0.326E-11       0.013     2195.672   0.100E-11
     Final TRS4 iteration   10 1.00000000   0.326E-11
     Chemical potential (mu):       0.05676
 
 PAO| energy:  -191.09646793336140      penalty:   5.1141069559590532E-004
 PAO|LS| adapt:  T T F
 PAO|LS| adapt: scan_steps:    0.0000000000000000       0.41163965138487707        0.0000000000000000     
 PAO|LS| adapt: energies:   -190.98824014466851       -191.09646793336140        0.0000000000000000     
 PAO| ======================= Iteration:        12 =============================

     Lanczos converged:  T threshold:   0.100E-02
     Est. extremal eigenvalues:    0.472E+01   0.134E+00
     Est. condition number :    0.352E+02

 Order=           3
     NS sqrt iter    1 1.00000000   0.121E+01       0.021     2685.727
     NS sqrt iter    2 1.00000000   0.614E+00       0.034     3378.120
     NS sqrt iter    3 1.00000000   0.193E+00       0.034     3358.008
     NS sqrt iter    4 1.00000000   0.225E-01       0.034     3377.678
     NS sqrt iter    5 1.00000000   0.777E-04       0.034     3362.423
     NS sqrt iter    6 1.00000000   0.104E-10       0.015     2126.893
     Symmetrizing Results
     Final NS sqrt iter    6 1.00000000   0.157E-11

     Est. extremal eigenvalues     -0.83361     2.63410  converged:  T
     TRS4 it   1 1.00000000   0.287E+02       0.007     2168.765   0.100E-11
     TRS4 it   2 1.00000000   0.238E+02       0.013     2188.465   0.100E-11
     TRS4 it   3 1.00000000   0.155E+02       0.013     2197.245   0.100E-11
     TRS4 it   4 1.00000000   0.905E+01       0.013     2227.225   0.100E-11
     TRS4 it   5 1.00000000   0.376E+01       0.013     2204.403   0.100E-11
     TRS4 it   6 1.00000000   0.948E+00       0.013     2190.767   0.100E-11
     TRS4 it   7 1.00000000   0.110E+00       0.013     2212.423   0.100E-11
     TRS4 it   8 1.00000000   0.223E-02       0.013     2207.570   0.100E-11
     TRS4 it   9 1.00000000   0.144E-05       0.013     2193.563   0.100E-11
     TRS4 it  10 1.00000000   0.203E-11       0.013     2185.912   0.100E-11
     Final TRS4 iteration   10 1.00000000   0.203E-11
     Chemical potential (mu):       0.05875
 
 PAO| energy:  -190.83982692982664      penalty:   5.7643215607608184E-004
 PAO|LS| Need extra step
 PAO|LS| adapt:  T T T
 PAO|LS| adapt: scan_steps:    0.0000000000000000       0.41163965138487707       0.82327930276975414     
 PAO|LS| adapt: energies:   -190.98824014466851       -191.09646793336140       -190.83982692982664     
 PAO|LS| adapt: suggested step_size:   0.32792083886952850     
 PAO|LS| adapt: predicted energy  -191.10401396182729     
 PAO| ======================= Iteration:        13 =============================

     Lanczos converged:  T threshold:   0.100E-02
     Est. extremal eigenvalues:    0.483E+01   0.127E+00
     Est. condition number :    0.380E+02

 Order=           3
     NS sqrt iter    1 1.00000000   0.124E+01       0.021     2680.438
     NS sqrt iter    2 1.00000000   0.633E+00       0.034     3375.511
     NS sqrt iter    3 1.00000000   0.206E+00       0.034     3364.346
     NS sqrt iter    4 1.00000000   0.270E-01       0.034     3365.453
     NS sqrt iter    5 1.00000000   0.134E-03       0.034     3375.908
     NS sqrt iter    6 1.00000000   0.508E-10       0.022     2329.059
     Symmetrizing Results
     Final NS sqrt iter    6 1.00000000   0.225E-11

     Est. extremal eigenvalues     -0.83391     2.65246  converged:  T
     TRS4 it   1 1.00000000   0.287E+02       0.007     2159.503   0.100E-11
     TRS4 it   2 1.00000000   0.239E+02       0.013     2200.054   0.100E-11
     TRS4 it   3 1.00000000   0.156E+02       0.013     2210.861   0.100E-11
     TRS4 it   4 1.00000000   0.910E+01       0.013     2200.365   0.100E-11
     TRS4 it   5 1.00000000   0.382E+01       0.013     2203.041   0.100E-11
     TRS4 it   6 1.00000000   0.984E+00       0.013     2234.825   0.100E-11
     TRS4 it   7 1.00000000   0.119E+00       0.013     2196.409   0.100E-11
     TRS4 it   8 1.00000000   0.262E-02       0.013     2188.363   0.100E-11
     TRS4 it   9 1.00000000   0.193E-05       0.013     2192.667   0.100E-11
     TRS4 it  10 1.00000000   0.353E-11       0.013     2218.004   0.100E-11
     Final TRS4 iteration   10 1.00000000   0.353E-11
     Chemical potential (mu):       0.05638
 
 PAO| energy:  -191.10514869292925      penalty:   5.0467535120887915E-004
 PAO|CG| trace_G_new   0.28135190080922717     
 PAO|CG| trace_G_prev   0.74145171712096503     
 PAO|CG| trace_G_mix   -1.2331985131259023E-002
 PAO|CG| trace_D   0.86492691792170673     
 PAO|CG| trace_D_Gnew   1.2317741551902423E-002
 PAO|CG| beta:   0.39609306871774741     
 PAO| norm of gradient:  0.53042615019362227     
 PAO| energy improvement: -0.11690854826073860     
 PAO| step     13                 -191.105148693  0.104E-02  0.328E+00     1.889
 PAO|LS| adapt:  T F F
 PAO|LS| adapt: scan_steps:    0.0000000000000000        0.0000000000000000        0.0000000000000000     
 PAO|LS| adapt: energies:   -191.10514869292925        0.0000000000000000        0.0000000000000000     
 PAO| ======================= Iteration:        14 =============================

     Lanczos converged:  T threshold:   0.100E-02
     Est. extremal eigenvalues:    0.477E+01   0.130E+00
     Est. condition number :    0.368E+02

 Order=           3
     NS sqrt iter    1 1.00000000   0.122E+01       0.021     2714.129
     NS sqrt iter    2 1.00000000   0.623E+00       0.033     3381.591
     NS sqrt iter    3 1.00000000   0.199E+00       0.034     3353.755
     NS sqrt iter    4 1.00000000   0.249E-01       0.034     3359.207
     NS sqrt iter    5 1.00000000   0.107E-03       0.034     3371.877
     NS sqrt iter    6 1.00000000   0.271E-10       0.018     2188.798
     Symmetrizing Results
     Final NS sqrt iter    6 1.00000000   0.216E-11

     Est. extremal eigenvalues     -0.83429     2.64643  converged:  T
     TRS4 it   1 1.00000000   0.287E+02       0.007     2115.850   0.100E-11
     TRS4 it   2 1.00000000   0.238E+02       0.013     2215.927   0.100E-11
     TRS4 it   3 1.00000000   0.155E+02       0.013     2207.912   0.100E-11
     TRS4 it   4 1.00000000   0.905E+01       0.013     2195.307   0.100E-11
     TRS4 it   5 1.00000000   0.376E+01       0.013     2199.598   0.100E-11
     TRS4 it   6 1.00000000   0.953E+00       0.013     2206.573   0.100E-11
     TRS4 it   7 1.00000000   0.112E+00       0.013     2187.357   0.100E-11
     TRS4 it   8 1.00000000   0.231E-02       0.013     2221.340   0.100E-11
     TRS4 it   9 1.00000000   0.153E-05       0.013     2205.206   0.100E-11
     TRS4 it  10 1.00000000   0.226E-11       0.013     2185.204   0.100E-11
     Final TRS4 iteration   10 1.00000000   0.226E-11
     Chemical potential (mu):       0.05823
 
 PAO| energy:  -191.15758908122851      penalty:   5.0735392959026424E-004
 PAO|LS| adapt:  T T F
 PAO|LS| adapt: scan_steps:    0.0000000000000000       0.32792083886952850        0.0000000000000000     
 PAO|LS| adapt: energies:   -191.10514869292925       -191.15758908122851        0.0000000000000000     
 PAO| ======================= Iteration:        15 =============================

     Lanczos converged:  T threshold:   0.100E-02
     Est. extremal eigenvalues:    0.470E+01   0.132E+00
     Est. condition number :    0.357E+02

 Order=           3
     NS sqrt iter    1 1.00000000   0.121E+01       0.021     2697.163
     NS sqrt iter    2 1.00000000   0.613E+00       0.034     3361.758
     NS sqrt iter    3 1.00000000   0.194E+00       0.034     3363.249
     NS sqrt iter    4 1.00000000   0.230E-01       0.034     3368.108
     NS sqrt iter    5 1.00000000   0.866E-04       0.034     3352.920
     NS sqrt iter    6 1.00000000   0.145E-10       0.016     2150.540
     Symmetrizing Results
     Final NS sqrt iter    6 1.00000000   0.183E-11

     Est. extremal eigenvalues     -0.83436     2.64023  converged:  T
     TRS4 it   1 1.00000000   0.287E+02       0.007     2129.000   0.100E-11
     TRS4 it   2 1.00000000   0.238E+02       0.013     2210.218   0.100E-11
     TRS4 it   3 1.00000000   0.155E+02       0.013     2195.013   0.100E-11
     TRS4 it   4 1.00000000   0.899E+01       0.013     2201.034   0.100E-11
     TRS4 it   5 1.00000000   0.370E+01       0.013     2198.671   0.100E-11
     TRS4 it   6 1.00000000   0.924E+00       0.013     2200.745   0.100E-11
     TRS4 it   7 1.00000000   0.106E+00       0.013     2228.847   0.100E-11
     TRS4 it   8 1.00000000   0.204E-02       0.013     2223.683   0.100E-11
     TRS4 it   9 1.00000000   0.122E-05       0.013     2191.187   0.100E-11
     TRS4 it  10 1.00000000   0.149E-11       0.013     2220.002   0.100E-11
     Final TRS4 iteration   10 1.00000000   0.149E-11
     Chemical potential (mu):       0.05996
 
 PAO| energy:  -191.13472627328846      penalty:   5.2530330780814190E-004
 PAO|LS| adapt:  T T T
 PAO|LS| adapt: scan_steps:    0.0000000000000000       0.32792083886952850       0.65584167773905699     
 PAO|LS| adapt: energies:   -191.10514869292925       -191.15758908122851       -191.13472627328846     
 PAO|LS| adapt: suggested step_size:   0.39232119268918997     
 PAO|LS| adapt: predicted energy  -191.15904126603539     
 PAO| ======================= Iteration:        16 =============================

     Lanczos converged:  T threshold:   0.100E-02
     Est. extremal eigenvalues:    0.475E+01   0.130E+00
     Est. condition number :    0.366E+02

 Order=           3
     NS sqrt iter    1 1.00000000   0.122E+01       0.021     2696.123
     NS sqrt iter    2 1.00000000   0.621E+00       0.034     3367.897
     NS sqrt iter    3 1.00000000   0.198E+00       0.034     3372.094
     NS sqrt iter    4 1.00000000   0.245E-01       0.033     3382.661
     NS sqrt iter    5 1.00000000   0.103E-03       0.034     3371.482
     NS sqrt iter    6 1.00000000   0.239E-10       0.018     2175.408
     Symmetrizing Results
     Final NS sqrt iter    6 1.00000000   0.213E-11

     Est. extremal eigenvalues     -0.83433     2.64523  converged:  T
     TRS4 it   1 1.00000000   0.287E+02       0.007     2108.077   0.100E-11
     TRS4 it   2 1.00000000   0.238E+02       0.013     2191.917   0.100E-11
     TRS4 it   3 1.00000000   0.155E+02       0.013     2205.030   0.100E-11
     TRS4 it   4 1.00000000   0.903E+01       0.013     2213.328   0.100E-11
     TRS4 it   5 1.00000000   0.375E+01       0.013     2190.937   0.100E-11
     TRS4 it   6 1.00000000   0.948E+00       0.013     2209.455   0.100E-11
     TRS4 it   7 1.00000000   0.111E+00       0.013     2216.572   0.100E-11
     TRS4 it   8 1.00000000   0.226E-02       0.013     2208.726   0.100E-11
     TRS4 it   9 1.00000000   0.146E-05       0.013     2197.995   0.100E-11
     TRS4 it  10 1.00000000   0.213E-11       0.013     2185.942   0.100E-11
     Final TRS4 iteration   10 1.00000000   0.213E-11
     Chemical potential (mu):       0.05858
 
 PAO| energy:  -191.15898622897274      penalty:   5.0962405938019333E-004
 PAO|CG| trace_G_new   0.10735539869269861     
 PAO|CG| trace_G_prev   0.28135190080922717     
 PAO|CG| trace_G_mix    4.5726020501069302E-003
 PAO|CG| trace_D   0.40729209789016263     
 PAO|CG| trace_D_Gnew   7.8927844345091360E-004
 PAO|CG| beta:   0.36531758394724462     
 PAO| norm of gradient:  0.32765133708364230     
 PAO| energy improvement:  -5.3837536043488399E-002
 PAO| step     16                 -191.158986229  0.640E-03  0.392E+00     1.448
 PAO|LS| adapt:  T F F
 PAO|LS| adapt: scan_steps:    0.0000000000000000        0.0000000000000000        0.0000000000000000     
 PAO|LS| adapt: energies:   -191.15898622897274        0.0000000000000000        0.0000000000000000     
 PAO| ======================= Iteration:        17 =============================

     Lanczos converged:  T threshold:   0.100E-02
     Est. extremal eigenvalues:    0.472E+01   0.131E+00
     Est. condition number :    0.361E+02

 Order=           3
     NS sqrt iter    1 1.00000000   0.121E+01       0.021     2688.546
     NS sqrt iter    2 1.00000000   0.616E+00       0.033     3386.345
     NS sqrt iter    3 1.00000000   0.196E+00       0.034     3366.210
     NS sqrt iter    4 1.00000000   0.238E-01       0.034     3367.846
     NS sqrt iter    5 1.00000000   0.941E-04       0.033     3382.546
     NS sqrt iter    6 1.00000000   0.186E-10       0.017     2169.978
     Symmetrizing Results
     Final NS sqrt iter    6 1.00000000   0.197E-11

     Est. extremal eigenvalues     -0.83439     2.64330  converged:  T
     TRS4 it   1 1.00000000   0.287E+02       0.007     2163.085   0.100E-11
     TRS4 it   2 1.00000000   0.238E+02       0.013     2199.121   0.100E-11
     TRS4 it   3 1.00000000   0.155E+02       0.013     2199.350   0.100E-11
     TRS4 it   4 1.00000000   0.899E+01       0.013     2213.073   0.100E-11
     TRS4 it   5 1.00000000   0.371E+01       0.013     2204.218   0.100E-11
     TRS4 it   6 1.00000000   0.927E+00       0.013     2211.914   0.100E-11
     TRS4 it   7 1.00000000   0.107E+00       0.013     2192.095   0.100E-11
     TRS4 it   8 1.00000000   0.208E-02       0.013     2217.424   0.100E-11
     TRS4 it   9 1.00000000   0.125E-05       0.013     2202.250   0.100E-11
     TRS4 it  10 1.00000000   0.155E-11       0.013     2230.695   0.100E-11
     Final TRS4 iteration   10 1.00000000   0.155E-11
     Chemical potential (mu):       0.05968
 
 PAO| energy:  -191.16357819424678      penalty:   5.0292297936951034E-004
 PAO|LS| adapt:  T T F
 PAO|LS| adapt: scan_steps:    0.0000000000000000       0.39232119268918997        0.0000000000000000     
 PAO|LS| adapt: energies:   -191.15898622897274       -191.16357819424678        0.0000000000000000     
 PAO| ======================= Iteration:        18 =============================

     Lanczos converged:  T threshold:   0.100E-02
     Est. extremal eigenvalues:    0.468E+01   0.131E+00
     Est. condition number :    0.357E+02

 Order=           3
     NS sqrt iter    1 1.00000000   0.120E+01       0.021     2677.451
     NS sqrt iter    2 1.00000000   0.612E+00       0.034     3347.331
     NS sqrt iter    3 1.00000000   0.193E+00       0.034     3367.757
     NS sqrt iter    4 1.00000000   0.230E-01       0.034     3369.169
     NS sqrt iter    5 1.00000000   0.863E-04       0.034     3379.574
     NS sqrt iter    6 1.00000000   0.145E-10       0.016     2160.052
     Symmetrizing Results
     Final NS sqrt iter    6 1.00000000   0.179E-11

     Est. extremal eigenvalues     -0.83429     2.64138  converged:  T
     TRS4 it   1 1.00000000   0.288E+02       0.007     2120.381   0.100E-11
     TRS4 it   2 1.00000000   0.238E+02       0.013     2233.005   0.100E-11
     TRS4 it   3 1.00000000   0.155E+02       0.013     2185.189   0.100E-11
     TRS4 it   4 1.00000000   0.894E+01       0.013     2213.347   0.100E-11
     TRS4 it   5 1.00000000   0.367E+01       0.013     2201.598   0.100E-11
     TRS4 it   6 1.00000000   0.908E+00       0.013     2209.336   0.100E-11
     TRS4 it   7 1.00000000   0.102E+00       0.013     2206.414   0.100E-11
     TRS4 it   8 1.00000000   0.192E-02       0.013     2207.041   0.100E-11
     TRS4 it   9 1.00000000   0.108E-05       0.013     2208.214   0.100E-11
     TRS4 it  10 1.00000000   0.118E-11       0.013     2212.237   0.100E-11
     Final TRS4 iteration   10 1.00000000   0.118E-11
     Chemical potential (mu):       0.06082
 
 PAO| energy:  -191.09322066559517      penalty:   5.0426119927583584E-004
 PAO|LS| adapt:  T T T
 PAO|LS| adapt: scan_steps:    0.0000000000000000       0.39232119268918997       0.78464238537837994     
 PAO|LS| adapt: energies:   -191.15898622897274       -191.16357819424678       -191.09322066559517     
 PAO|LS| adapt: suggested step_size:   0.22019712012536477     
 PAO|LS| adapt: predicted energy  -191.17079156737952     
 PAO| ======================= Iteration:        19 =============================

     Lanczos converged:  T threshold:   0.100E-02
     Est. extremal eigenvalues:    0.473E+01   0.130E+00
     Est. condition number :    0.363E+02

 Order=           3
     NS sqrt iter    1 1.00000000   0.122E+01       0.021     2710.520
     NS sqrt iter    2 1.00000000   0.618E+00       0.034     3367.980
     NS sqrt iter    3 1.00000000   0.197E+00       0.034     3361.492
     NS sqrt iter    4 1.00000000   0.241E-01       0.034     3349.421
     NS sqrt iter    5 1.00000000   0.978E-04       0.034     3375.641
     NS sqrt iter    6 1.00000000   0.207E-10       0.017     2170.888
     Symmetrizing Results
     Final NS sqrt iter    6 1.00000000   0.205E-11

     Est. extremal eigenvalues     -0.83438     2.64415  converged:  T
     TRS4 it   1 1.00000000   0.287E+02       0.007     2143.883   0.100E-11
     TRS4 it   2 1.00000000   0.238E+02       0.013     2232.983   0.100E-11
     TRS4 it   3 1.00000000   0.155E+02       0.013     2192.221   0.100E-11
     TRS4 it   4 1.00000000   0.901E+01       0.013     2201.393   0.100E-11
     TRS4 it   5 1.00000000   0.373E+01       0.013     2197.384   0.100E-11
     TRS4 it   6 1.00000000   0.936E+00       0.013     2178.311   0.100E-11
     TRS4 it   7 1.00000000   0.108E+00       0.013     2216.679   0.100E-11
     TRS4 it   8 1.00000000   0.216E-02       0.013     2211.947   0.100E-11
     TRS4 it   9 1.00000000   0.134E-05       0.013     2206.298   0.100E-11
     TRS4 it  10 1.00000000   0.177E-11       0.013     2169.659   0.100E-11
     Final TRS4 iteration   10 1.00000000   0.177E-11
     Chemical potential (mu):       0.05919
 
 PAO| energy:  -191.17078263869774      penalty:   5.0489216297106650E-004
 PAO|CG| trace_G_new    2.1730026899394635E-002
 PAO|CG| trace_G_prev   0.10735539869269861     
 PAO|CG| trace_G_mix   -3.9763859064947515E-004
 PAO|CG| trace_D   0.16113468001082704     
 PAO|CG| trace_D_Gnew  -3.6517260756600139E-005
 PAO|CG| beta:   0.20611600123980578     
 PAO| norm of gradient:  0.14741108133174599     
 PAO| energy improvement:  -1.1796409725008061E-002
 PAO| step     19                 -191.170782639  0.288E-03  0.220E+00     1.445
 PAO|LS| adapt:  T F F
 PAO|LS| adapt: scan_steps:    0.0000000000000000        0.0000000000000000        0.0000000000000000     
 PAO|LS| adapt: energies:   -191.17078263869774        0.0000000000000000        0.0000000000000000     
 PAO| ======================= Iteration:        20 =============================

     Lanczos converged:  T threshold:   0.100E-02
     Est. extremal eigenvalues:    0.473E+01   0.130E+00
     Est. condition number :    0.363E+02

 Order=           3
     NS sqrt iter    1 1.00000000   0.121E+01       0.021     2683.811
     NS sqrt iter    2 1.00000000   0.618E+00       0.034     3365.636
     NS sqrt iter    3 1.00000000   0.197E+00       0.034     3363.502
     NS sqrt iter    4 1.00000000   0.241E-01       0.033     3390.827
     NS sqrt iter    5 1.00000000   0.976E-04       0.034     3375.823
     NS sqrt iter    6 1.00000000   0.206E-10       0.017     2175.124
     Symmetrizing Results
     Final NS sqrt iter    6 1.00000000   0.204E-11

     Est. extremal eigenvalues     -0.83439     2.64338  converged:  T
     TRS4 it   1 1.00000000   0.287E+02       0.007     2107.989   0.100E-11
     TRS4 it   2 1.00000000   0.238E+02       0.013     2211.728   0.100E-11
     TRS4 it   3 1.00000000   0.155E+02       0.013     2221.496   0.100E-11
     TRS4 it   4 1.00000000   0.900E+01       0.013     2194.783   0.100E-11
     TRS4 it   5 1.00000000   0.372E+01       0.013     2192.519   0.100E-11
     TRS4 it   6 1.00000000   0.932E+00       0.013     2207.914   0.100E-11
     TRS4 it   7 1.00000000   0.108E+00       0.013     2210.756   0.100E-11
     TRS4 it   8 1.00000000   0.212E-02       0.013     2214.756   0.100E-11
     TRS4 it   9 1.00000000   0.130E-05       0.013     2203.309   0.100E-11
     TRS4 it  10 1.00000000   0.165E-11       0.013     2204.189   0.100E-11
     Final TRS4 iteration   10 1.00000000   0.165E-11
     Chemical potential (mu):       0.05939
 
 PAO| energy:  -191.17465038667936      penalty:   4.9530970518151354E-004
 PAO|LS| adapt:  T T F
 PAO|LS| adapt: scan_steps:    0.0000000000000000       0.22019712012536477        0.0000000000000000     
 PAO|LS| adapt: energies:   -191.17078263869774       -191.17465038667936        0.0000000000000000     
 PAO| ======================= Iteration:        21 =============================

     Lanczos converged:  T threshold:   0.100E-02
     Est. extremal eigenvalues:    0.473E+01   0.130E+00
     Est. condition number :    0.363E+02

 Order=           3
     NS sqrt iter    1 1.00000000   0.121E+01       0.021     2692.792
     NS sqrt iter    2 1.00000000   0.618E+00       0.034     3365.441
     NS sqrt iter    3 1.00000000   0.197E+00       0.034     3372.422
     NS sqrt iter    4 1.00000000   0.241E-01       0.034     3352.283
     NS sqrt iter    5 1.00000000   0.973E-04       0.034     3360.025
     NS sqrt iter    6 1.00000000   0.204E-10       0.017     2172.430
     Symmetrizing Results
     Final NS sqrt iter    6 1.00000000   0.203E-11

     Est. extremal eigenvalues     -0.83439     2.64262  converged:  T
     TRS4 it   1 1.00000000   0.287E+02       0.007     2139.567   0.100E-11
     TRS4 it   2 1.00000000   0.238E+02       0.013     2195.321   0.100E-11
     TRS4 it   3 1.00000000   0.155E+02       0.013     2212.333   0.100E-11
     TRS4 it   4 1.00000000   0.899E+01       0.013     2225.262   0.100E-11
     TRS4 it   5 1.00000000   0.371E+01       0.013     2207.650   0.100E-11
     TRS4 it   6 1.00000000   0.928E+00       0.013     2196.592   0.100E-11
     TRS4 it   7 1.00000000   0.107E+00       0.013     2213.178   0.100E-11
     TRS4 it   8 1.00000000   0.209E-02       0.013     2204.039   0.100E-11
     TRS4 it   9 1.00000000   0.126E-05       0.013     2198.202   0.100E-11
     TRS4 it  10 1.00000000   0.159E-11       0.013     2197.167   0.100E-11
     Final TRS4 iteration   10 1.00000000   0.159E-11
     Chemical potential (mu):       0.05960
 
 PAO| energy:  -191.17666737512548      penalty:   4.8616718600723763E-004
 PAO|LS| adapt:  T T F
 PAO|LS| adapt: scan_steps:    0.0000000000000000       0.44039424025072954        0.0000000000000000     
 PAO|LS| adapt: energies:   -191.17078263869774       -191.17666737512548        0.0000000000000000     
 PAO| ======================= Iteration:        22 =============================

     Lanczos converged:  T threshold:   0.100E-02
     Est. extremal eigenvalues:    0.472E+01   0.130E+00
     Est. condition number :    0.363E+02

 Order=           3
     NS sqrt iter    1 1.00000000   0.121E+01       0.021     2686.750
     NS sqrt iter    2 1.00000000   0.617E+00       0.034     3373.942
     NS sqrt iter    3 1.00000000   0.197E+00       0.034     3366.478
     NS sqrt iter    4 1.00000000   0.241E-01       0.034     3361.667
     NS sqrt iter    5 1.00000000   0.969E-04       0.034     3364.225
     NS sqrt iter    6 1.00000000   0.201E-10       0.017     2167.708
     Symmetrizing Results
     Final NS sqrt iter    6 1.00000000   0.200E-11

     Est. extremal eigenvalues     -0.83440     2.64110  converged:  T
     TRS4 it   1 1.00000000   0.287E+02       0.007     2141.815   0.100E-11
     TRS4 it   2 1.00000000   0.238E+02       0.013     2219.907   0.100E-11
     TRS4 it   3 1.00000000   0.155E+02       0.013     2217.254   0.100E-11
     TRS4 it   4 1.00000000   0.896E+01       0.013     2210.002   0.100E-11
     TRS4 it   5 1.00000000   0.369E+01       0.013     2191.345   0.100E-11
     TRS4 it   6 1.00000000   0.920E+00       0.013     2186.095   0.100E-11
     TRS4 it   7 1.00000000   0.105E+00       0.013     2191.691   0.100E-11
     TRS4 it   8 1.00000000   0.203E-02       0.013     2178.692   0.100E-11
     TRS4 it   9 1.00000000   0.119E-05       0.013     2211.206   0.100E-11
     TRS4 it  10 1.00000000   0.139E-11       0.013     2189.631   0.100E-11
     Final TRS4 iteration   10 1.00000000   0.139E-11
     Chemical potential (mu):       0.06000
 
 PAO| energy:  -191.17506949083901      penalty:   4.6917408829368155E-004
 PAO|LS| Need extra step
 PAO|LS| adapt:  T T T
 PAO|LS| adapt: scan_steps:    0.0000000000000000       0.44039424025072954       0.88078848050145908     
 PAO|LS| adapt: energies:   -191.17078263869774       -191.17666737512548       -191.17506949083901     
 PAO|LS| adapt: suggested step_size:   0.56654689878626485     
 PAO|LS| adapt: predicted energy  -191.17697437153060     
 PAO| ======================= Iteration:        23 =============================

     Lanczos converged:  T threshold:   0.100E-02
     Est. extremal eigenvalues:    0.472E+01   0.130E+00
     Est. condition number :    0.363E+02

 Order=           3
     NS sqrt iter    1 1.00000000   0.121E+01       0.021     2680.884
     NS sqrt iter    2 1.00000000   0.617E+00       0.034     3371.814
     NS sqrt iter    3 1.00000000   0.197E+00       0.034     3349.454
     NS sqrt iter    4 1.00000000   0.241E-01       0.034     3373.038
     NS sqrt iter    5 1.00000000   0.972E-04       0.034     3366.705
     NS sqrt iter    6 1.00000000   0.203E-10       0.017     2180.269
     Symmetrizing Results
     Final NS sqrt iter    6 1.00000000   0.201E-11

     Est. extremal eigenvalues     -0.83440     2.64218  converged:  T
     TRS4 it   1 1.00000000   0.287E+02       0.007     2142.631   0.100E-11
     TRS4 it   2 1.00000000   0.238E+02       0.013     2203.906   0.100E-11
     TRS4 it   3 1.00000000   0.155E+02       0.013     2212.304   0.100E-11
     TRS4 it   4 1.00000000   0.898E+01       0.013     2208.954   0.100E-11
     TRS4 it   5 1.00000000   0.370E+01       0.013     2206.596   0.100E-11
     TRS4 it   6 1.00000000   0.926E+00       0.013     2200.340   0.100E-11
     TRS4 it   7 1.00000000   0.106E+00       0.013     2209.079   0.100E-11
     TRS4 it   8 1.00000000   0.207E-02       0.013     2218.006   0.100E-11
     TRS4 it   9 1.00000000   0.124E-05       0.013     2211.427   0.100E-11
     TRS4 it  10 1.00000000   0.152E-11       0.013     2209.607   0.100E-11
     Final TRS4 iteration   10 1.00000000   0.152E-11
     Chemical potential (mu):       0.05971
 
 PAO| energy:  -191.17698136731227      penalty:   4.8112467968513704E-004
 PAO|CG| trace_G_new    1.6770513302354104E-002
 PAO|CG| trace_G_prev    2.1730026899394635E-002
 PAO|CG| trace_G_mix    1.1169174890432421E-004
 PAO|CG| trace_D    2.8590694963070123E-002
 PAO|CG| trace_D_Gnew  -4.5598352005027821E-005
 PAO|CG| beta:   0.76662682612297495     
 PAO| norm of gradient:  0.12950101660741550     
 PAO| energy improvement:  -6.1987286145210874E-003
 PAO| step     23                 -191.176981367  0.253E-03  0.567E+00     1.877
 PAO|LS| adapt:  T F F
 PAO|LS| adapt: scan_steps:    0.0000000000000000        0.0000000000000000        0.0000000000000000     
 PAO|LS| adapt: energies:   -191.17698136731227        0.0000000000000000        0.0000000000000000     
 PAO| ======================= Iteration:        24 =============================

     Lanczos converged:  T threshold:   0.100E-02
     Est. extremal eigenvalues:    0.471E+01   0.130E+00
     Est. condition number :    0.362E+02

 Order=           3
     NS sqrt iter    1 1.00000000   0.121E+01       0.021     2688.650
     NS sqrt iter    2 1.00000000   0.616E+00       0.034     3357.699
     NS sqrt iter    3 1.00000000   0.196E+00       0.034     3371.639
     NS sqrt iter    4 1.00000000   0.241E-01       0.034     3367.496
     NS sqrt iter    5 1.00000000   0.971E-04       0.034     3372.272
     NS sqrt iter    6 1.00000000   0.200E-10       0.017     2166.598
     Symmetrizing Results
     Final NS sqrt iter    6 1.00000000   0.201E-11

     Est. extremal eigenvalues     -0.83442     2.64024  converged:  T
     TRS4 it   1 1.00000000   0.288E+02       0.007     2147.342   0.100E-11
     TRS4 it   2 1.00000000   0.238E+02       0.013     2197.503   0.100E-11
     TRS4 it   3 1.00000000   0.155E+02       0.013     2206.611   0.100E-11
     TRS4 it   4 1.00000000   0.896E+01       0.013     2201.114   0.100E-11
     TRS4 it   5 1.00000000   0.368E+01       0.013     2199.622   0.100E-11
     TRS4 it   6 1.00000000   0.917E+00       0.013     2207.071   0.100E-11
     TRS4 it   7 1.00000000   0.104E+00       0.013     2188.390   0.100E-11
     TRS4 it   8 1.00000000   0.200E-02       0.013     2210.311   0.100E-11
     TRS4 it   9 1.00000000   0.116E-05       0.013     2201.950   0.100E-11
     TRS4 it  10 1.00000000   0.140E-11       0.013     2205.636   0.100E-11
     Final TRS4 iteration   10 1.00000000   0.140E-11
     Chemical potential (mu):       0.06016
 
 PAO| energy:  -191.18020392615836      penalty:   4.4385566314592408E-004
 PAO|LS| adapt:  T T F
 PAO|LS| adapt: scan_steps:    0.0000000000000000       0.56654689878626485        0.0000000000000000     
 PAO|LS| adapt: energies:   -191.17698136731227       -191.18020392615836        0.0000000000000000     
 PAO| ======================= Iteration:        25 =============================

     Lanczos converged:  T threshold:   0.100E-02
     Est. extremal eigenvalues:    0.470E+01   0.130E+00
     Est. condition number :    0.362E+02

 Order=           3
     NS sqrt iter    1 1.00000000   0.121E+01       0.022     2586.130
     NS sqrt iter    2 1.00000000   0.615E+00       0.033     3390.982
     NS sqrt iter    3 1.00000000   0.196E+00       0.034     3364.122
     NS sqrt iter    4 1.00000000   0.240E-01       0.034     3365.311
     NS sqrt iter    5 1.00000000   0.972E-04       0.034     3372.472
     NS sqrt iter    6 1.00000000   0.199E-10       0.017     2189.031
     Symmetrizing Results
     Final NS sqrt iter    6 1.00000000   0.202E-11

     Est. extremal eigenvalues     -0.83442     2.63828  converged:  T
     TRS4 it   1 1.00000000   0.288E+02       0.007     2134.410   0.100E-11
     TRS4 it   2 1.00000000   0.238E+02       0.013     2202.571   0.100E-11
     TRS4 it   3 1.00000000   0.155E+02       0.013     2211.268   0.100E-11
     TRS4 it   4 1.00000000   0.893E+01       0.013     2190.994   0.100E-11
     TRS4 it   5 1.00000000   0.366E+01       0.013     2208.452   0.100E-11
     TRS4 it   6 1.00000000   0.908E+00       0.013     2187.539   0.100E-11
     TRS4 it   7 1.00000000   0.103E+00       0.013     2217.071   0.100E-11
     TRS4 it   8 1.00000000   0.193E-02       0.013     2216.096   0.100E-11
     TRS4 it   9 1.00000000   0.109E-05       0.013     2207.381   0.100E-11
     TRS4 it  10 1.00000000   0.118E-11       0.013     2235.998   0.100E-11
     Final TRS4 iteration   10 1.00000000   0.118E-11
     Chemical potential (mu):       0.06061
 
 PAO| energy:  -191.17062082090678      penalty:   4.1067133870238150E-004
 PAO|LS| adapt:  T T T
 PAO|LS| adapt: scan_steps:    0.0000000000000000       0.56654689878626485        1.1330937975725297     
 PAO|LS| adapt: energies:   -191.17698136731227       -191.18020392615836       -191.17062082090678     
 PAO|LS| adapt: suggested step_size:   0.42584557267262713     
 PAO|LS| adapt: predicted energy  -191.18059883490994     
 PAO| ======================= Iteration:        26 =============================

     Lanczos converged:  T threshold:   0.100E-02
     Est. extremal eigenvalues:    0.471E+01   0.130E+00
     Est. condition number :    0.362E+02

 Order=           3
     NS sqrt iter    1 1.00000000   0.121E+01       0.021     2698.021
     NS sqrt iter    2 1.00000000   0.617E+00       0.034     3371.114
     NS sqrt iter    3 1.00000000   0.197E+00       0.034     3377.668
     NS sqrt iter    4 1.00000000   0.241E-01       0.034     3332.599
     NS sqrt iter    5 1.00000000   0.972E-04       0.034     3370.021
     NS sqrt iter    6 1.00000000   0.201E-10       0.017     2155.857
     Symmetrizing Results
     Final NS sqrt iter    6 1.00000000   0.201E-11

     Est. extremal eigenvalues     -0.83442     2.64073  converged:  T
     TRS4 it   1 1.00000000   0.288E+02       0.007     2137.141   0.100E-11
     TRS4 it   2 1.00000000   0.238E+02       0.013     2218.860   0.100E-11
     TRS4 it   3 1.00000000   0.155E+02       0.013     2217.050   0.100E-11
     TRS4 it   4 1.00000000   0.896E+01       0.013     2214.263   0.100E-11
     TRS4 it   5 1.00000000   0.369E+01       0.013     2213.090   0.100E-11
     TRS4 it   6 1.00000000   0.919E+00       0.013     2194.864   0.100E-11
     TRS4 it   7 1.00000000   0.105E+00       0.013     2217.873   0.100E-11
     TRS4 it   8 1.00000000   0.202E-02       0.013     2206.144   0.100E-11
     TRS4 it   9 1.00000000   0.118E-05       0.013     2207.869   0.100E-11
     TRS4 it  10 1.00000000   0.141E-11       0.013     2203.488   0.100E-11
     Final TRS4 iteration   10 1.00000000   0.141E-11
     Chemical potential (mu):       0.06005
 
 PAO| energy:  -191.18058661870120      penalty:   4.5272286440959725E-004
 PAO|CG| trace_G_new    1.3614147590647219E-002
 PAO|CG| trace_G_prev    1.6770513302354104E-002
 PAO|CG| trace_G_mix    2.4703714902670306E-004
 PAO|CG| trace_D    3.3643655765790155E-002
 PAO|CG| trace_D_Gnew  -7.5264357085528901E-005
 PAO|CG| beta:   0.79706030463266453     
 PAO| norm of gradient:  0.11667967942468482     
 PAO| energy improvement:  -3.6052513889330839E-003
 PAO| step     26                 -191.180586619  0.228E-03  0.426E+00     1.446
 PAO|LS| adapt:  T F F
 PAO|LS| adapt: scan_steps:    0.0000000000000000        0.0000000000000000        0.0000000000000000     
 PAO|LS| adapt: energies:   -191.18058661870120        0.0000000000000000        0.0000000000000000     
 PAO| ======================= Iteration:        27 =============================

     Lanczos converged:  T threshold:   0.100E-02
     Est. extremal eigenvalues:    0.470E+01   0.130E+00
     Est. condition number :    0.362E+02

 Order=           3
     NS sqrt iter    1 1.00000000   0.121E+01       0.021     2703.363
     NS sqrt iter    2 1.00000000   0.615E+00       0.034     3378.661
     NS sqrt iter    3 1.00000000   0.196E+00       0.034     3355.346
     NS sqrt iter    4 1.00000000   0.240E-01       0.034     3366.979
     NS sqrt iter    5 1.00000000   0.970E-04       0.034     3341.551
     NS sqrt iter    6 1.00000000   0.199E-10       0.017     2179.877
     Symmetrizing Results
     Final NS sqrt iter    6 1.00000000   0.202E-11

     Est. extremal eigenvalues     -0.83443     2.63917  converged:  T
     TRS4 it   1 1.00000000   0.288E+02       0.007     2126.249   0.100E-11
     TRS4 it   2 1.00000000   0.238E+02       0.013     2214.144   0.100E-11
     TRS4 it   3 1.00000000   0.155E+02       0.013     2209.110   0.100E-11
     TRS4 it   4 1.00000000   0.894E+01       0.013     2212.089   0.100E-11
     TRS4 it   5 1.00000000   0.367E+01       0.013     2233.829   0.100E-11
     TRS4 it   6 1.00000000   0.911E+00       0.013     2203.561   0.100E-11
     TRS4 it   7 1.00000000   0.103E+00       0.013     2204.849   0.100E-11
     TRS4 it   8 1.00000000   0.195E-02       0.013     2197.699   0.100E-11
     TRS4 it   9 1.00000000   0.111E-05       0.013     2193.872   0.100E-11
     TRS4 it  10 1.00000000   0.125E-11       0.013     2194.948   0.100E-11
     Final TRS4 iteration   10 1.00000000   0.125E-11
     Chemical potential (mu):       0.06048
 
 PAO| energy:  -191.18326299564788      penalty:   4.1691804225335420E-004
 PAO|LS| adapt:  T T F
 PAO|LS| adapt: scan_steps:    0.0000000000000000       0.42584557267262713        0.0000000000000000     
 PAO|LS| adapt: energies:   -191.18058661870120       -191.18326299564788        0.0000000000000000     
 PAO| ======================= Iteration:        28 =============================

     Lanczos converged:  T threshold:   0.100E-02
     Est. extremal eigenvalues:    0.469E+01   0.130E+00
     Est. condition number :    0.361E+02

 Order=           3
     NS sqrt iter    1 1.00000000   0.120E+01       0.021     2708.115
     NS sqrt iter    2 1.00000000   0.614E+00       0.033     3398.376
     NS sqrt iter    3 1.00000000   0.195E+00       0.034     3325.898
     NS sqrt iter    4 1.00000000   0.239E-01       0.034     3363.231
     NS sqrt iter    5 1.00000000   0.970E-04       0.033     3385.625
     NS sqrt iter    6 1.00000000   0.197E-10       0.017     2192.111
     Symmetrizing Results
     Final NS sqrt iter    6 1.00000000   0.202E-11

     Est. extremal eigenvalues     -0.83444     2.63759  converged:  T
     TRS4 it   1 1.00000000   0.288E+02       0.007     2134.410   0.100E-11
     TRS4 it   2 1.00000000   0.238E+02       0.013     2189.631   0.100E-11
     TRS4 it   3 1.00000000   0.155E+02       0.013     2222.164   0.100E-11
     TRS4 it   4 1.00000000   0.892E+01       0.013     2191.744   0.100E-11
     TRS4 it   5 1.00000000   0.365E+01       0.013     2214.880   0.100E-11
     TRS4 it   6 1.00000000   0.903E+00       0.013     2199.139   0.100E-11
     TRS4 it   7 1.00000000   0.101E+00       0.013     2176.947   0.100E-11
     TRS4 it   8 1.00000000   0.189E-02       0.013     2201.519   0.100E-11
     TRS4 it   9 1.00000000   0.105E-05       0.013     2196.677   0.100E-11
     TRS4 it  10 1.00000000   0.109E-11       0.013     2185.338   0.100E-11
     Final TRS4 iteration   10 1.00000000   0.109E-11
     Chemical potential (mu):       0.06090
 
 PAO| energy:  -191.17958617797740      penalty:   3.8425217019964108E-004
 PAO|LS| adapt:  T T T
 PAO|LS| adapt: scan_steps:    0.0000000000000000       0.42584557267262713       0.85169114534525425     
 PAO|LS| adapt: energies:   -191.18058661870120       -191.18326299564788       -191.17958617797740     
 PAO|LS| adapt: suggested step_size:   0.39231651535390705     
 PAO|LS| adapt: predicted energy  -191.18328268813534     
 PAO| ======================= Iteration:        29 =============================

     Lanczos converged:  T threshold:   0.100E-02
     Est. extremal eigenvalues:    0.470E+01   0.130E+00
     Est. condition number :    0.362E+02

 Order=           3
     NS sqrt iter    1 1.00000000   0.121E+01       0.021     2663.980
     NS sqrt iter    2 1.00000000   0.615E+00       0.034     3335.803
     NS sqrt iter    3 1.00000000   0.196E+00       0.034     3338.515
     NS sqrt iter    4 1.00000000   0.240E-01       0.034     3314.805
     NS sqrt iter    5 1.00000000   0.970E-04       0.034     3333.365
     NS sqrt iter    6 1.00000000   0.199E-10       0.017     2153.215
     Symmetrizing Results
     Final NS sqrt iter    6 1.00000000   0.201E-11

     Est. extremal eigenvalues     -0.83443     2.63929  converged:  T
     TRS4 it   1 1.00000000   0.288E+02       0.007     2128.707   0.100E-11
     TRS4 it   2 1.00000000   0.238E+02       0.013     2175.384   0.100E-11
     TRS4 it   3 1.00000000   0.155E+02       0.013     2202.613   0.100E-11
     TRS4 it   4 1.00000000   0.894E+01       0.013     2207.986   0.100E-11
     TRS4 it   5 1.00000000   0.367E+01       0.013     2198.659   0.100E-11
     TRS4 it   6 1.00000000   0.912E+00       0.013     2201.545   0.100E-11
     TRS4 it   7 1.00000000   0.103E+00       0.013     2204.196   0.100E-11
     TRS4 it   8 1.00000000   0.195E-02       0.013     2195.043   0.100E-11
     TRS4 it   9 1.00000000   0.112E-05       0.013     2179.232   0.100E-11
[...]
     TRS4 it   4 1.00000000   0.931E+01       0.013     2186.722   0.100E-11
     TRS4 it   5 1.00000000   0.419E+01       0.013     2187.224   0.100E-11
     TRS4 it   6 1.00000000   0.130E+01       0.013     2176.637   0.100E-11
     TRS4 it   7 1.00000000   0.224E+00       0.013     2172.467   0.100E-11
     TRS4 it   8 1.00000000   0.105E-01       0.013     2203.348   0.100E-11
     TRS4 it   9 1.00000000   0.370E-04       0.013     2177.145   0.100E-11
     TRS4 it  10 1.00000000   0.125E-08       0.013     2166.944   0.100E-11
     TRS4 it  11 1.00000000   0.000E+00       0.013     2205.385   0.100E-11
     Final TRS4 iteration   11 1.00000000   0.000E+00
     Chemical potential (mu):       0.02852
 
 PAO| energy:  -190.80524165970968      penalty:   1.4483066961751828E-008
 PAO| Writing restart file.
     Est. extremal eigenvalues     -0.83486     2.65893  converged:  T
     TRS4 it   1 1.00000000   0.291E+02       0.007     2144.177   0.100E-11
     TRS4 it   2 1.00000000   0.242E+02       0.013     2200.830   0.100E-11
     TRS4 it   3 1.00000000   0.157E+02       0.013     2203.241   0.100E-11
     TRS4 it   4 1.00000000   0.931E+01       0.013     2209.273   0.100E-11
     TRS4 it   5 1.00000000   0.419E+01       0.013     2201.541   0.100E-11
     TRS4 it   6 1.00000000   0.130E+01       0.013     2202.640   0.100E-11
     TRS4 it   7 1.00000000   0.224E+00       0.013     2202.502   0.100E-11
     TRS4 it   8 1.00000000   0.105E-01       0.013     2209.499   0.100E-11
     TRS4 it   9 1.00000000   0.370E-04       0.013     2199.280   0.100E-11
     TRS4 it  10 1.00000000   0.125E-08       0.013     2186.614   0.100E-11
     TRS4 it  11 1.00000000   0.000E+00       0.013     2196.288   0.100E-11
     Final TRS4 iteration   11 1.00000000   0.000E+00
     Chemical potential (mu):       0.02852

 SCF     1     -1103.050611373     -1103.050611373    1.753562

*********************************************************
 Using MIXING_FRACTION=0.450 to mix KS matrix:  iscf=  2
 KS_nw=0.450*KS + 0.550*KS_old
*********************************************************
     Est. extremal eigenvalues     -0.83486     2.65893  converged:  T
     TRS4 it   1 1.00000000   0.291E+02       0.007     2123.349   0.100E-11
     TRS4 it   2 1.00000000   0.242E+02       0.013     2199.240   0.100E-11
     TRS4 it   3 1.00000000   0.157E+02       0.013     2204.331   0.100E-11
     TRS4 it   4 1.00000000   0.931E+01       0.013     2188.444   0.100E-11
     TRS4 it   5 1.00000000   0.419E+01       0.013     2217.334   0.100E-11
     TRS4 it   6 1.00000000   0.130E+01       0.013     2216.931   0.100E-11
     TRS4 it   7 1.00000000   0.224E+00       0.013     2212.715   0.100E-11
     TRS4 it   8 1.00000000   0.105E-01       0.013     2201.826   0.100E-11
     TRS4 it   9 1.00000000   0.370E-04       0.013     2224.678   0.100E-11
     TRS4 it  10 1.00000000   0.125E-08       0.013     2191.252   0.100E-11
     TRS4 it  11 1.00000000   0.711E-14       0.013     2204.707   0.100E-11
     Final TRS4 iteration   11 1.00000000   0.711E-14
     Chemical potential (mu):       0.02851

 SCF     2     -1103.050611373        -0.000000000    1.754480


 SCF run converged in     2 steps.

 PAO| Storing density matrix for ASPC guess in slot:           1

 ENERGY| Total FORCE_EVAL ( QS ) energy [a.u.]:            -1103.050611372893400

 -------------------------------------------------------------------------------
 -                                                                             -
 -                                DBCSR STATISTICS                             -
 -                                                                             -
 -------------------------------------------------------------------------------
 COUNTER                                    TOTAL       BLAS       SMM       ACC
 flops     5 x     5 x     4             26419200       0.0%    100.0%      0.0%     
 flops    13 x     5 x     4             34078720       0.0%    100.0%      0.0%     
 flops     5 x    13 x     4             34078720       0.0%    100.0%      0.0%     
 flops    13 x    13 x     4             44994560       0.0%    100.0%      0.0%     
 flops     4 x     4 x     5           6692536320       0.0%    100.0%      0.0%     
 flops     5 x     4 x     5           8270643200       0.0%    100.0%      0.0%     
 flops     4 x     4 x    13           8700297216       0.0%    100.0%      0.0%     
 flops    13 x     4 x     5          10751836160       0.0%    100.0%      0.0%     
 flops     5 x     4 x    13          10751836160       0.0%    100.0%      0.0%     
 flops    13 x     4 x    13          13977387008       0.0%    100.0%      0.0%     
 flops     5 x     4 x     4         417624120160       0.0%    100.0%      0.0%     
 flops    13 x     4 x     4         550402005088       0.0%    100.0%      0.0%     
 flops     4 x     4 x     4       30806069244672       0.0%    100.0%      0.0%     
 flops inhomo. stacks                           0       0.0%      0.0%      0.0%
 flops total                        31.833379E+12       0.0%    100.0%      0.0%
 flops max/rank                      1.005496E+12       0.0%    100.0%      0.0%
 matmuls inhomo. stacks                         0       0.0%      0.0%      0.0%
 matmuls total                       244761732180       0.0%    100.0%      0.0%
 number of processed stacks             250052098       0.0%    100.0%      0.0%
 average stack size                                     0.0     978.8       0.0
 marketing flops                    55.096008E+12
 -------------------------------------------------------------------------------
 # multiplications                          51693
 max memory usage/rank             615.849984E+06
 # max total images/rank                        2
 # max 3D layers                                1
 # MPI messages exchanged                21504288
 MPI messages size (bytes):
  total size                         2.552675E+12
  min size                           0.000000E+00
  max size                         541.696000E+03
  average size                     118.705391E+03
 MPI breakdown and total messages size (bytes):
             size <=      128              918891                     7296
       128 < size <=     8192              351657               1323948032
      8192 < size <=    32768               53124               1231501440
     32768 < size <=   131072             9225256             688809820288
    131072 < size <=  4194304            10955360            1861683802624
   4194304 < size <= 16777216                   0                        0
  16777216 < size                               0                        0
 -------------------------------------------------------------------------------

 *** WARNING in dbcsr_mm.F:301 :: Using a non-square number of MPI ranks ***
 *** might lead to poor performance. Used ranks: 32 Suggested: 36 64     ***

 -------------------------------------------------------------------------------
 -                                                                             -
 -                      DBCSR MESSAGE PASSING PERFORMANCE                      -
 -                                                                             -
 -------------------------------------------------------------------------------
 ROUTINE             CALLS      AVE VOLUME [Bytes]
 MP_Bcast               14                     12.
 MP_Allreduce       311155                     37.
 MP_Alltoall        133433                  14562.
 MP_ISend          1730090                  55286.
 MP_IRecv          1692132                  56589.
 -------------------------------------------------------------------------------

 -------------------------------------------------------------------------------
 -                                                                             -
 -                                DBM STATISTICS                               -
 -                                                                             -
 -------------------------------------------------------------------------------
    M  x    N  x    K                                          COUNT     PERCENT
 -------------------------------------------------------------------------------

 -------------------------------------------------------------------------------
 -                                                                             -
 -                                GRID STATISTICS                              -
 -                                                                             -
 -------------------------------------------------------------------------------
 LP    KERNEL             BACKEND                              COUNT     PERCENT
 2     collocate ortho    CPU                               13112240      28.83%
 2     integrate ortho    CPU                               13112240      28.83%
 3     collocate ortho    CPU                                8427280      18.53%
 3     integrate ortho    CPU                                8427280      18.53%
 4     collocate ortho    CPU                                1198080       2.63%
 4     integrate ortho    CPU                                1198080       2.63%
 0     collocate general  CPU                                   6144       0.01%
 -------------------------------------------------------------------------------

 MEMORY| Estimated peak process memory [MiB]                                 588

 -------------------------------------------------------------------------------
 -                                                                             -
 -                         MESSAGE PASSING PERFORMANCE                         -
 -                                                                             -
 -------------------------------------------------------------------------------

 ROUTINE             CALLS      AVE VOLUME [Bytes]
 MP_Group                5
 MP_Bcast           352554                   1991.
 MP_Allreduce       876539                    514.
 MP_Sync                 5
 MP_Alltoall           419                3261113.
 MP_SendRecv          1488                  18832.
 MP_ISendRecv         1488                  18832.
 MP_Wait              4218
 MP_ISend             2470                 108139.
 MP_IRecv             2470                 108153.
 -------------------------------------------------------------------------------


 -------------------------------------------------------------------------------
 -                                                                             -
 -                           R E F E R E N C E S                               -
 -                                                                             -
 -------------------------------------------------------------------------------
 
 CP2K version 2024.3 (Development Version), the CP2K developers group (2024).
 CP2K is freely available from https://www.cp2k.org/ .
 
 T. D. Kuehne, M. Iannuzzi, M. Del Ben, V. V. Rybkin, P. Seewald, F. Stein, T. 
 Laino, R. Z. Khaliullin, O. Schuett, F. Schiffmann, D. Golze, J. Wilhelm, S. 
 Chulkov, M. H. Bani-Hashemian, V. Weber, U. Borstnik, M. Taillefumier, A. S. 
 Jakobovits, A. Lazzaro, H. Pabst, T. Mueller, R. Schade, M. Guidon, S. 
 Andermatt, N. Holmberg, G. K. Schenter, A. Hehn, A. Bussy, F. Belleflamme, G. 
 Tabacchi, A. Gloess, M. Lass, I. Bethune, C. J. Mundy, C. Plessl, M. Watkins, 
 J. VandeVondele, M. Krack, J. Hutter.
 J. Chem. Phys. 152, 194103 (2020).
 CP2K: An electronic structure and molecular dynamics software package - 
 Quickstep: Efficient and accurate electronic structure calculations.
 https://doi.org/10.1063/5.0007045

 O. Schuett, J. VandeVondele.
 J. Chem. Theory Comput. 14, 4168-4175 (2018).
 Machine Learning Adaptive Basis Sets for Efficient Large Scale Density 
 Functional Theory Simulation.
 https://doi.org/10.1021/acs.jctc.8b00378

 O. Schuett, P. Messmer, J. Hutter, J. VandeVondele.
 Electronic Structure Calculations on Graphics Processing Units, 173-190 (2016).
 GPU-Accelerated Sparse Matrix-Matrix Multiplication for Linear Scaling Density 
 Functional Theory.
 https://doi.org/10.1002/9781118670712.ch8

 A. Heinecke, G. Henry, M. Hutchinson, H. Pabst.
 Proceedings of Intl. Supercomputing Conference, 981-991 (2016).
 LIBXSMM: Accelerating Small Matrix Multiplications by Runtime Code Generation.
 https://doi.org/10.1109/SC.2016.83

 J. Hutter, M. Iannuzzi, F. Schiffmann, J. VandeVondele.
 WIREs Comput Mol Sci. 4, 15-25 (2014).
 CP2K: atomistic simulations of condensed matter systems.
 https://doi.org/10.1002/wcms.1159

 U. Borstnik, J. VandeVondele, V. Weber, J. Hutter.
 Parallel Comput. 40, 47-58 (2014).
 Sparse matrix multiplication: The distributed block-compressed sparse row 
 library.
 https://doi.org/10.1016/j.parco.2014.03.012

 A. Marek, V. Blum, R. Johanni, V. Havu, B. Lang, T. Auckenthaler, A. Heinecke, 
 H. Bungartz, H. Lederer.
 J. Phys. Condens. Matter 26, 213201 (2014).
 The ELPA library: scalable parallel eigenvalue solutions for electronic 
 structure theory and computational science.
 https://doi.org/10.1088/0953-8984/26/21/213201

 J. VandeVondele, U. Borstnik, J. Hutter.
 J. Chem. Theory Comput. 8, 3565-3573 (2012).
 Linear Scaling Self-Consistent Field Calculations with Millions of Atoms in the 
 Condensed Phase.
 https://doi.org/10.1021/ct200897x

 J. VandeVondele, J. Hutter.
 J. Chem. Phys. 127, 114105 (2007).
 Gaussian basis sets for accurate calculations on molecular systems in gas and 
 condensed phases.
 https://doi.org/10.1063/1.2770708

 J. VandeVondele, M. Krack, F. Mohamed, M. Parrinello, T. Chassaing, J. Hutter.
 Comput. Phys. Commun. 167, 103-128 (2005).
 QUICKSTEP: Fast and accurate density functional calculations using a mixed 
 Gaussian and plane waves approach.
 https://doi.org/10.1016/j.cpc.2004.12.014

 M. Krack.
 Theor. Chem. Acc. 114, 145-152 (2005).
 Pseudopotentials for H to Kr optimized for gradient-corrected 
 exchange-correlation functionals.
 https://doi.org/10.1007/s00214-005-0655-y

 M. Frigo, S. G. Johnson.
 Proc. IEEE 93, 216-231 (2005).
 The design and implementation of FFTW3.
 https://doi.org/10.1109/JPROC.2004.840301

 A. M. N. Niklasson, C. J. Tymczak, M. Challacombe.
 J. Chem. Phys. 118, 8611-8620 (2003).
 Trace resetting density matrix purification in O(N) self-consistent-field 
 theory.
 https://doi.org/10.1063/1.1559913

 C. Hartwigsen, S. Goedecker, J. Hutter.
 Phys. Rev. B 58, 3641-3662 (1998).
 Relativistic separable dual-space Gaussian pseudopotentials from H to Rn.
 https://doi.org/10.1103/PhysRevB.58.3641

 G. Lippert, J. Hutter, M. Parrinello.
 Mol. Phys. 92, 477-487 (1997).
 A hybrid Gaussian and plane wave density functional scheme.
 https://doi.org/10.1080/002689797170220

 S. Goedecker, M. Teter, J. Hutter.
 Phys. Rev. B 54, 1703-1710 (1996).
 Separable dual-space Gaussian pseudopotentials.
 https://doi.org/10.1103/PhysRevB.54.1703

 J. P. Perdew, K. Burke, M. Ernzerhof.
 Phys. Rev. Lett. 77, 3865-3868 (1996).
 Generalized gradient approximation made simple.
 https://doi.org/10.1103/PhysRevLett.77.3865


 -------------------------------------------------------------------------------
 -                                                                             -
 -                                T I M I N G                                  -
 -                                                                             -
 -------------------------------------------------------------------------------
 SUBROUTINE                       CALLS  ASD         SELF TIME        TOTAL TIME
                                MAXIMUM       AVERAGE  MAXIMUM  AVERAGE  MAXIMUM
 CP2K                                 1  1.0    0.012    0.016  455.954  455.954
 qs_energies                          1  2.0    0.000    0.000  455.800  455.800
 ls_scf                               1  3.0    0.000    0.000  454.662  454.663
 pao_update                           7  4.0    0.007    0.029  424.757  424.758
 pao_calc_energy                    840  5.0    0.003    0.021  380.530  380.532
 dbcsr_multiply_generic           51693  8.4    1.441    1.542  359.208  359.468
 multiply_cannon                  51693  9.4    2.674    3.093  289.901  293.361
 multiply_cannon_loop             51693 10.4    1.935    2.181  278.915  282.070
 ls_scf_init_matrix_S               847  7.0    0.009    0.010  217.378  217.418
 pao_rebuild_S                      840  6.0    0.003    0.003  215.561  215.602
 matrix_sqrt_Newton_Schulz          847  8.0    0.175    0.305  201.666  201.694
 multiply_cannon_multrec         413544 11.4  183.167  186.335  184.015  187.204
 pao_dm_trs4                        840  6.0    0.006    0.007  164.548  164.603
 density_matrix_trs4                855  7.0    0.225    0.392  158.545  158.606
 mp_waitall_1                   3310100 12.6   91.520   98.938   91.520   98.938
 multiply_cannon_metrocomm3      413544 11.4    0.721    0.786   73.112   77.672
 arnoldi_extremal                  1702  8.5    0.013    0.015   57.787   57.828
 arnoldi_normal_ev                 1702  9.5    0.036    0.060   57.771   57.812
 make_m2s                        103386  9.4    0.557    0.714   52.984   54.129
 make_images                     103386 10.4    7.587    7.975   51.585   52.765
 build_subspace                    5681 10.7    0.347    0.372   50.878   50.908
 dbcsr_matrix_vector_mult        173834 11.7    0.744    1.126   47.943   48.257
 pao_calc_AB                       1115  5.8    0.002    0.002   43.759   43.761
 pao_calc_AB_equi                  1115  6.8    0.042    0.102   43.757   43.759
 pao_calc_grad_lnv_wrt_AB           274  7.0    0.021    0.026   43.328   43.361
 dbcsr_matrix_vector_mult_local  173834 12.7   40.880   41.539   41.074   41.733
 ls_scf_main                          7  4.0    0.000    0.001   26.389   26.391
 make_images_data                103386 11.4    0.906    1.090   22.661   25.194
 ls_scf_dm_to_ks                     15  5.0    0.000    0.000   23.410   23.414
 hybrid_alltoall_any             105075 12.3    0.930    1.849   17.775   21.441
 matrix_qs_to_ls                   1702  7.5    0.017    0.024   17.597   17.692
 qs_ks_update_qs_env                 16  6.0    0.000    0.000   13.923   13.926
 rebuild_ks_matrix                   16  7.0    0.000    0.000   13.911   13.915
 qs_ks_build_kohn_sham_matrix        16  8.0    0.003    0.003   13.911   13.914
 calculate_norms                 772112 11.4   12.037   13.013   12.037   13.013
 mp_sum_l                        211214  9.5    8.522   12.839    8.522   12.839
 make_images_pack                103386 11.4   11.437   11.782   11.576   11.920
 qs_rho_update_rho_low               16  6.0    0.000    0.000   10.951   10.954
 calculate_rho_elec                  16  7.0    0.005    0.006   10.951   10.954
 sum_up_and_integrate                16  9.0    0.000    0.001   10.538   10.542
 integrate_v_rspace                  16 10.0    0.000    0.001   10.523   10.528
 grid_collocate_task_list            16  8.0    9.709    9.849    9.709    9.849
 grid_integrate_task_list            16 11.0    9.278    9.404    9.278    9.404
 -------------------------------------------------------------------------------

 The number of warnings for this run is : 1
 
 -------------------------------------------------------------------------------
  **** **** ******  **  PROGRAM ENDED AT                 2024-09-23 23:08:13.244
 ***** ** ***  *** **   PROGRAM RAN ON                                    moritz
 **    ****   ******    PROGRAM RAN BY                                       ole
 ***** **    ** ** **   PROGRAM PROCESS ID                                163901
  **** **  *******  **  PROGRAM STOPPED IN /home/ole/git/pao_ml_equivar/64H2O_MD
                                           /Frame0600
