 DBCSR| CPU Multiplication driver                                           XSMM (U)
 DBCSR| Multrec recursion limit                                              512 (U)
 DBCSR| Multiplication stack size                                           1000 (D)
 DBCSR| Maximum elements for images                                    UNLIMITED (U)
 DBCSR| Multiplicative factor virtual images                                   1 (U)
 DBCSR| Use multiplication densification                                       T (D)
 DBCSR| Multiplication size stacks                                             3 (U)
 DBCSR| Use memory pool for CPU allocation                                     F (U)
 DBCSR| Number of 3D layers                                               SINGLE (U)
 DBCSR| Use MPI memory allocation                                              F (U)
 DBCSR| Use RMA algorithm                                                      F (U)
 DBCSR| Use Communication thread                                               T (U)
 DBCSR| Communication thread load                                             87 (D)
 DBCSR| MPI: My process id                                                     0
 DBCSR| MPI: Number of processes                                              32
 DBCSR| OMP: Current number of threads                                         1
 DBCSR| OMP: Max number of threads                                             1
 DBCSR| Split modifier for TAS multiplication algorithm                  1.0E+00 (U)


  **** **** ******  **  PROGRAM STARTED AT               2024-09-23 17:36:40.154
 ***** ** ***  *** **   PROGRAM STARTED ON                                moritz
 **    ****   ******    PROGRAM STARTED BY                                   ole
 ***** **    ** ** **   PROGRAM PROCESS ID                                156733
  **** **  *******  **  PROGRAM STARTED IN /home/ole/git/pao_ml_equivar/64H2O_MD
                                           /Frame2100

 CP2K| version string:                 CP2K version 2024.3 (Development Version)
 CP2K| source code revision number:                                  git:3f890bb
 CP2K| cp2kflags: omp libint fftw3 libxc libgrpp pexsi elpa parallel scalapack c
 CP2K|            osma quip deepmd xsmm plumed2 spglib libdftd4 sirius libvori l
 CP2K|            libbqb libvdwxc hdf5
 CP2K| is freely available from                            https://www.cp2k.org/
 CP2K| Program compiled at                          Mo 23 Sep 2024 17:17:04 CEST
 CP2K| Program compiled on                                                moritz
 CP2K| Program compiled for                                                local
 CP2K| Data directory path                               /home/ole/git/cp2k/data
 CP2K| Input file name                                             64H2O_ref.inp

 GLOBAL| Force Environment number                                              1
 GLOBAL| Basis set file name                                        BASIS_MOLOPT
 GLOBAL| Potential file name                                      GTH_POTENTIALS
 GLOBAL| MM Potential file name                                     MM_POTENTIAL
 GLOBAL| Coordinate file name                                         coords.xyz
 GLOBAL| Method name                                                        CP2K
 GLOBAL| Project name                                                  64H2O_ref
 GLOBAL| Run type                                                         ENERGY
 GLOBAL| FFT library                                                       FFTW3
 GLOBAL| Diagonalization library                                            ELPA
 GLOBAL| DGEMM library                                                      BLAS
 GLOBAL| Minimum number of eigenvectors for ELPA usage                        16
 GLOBAL| Orthonormality check for eigenvectors                          DISABLED
 GLOBAL| Matrix multiplication library                                     COSMA
 GLOBAL| All-to-all communication in single precision                          F
 GLOBAL| FFTs using library dependent lengths                                  F
 GLOBAL| Grid backend                                                       AUTO
 GLOBAL| Global print level                                                  LOW
 GLOBAL| MPI I/O enabled                                                       T
 GLOBAL| Total number of message passing processes                            32
 GLOBAL| Number of threads for this process                                    1
 GLOBAL| This output is from process                                           0
 GLOBAL| Stack size for threads created by OpenMP (OMP_STACKSIZE)        default
 GLOBAL| CPU model name           AMD Ryzen Threadripper 3970X 32-Core Processor
 GLOBAL| CPUID                                                              1002

 MEMORY| system memory details [Kb]
 MEMORY|                        rank 0           min           max       average
 MEMORY| MemTotal            131752136     131752136     131752136     131752136
 MEMORY| MemFree             118528228     118528228     118528228     118528228
 MEMORY| Buffers                259708        259708        259708        259708
 MEMORY| Cached                7060348       7060348       7060348       7060348
 MEMORY| Slab                   702260        702260        702260        702260
 MEMORY| SReclaimable           269172        269172        269172        269172
 MEMORY| MemLikelyFree       126117456     126117456     126117456     126117456


 GENERATE|  Preliminary Number of Bonds generated:                             0
 GENERATE|  Achieved consistency in connectivity generation.

 *******************************************************************************
 *******************************************************************************
 **                                                                           **
 **     #####                         ##              ##                      **
 **    ##   ##            ##          ##              ##                      **
 **   ##     ##                       ##            ######                    **
 **   ##     ##  ##   ##  ##   #####  ##  ##   ####   ##    #####    #####    **
 **   ##     ##  ##   ##  ##  ##      ## ##   ##      ##   ##   ##  ##   ##   **
 **   ##  ## ##  ##   ##  ##  ##      ####     ###    ##   ######   ######    **
 **    ##  ###   ##   ##  ##  ##      ## ##      ##   ##   ##       ##        **
 **     #######   #####   ##   #####  ##  ##  ####    ##    #####   ##        **
 **           ##                                                    ##        **
 **                                                                           **
 **                                                ... make the atoms dance   **
 **                                                                           **
 **            Copyright (C) by CP2K developers group (2000-2024)             **
 **                      J. Chem. Phys. 152, 194103 (2020)                    **
 **                                                                           **
 *******************************************************************************


 TOTAL NUMBERS AND MAXIMUM NUMBERS

  Total number of            - Atomic kinds:                                   2
                             - Atoms:                                        192
                             - Shell sets:                                   192
                             - Shells:                                       704
                             - Primitive Cartesian functions:               1344
                             - Cartesian basis functions:                   1536
                             - Spherical basis functions:                   1472

  Maximum angular momentum of- Orbital basis functions:                        2
                             - Local part of the GTH pseudopotential:          2
                             - Non-local part of the GTH pseudopotential:      0

 ------------------------------ Linear scaling SCF -----------------------------
 eps_scf:                                                              0.100E-07
 eps_filter:                                                           0.100E-11
 mixing_fraction:                                                      0.450E+00
 max_scf:                                                                     25
 fixed chemical potential (mu)                                                 F
 has unit metric:                                                              F
 Computing inv(S):                                                             T
 Computing sqrt(S):                                                            T
 Computing S preconditioner                                                    F
 S sqrt method:                                                     NEWTONSCHULZ
 S sqrt order:                                                                 3
 Extrapolation order:                                                          1
 S preconditioner type                                                      NONE
 Polarized Atomic Orbitals (PAO)                                               F
 Purification method                                   Trace resetting 4th order
 Cluster type                                                             ATOMIC
 Computing Chebyshev                                                       FALSE
 Using PAO                                                                     F
 -------------------------------------------------------------------------------


     Lanczos converged:  F threshold:   0.100E-02
     Est. extremal eigenvalues:    0.891E+01   0.566E-02
     Est. condition number :    0.157E+04

 Order=           3
     NS sqrt iter    1 1.00000000   0.231E+01       0.066     6103.599
     NS sqrt iter    2 1.00000000   0.120E+01       0.099     8024.584
     NS sqrt iter    3 1.00000000   0.589E+00       0.100     7953.020
     NS sqrt iter    4 1.00000000   0.338E+00       0.099     8066.942
     NS sqrt iter    5 1.00000000   0.229E+00       0.101     7929.005
     NS sqrt iter    6 1.00000000   0.110E+00       0.100     7976.185
     NS sqrt iter    7 1.00000000   0.150E-01       0.099     8034.794
     NS sqrt iter    8 1.00000000   0.930E-04       0.099     8073.049
     NS sqrt iter    9 1.00000000   0.849E-10       0.075     6004.397
     Symmetrizing Results
     Final NS sqrt iter    9 1.00000000   0.601E-11



 Guess for atomic kind: O

 Electronic structure
    Total number of core electrons                                          2.00
    Total number of valence electrons                                       6.00
    Total number of electrons                                               8.00
    Multiplicity                                                   not specified
    S   [  2.00] 2.00
    P      4.00


 *******************************************************************************
                  Iteration          Convergence                     Energy [au]
 *******************************************************************************
                          1        0.708315                     -15.576645311500
                          2        0.608879                     -15.587933561584
                          3        0.102828E-01                 -15.656849565404
                          4        0.113889E-02                 -15.656866888140
                          5        0.434197E-03                 -15.656867072159
                          6        0.263771E-03                 -15.656867091904
                          7        0.478536E-06                 -15.656867103452

 Energy components [Hartree]           Total Energy ::          -15.656867103452
                                        Band Energy ::           -3.000198112285
                                     Kinetic Energy ::           11.759971203220
                                   Potential Energy ::          -27.416838306672
                                      Virial (-V/T) ::            2.331369510426
                                        Core Energy ::          -26.140716385623
                                          XC Energy ::           -3.154051012914
                                     Coulomb Energy ::           13.637900295084
                       Total Pseudopotential Energy ::          -37.935781716540
                       Local Pseudopotential Energy ::          -39.218907440693
                    Nonlocal Pseudopotential Energy ::            1.283125724153
                                        Confinement ::            0.350941276976

 Orbital energies  State     L     Occupation   Energy[a.u.]          Energy[eV]

                       1     0          2.000      -0.864471          -23.523463

                       1     1          4.000      -0.317814           -8.648154


 Total Electron Density at R=0:                                         0.000068

 Guess for atomic kind: H

 Electronic structure
    Total number of core electrons                                          0.00
    Total number of valence electrons                                       1.00
    Total number of electrons                                               1.00
    Multiplicity                                                   not specified
    S      1.00


 *******************************************************************************
                  Iteration          Convergence                     Energy [au]
 *******************************************************************************
                          1        0.437545E-02                  -0.424159432110
                          2        0.531356E-03                  -0.424178438213
                          3        0.259176E-06                  -0.424178722480

 Energy components [Hartree]           Total Energy ::           -0.424178722480
                                        Band Energy ::           -0.199015229016
                                     Kinetic Energy ::            0.464007633961
                                   Potential Energy ::           -0.888186356441
                                      Virial (-V/T) ::            1.914163240935
                                        Core Energy ::           -0.479160803564
                                          XC Energy ::           -0.244352904054
                                     Coulomb Energy ::            0.299334985138
                       Total Pseudopotential Energy ::           -0.962295316385
                       Local Pseudopotential Energy ::           -0.962295316385
                    Nonlocal Pseudopotential Energy ::            0.000000000000
                                        Confinement ::            0.191268788606

 Orbital energies  State     L     Occupation   Energy[a.u.]          Energy[eV]

                       1     0          1.000      -0.199015           -5.415480


 Total Electron Density at R=0:                                         0.242907
 Re-scaling the density matrix to get the right number of electrons
                  # Electrons              Trace(P)               Scaling factor
                          512               512.001                        1.000
 Energy with the initial guess:     -1095.765616769

     Est. extremal eigenvalues     -0.94843     5.31661  converged:  T
     TRS4 it   1 1.00000000   0.566E+02       0.019     5413.146   0.100E-11
     TRS4 it   2 1.00000000   0.544E+02       0.019     5281.319   0.100E-11
     TRS4 it   3 1.00000000   0.343E+02       0.037     5426.610   0.100E-11
     TRS4 it   4 1.00000000   0.177E+02       0.037     5488.531   0.100E-11
     TRS4 it   5 1.00000000   0.107E+02       0.036     5501.226   0.100E-11
     TRS4 it   6 1.00000000   0.487E+01       0.036     5541.448   0.100E-11
     TRS4 it   7 1.00000000   0.145E+01       0.036     5553.942   0.100E-11
     TRS4 it   8 1.00000000   0.220E+00       0.036     5539.754   0.100E-11
     TRS4 it   9 1.00000000   0.938E-02       0.036     5557.562   0.100E-11
     TRS4 it  10 1.00000000   0.258E-04       0.036     5563.542   0.100E-11
     TRS4 it  11 1.00000000   0.641E-10       0.037     5481.209   0.100E-11
     Final TRS4 iteration   11 1.00000000   0.641E-10
     Chemical potential (mu):      -0.10671

 SCF     1     -1097.876630714     -1097.876630714    2.035758

*********************************************************
 Using MIXING_FRACTION=0.450 to mix KS matrix:  iscf=  2
 KS_nw=0.450*KS + 0.550*KS_old
*********************************************************
     Est. extremal eigenvalues     -0.83439     5.40722  converged:  T
     TRS4 it   1 1.00000000   0.557E+02       0.018     5544.393   0.100E-11
     TRS4 it   2 1.00000000   0.546E+02       0.019     5244.950   0.100E-11
     TRS4 it   3 1.00000000   0.356E+02       0.037     5490.860   0.100E-11
     TRS4 it   4 1.00000000   0.184E+02       0.036     5517.054   0.100E-11
     TRS4 it   5 1.00000000   0.118E+02       0.036     5530.010   0.100E-11
     TRS4 it   6 1.00000000   0.621E+01       0.036     5544.211   0.100E-11
     TRS4 it   7 1.00000000   0.249E+01       0.037     5480.134   0.100E-11
     TRS4 it   8 1.00000000   0.691E+00       0.036     5573.871   0.100E-11
     TRS4 it   9 1.00000000   0.105E+00       0.036     5544.149   0.100E-11
     TRS4 it  10 1.00000000   0.594E-02       0.036     5616.160   0.100E-11
     TRS4 it  11 1.00000000   0.151E-04       0.036     5546.557   0.100E-11
     TRS4 it  12 1.00000000   0.140E-09       0.036     5533.693   0.100E-11
     Final TRS4 iteration   12 1.00000000   0.140E-09
     Chemical potential (mu):      -0.01665

 SCF     2     -1102.947714310        -5.071083595    2.082375

*********************************************************
 Using MIXING_FRACTION=0.450 to mix KS matrix:  iscf=  3
 KS_nw=0.450*KS + 0.550*KS_old
*********************************************************
     Est. extremal eigenvalues     -0.84002     5.39916  converged:  F
     TRS4 it   1 1.00000000   0.558E+02       0.019     5304.229   0.100E-11
     TRS4 it   2 1.00000000   0.545E+02       0.019     5291.705   0.100E-11
     TRS4 it   3 1.00000000   0.354E+02       0.036     5500.896   0.100E-11
     TRS4 it   4 1.00000000   0.182E+02       0.037     5480.560   0.100E-11
     TRS4 it   5 1.00000000   0.116E+02       0.036     5536.428   0.100E-11
     TRS4 it   6 1.00000000   0.595E+01       0.036     5525.205   0.100E-11
     TRS4 it   7 1.00000000   0.229E+01       0.036     5504.876   0.100E-11
     TRS4 it   8 1.00000000   0.591E+00       0.036     5557.090   0.100E-11
     TRS4 it   9 1.00000000   0.772E-01       0.036     5520.337   0.100E-11
     TRS4 it  10 1.00000000   0.303E-02       0.036     5566.910   0.100E-11
     TRS4 it  11 1.00000000   0.332E-05       0.036     5512.711   0.100E-11
     TRS4 it  12 1.00000000   0.598E-11       0.036     5624.640   0.100E-11
     Final TRS4 iteration   12 1.00000000   0.598E-11
     Chemical potential (mu):      -0.02605

 SCF     3     -1103.109313894        -0.161599585    2.094653

*********************************************************
 Using MIXING_FRACTION=0.450 to mix KS matrix:  iscf=  4
 KS_nw=0.450*KS + 0.550*KS_old
*********************************************************
     Est. extremal eigenvalues     -0.83604     5.40375  converged:  F
     TRS4 it   1 1.00000000   0.558E+02       0.018     5461.100   0.100E-11
     TRS4 it   2 1.00000000   0.545E+02       0.019     5408.967   0.100E-11
     TRS4 it   3 1.00000000   0.355E+02       0.037     5486.665   0.100E-11
     TRS4 it   4 1.00000000   0.183E+02       0.036     5558.633   0.100E-11
     TRS4 it   5 1.00000000   0.117E+02       0.036     5545.801   0.100E-11
     TRS4 it   6 1.00000000   0.604E+01       0.036     5520.570   0.100E-11
     TRS4 it   7 1.00000000   0.236E+01       0.035     5667.528   0.100E-11
     TRS4 it   8 1.00000000   0.629E+00       0.035     5653.099   0.100E-11
     TRS4 it   9 1.00000000   0.885E-01       0.037     5469.569   0.100E-11
     TRS4 it  10 1.00000000   0.424E-02       0.036     5563.236   0.100E-11
     TRS4 it  11 1.00000000   0.875E-05       0.036     5574.766   0.100E-11
     TRS4 it  12 1.00000000   0.621E-10       0.036     5516.450   0.100E-11
     Final TRS4 iteration   12 1.00000000   0.621E-10
     Chemical potential (mu):      -0.01908

 SCF     4     -1103.117722010        -0.008408115    2.091406

*********************************************************
 Using MIXING_FRACTION=0.450 to mix KS matrix:  iscf=  5
 KS_nw=0.450*KS + 0.550*KS_old
*********************************************************
     Est. extremal eigenvalues     -0.83432     5.40464  converged:  F
     TRS4 it   1 1.00000000   0.558E+02       0.019     5369.293   0.100E-11
     TRS4 it   2 1.00000000   0.545E+02       0.019     5421.842   0.100E-11
     TRS4 it   3 1.00000000   0.355E+02       0.037     5400.925   0.100E-11
     TRS4 it   4 1.00000000   0.183E+02       0.036     5525.733   0.100E-11
     TRS4 it   5 1.00000000   0.117E+02       0.037     5492.872   0.100E-11
     TRS4 it   6 1.00000000   0.603E+01       0.036     5616.140   0.100E-11
     TRS4 it   7 1.00000000   0.235E+01       0.036     5525.489   0.100E-11
     TRS4 it   8 1.00000000   0.626E+00       0.037     5491.149   0.100E-11
     TRS4 it   9 1.00000000   0.879E-01       0.037     5490.058   0.100E-11
     TRS4 it  10 1.00000000   0.418E-02       0.037     5439.304   0.100E-11
     TRS4 it  11 1.00000000   0.852E-05       0.037     5469.169   0.100E-11
     TRS4 it  12 1.00000000   0.598E-10       0.036     5537.394   0.100E-11
     Final TRS4 iteration   12 1.00000000   0.598E-10
     Chemical potential (mu):      -0.01834

 SCF     5     -1103.118406780        -0.000684770    2.098340

*********************************************************
 Using MIXING_FRACTION=0.450 to mix KS matrix:  iscf=  6
 KS_nw=0.450*KS + 0.550*KS_old
*********************************************************
     Est. extremal eigenvalues     -0.83166     5.40526  converged:  T
     TRS4 it   1 1.00000000   0.557E+02       0.019     5348.296   0.100E-11
     TRS4 it   2 1.00000000   0.545E+02       0.019     5323.875   0.100E-11
     TRS4 it   3 1.00000000   0.355E+02       0.037     5409.454   0.100E-11
     TRS4 it   4 1.00000000   0.182E+02       0.036     5616.415   0.100E-11
     TRS4 it   5 1.00000000   0.117E+02       0.036     5562.222   0.100E-11
     TRS4 it   6 1.00000000   0.601E+01       0.036     5638.140   0.100E-11
     TRS4 it   7 1.00000000   0.235E+01       0.036     5520.996   0.100E-11
     TRS4 it   8 1.00000000   0.625E+00       0.036     5559.638   0.100E-11
     TRS4 it   9 1.00000000   0.883E-01       0.037     5479.007   0.100E-11
     TRS4 it  10 1.00000000   0.428E-02       0.036     5619.191   0.100E-11
     TRS4 it  11 1.00000000   0.936E-05       0.036     5563.329   0.100E-11
     TRS4 it  12 1.00000000   0.783E-10       0.036     5637.777   0.100E-11
     Final TRS4 iteration   12 1.00000000   0.783E-10
     Chemical potential (mu):      -0.01723

 SCF     6     -1103.118507901        -0.000101121    2.070510

*********************************************************
 Using MIXING_FRACTION=0.450 to mix KS matrix:  iscf=  7
 KS_nw=0.450*KS + 0.550*KS_old
*********************************************************
     Est. extremal eigenvalues     -0.83118     5.40558  converged:  T
     TRS4 it   1 1.00000000   0.557E+02       0.019     5313.489   0.100E-11
     TRS4 it   2 1.00000000   0.545E+02       0.019     5221.562   0.100E-11
     TRS4 it   3 1.00000000   0.355E+02       0.036     5502.979   0.100E-11
     TRS4 it   4 1.00000000   0.182E+02       0.036     5604.227   0.100E-11
     TRS4 it   5 1.00000000   0.117E+02       0.036     5542.192   0.100E-11
     TRS4 it   6 1.00000000   0.601E+01       0.036     5574.988   0.100E-11
     TRS4 it   7 1.00000000   0.235E+01       0.036     5566.407   0.100E-11
     TRS4 it   8 1.00000000   0.626E+00       0.036     5618.949   0.100E-11
     TRS4 it   9 1.00000000   0.885E-01       0.036     5523.989   0.100E-11
     TRS4 it  10 1.00000000   0.430E-02       0.036     5581.656   0.100E-11
     TRS4 it  11 1.00000000   0.954E-05       0.036     5607.699   0.100E-11
     TRS4 it  12 1.00000000   0.826E-10       0.036     5521.410   0.100E-11
     Final TRS4 iteration   12 1.00000000   0.826E-10
     Chemical potential (mu):      -0.01686

 SCF     7     -1103.118528978        -0.000021077    2.075150

*********************************************************
 Using MIXING_FRACTION=0.450 to mix KS matrix:  iscf=  8
 KS_nw=0.450*KS + 0.550*KS_old
*********************************************************
     Est. extremal eigenvalues     -0.83294     5.40573  converged:  F
     TRS4 it   1 1.00000000   0.558E+02       0.019     5325.700   0.100E-11
     TRS4 it   2 1.00000000   0.545E+02       0.019     5333.819   0.100E-11
     TRS4 it   3 1.00000000   0.355E+02       0.037     5482.582   0.100E-11
     TRS4 it   4 1.00000000   0.183E+02       0.037     5463.984   0.100E-11
     TRS4 it   5 1.00000000   0.117E+02       0.036     5532.260   0.100E-11
     TRS4 it   6 1.00000000   0.604E+01       0.036     5550.071   0.100E-11
     TRS4 it   7 1.00000000   0.236E+01       0.036     5554.138   0.100E-11
     TRS4 it   8 1.00000000   0.632E+00       0.036     5564.631   0.100E-11
     TRS4 it   9 1.00000000   0.899E-01       0.036     5569.299   0.100E-11
     TRS4 it  10 1.00000000   0.443E-02       0.036     5577.282   0.100E-11
     TRS4 it  11 1.00000000   0.102E-04       0.036     5549.887   0.100E-11
     TRS4 it  12 1.00000000   0.960E-10       0.036     5565.723   0.100E-11
     Final TRS4 iteration   12 1.00000000   0.960E-10
     Chemical potential (mu):      -0.01657

 SCF     8     -1103.118534019        -0.000005041    2.095175


 SCF run converged in     8 steps.

 Writing restart DM 64H2O_ref_LS_DM_SPIN_1_RESTART.dm with checksum:       0.61387807E+04

 ENERGY| Total FORCE_EVAL ( QS ) energy [a.u.]:            -1103.118534018506125

 -------------------------------------------------------------------------------
 -                                                                             -
 -                                DBCSR STATISTICS                             -
 -                                                                             -
 -------------------------------------------------------------------------------
 COUNTER                                    TOTAL       BLAS       SMM       ACC
 flops     5 x     5 x     5          79584066500       0.0%    100.0%      0.0%     
 flops    13 x     5 x     5         103013333150       0.0%    100.0%      0.0%     
 flops     5 x    13 x     5         103075467950       0.0%    100.0%      0.0%     
 flops     5 x     5 x    13         103562207450       0.0%    100.0%      0.0%     
 flops    13 x     5 x    13         134003158900       0.0%    100.0%      0.0%     
 flops     5 x    13 x    13         134152399420       0.0%    100.0%      0.0%     
 flops    13 x    13 x     5         135275803260       0.0%    100.0%      0.0%     
 flops    13 x    13 x    13         175993541100       0.0%    100.0%      0.0%     
 flops inhomo. stacks                           0       0.0%      0.0%      0.0%
 flops total                       968.659978E+09       0.0%    100.0%      0.0%
 flops max/rank                     31.073643E+09       0.0%    100.0%      0.0%
 matmuls inhomo. stacks                         0       0.0%      0.0%      0.0%
 matmuls total                         1073492365       0.0%    100.0%      0.0%
 number of processed stacks               1518767       0.0%    100.0%      0.0%
 average stack size                                     0.0     706.8       0.0
 marketing flops                     1.569237E+12
 -------------------------------------------------------------------------------
 # multiplications                            246
 max memory usage/rank             619.823104E+06
 # max total images/rank                        2
 # max 3D layers                                1
 # MPI messages exchanged                  102336
 MPI messages size (bytes):
  total size                        42.419249E+09
  min size                           0.000000E+00
  max size                         541.696000E+03
  average size                     414.509562E+03
 MPI breakdown and total messages size (bytes):
             size <=      128                 312                        0
       128 < size <=     8192                  42                   279312
      8192 < size <=    32768                  62                   841968
     32768 < size <=   131072                   0                        0
    131072 < size <=  4194304              101920              42418129600
   4194304 < size <= 16777216                   0                        0
  16777216 < size                               0                        0
 -------------------------------------------------------------------------------

 *** WARNING in dbcsr_mm.F:301 :: Using a non-square number of MPI ranks ***
 *** might lead to poor performance. Used ranks: 32 Suggested: 36 64     ***

 -------------------------------------------------------------------------------
 -                                                                             -
 -                      DBCSR MESSAGE PASSING PERFORMANCE                      -
 -                                                                             -
 -------------------------------------------------------------------------------
 ROUTINE             CALLS      AVE VOLUME [Bytes]
 MP_Bcast                9                     12.
 MP_Allreduce         1762                     34.
 MP_Alltoall           546                  34827.
 MP_ISend             8604                 171000.
 MP_IRecv             8238                 179216.
 -------------------------------------------------------------------------------

 -------------------------------------------------------------------------------
 -                                                                             -
 -                                DBM STATISTICS                               -
 -                                                                             -
 -------------------------------------------------------------------------------
    M  x    N  x    K                                          COUNT     PERCENT
 -------------------------------------------------------------------------------

 -------------------------------------------------------------------------------
 -                                                                             -
 -                                GRID STATISTICS                              -
 -                                                                             -
 -------------------------------------------------------------------------------
 LP    KERNEL             BACKEND                              COUNT     PERCENT
 2     collocate ortho    CPU                                7375788      28.83%
 2     integrate ortho    CPU                                7375788      28.83%
 3     collocate ortho    CPU                                4741326      18.53%
 3     integrate ortho    CPU                                4741326      18.53%
 4     collocate ortho    CPU                                 673461       2.63%
 4     integrate ortho    CPU                                 673461       2.63%
 0     collocate general  CPU                                   6144       0.02%
 -------------------------------------------------------------------------------

 MEMORY| Estimated peak process memory [MiB]                                 592

 -------------------------------------------------------------------------------
 -                                                                             -
 -                         MESSAGE PASSING PERFORMANCE                         -
 -                                                                             -
 -------------------------------------------------------------------------------

 ROUTINE             CALLS      AVE VOLUME [Bytes]
 MP_Group                5
 MP_Bcast             2418                 161261.
 MP_Allreduce         6482                    940.
 MP_Sync                 5
 MP_Alltoall           244               10083376.
 MP_SendRecv           837                  18832.
 MP_ISendRecv          837                  18832.
 MP_Wait              2391
 MP_ISend             1406                 108579.
 MP_IRecv             1406                 108603.
 -------------------------------------------------------------------------------


 -------------------------------------------------------------------------------
 -                                                                             -
 -                           R E F E R E N C E S                               -
 -                                                                             -
 -------------------------------------------------------------------------------
 
 CP2K version 2024.3 (Development Version), the CP2K developers group (2024).
 CP2K is freely available from https://www.cp2k.org/ .
 
 T. D. Kuehne, M. Iannuzzi, M. Del Ben, V. V. Rybkin, P. Seewald, F. Stein, T. 
 Laino, R. Z. Khaliullin, O. Schuett, F. Schiffmann, D. Golze, J. Wilhelm, S. 
 Chulkov, M. H. Bani-Hashemian, V. Weber, U. Borstnik, M. Taillefumier, A. S. 
 Jakobovits, A. Lazzaro, H. Pabst, T. Mueller, R. Schade, M. Guidon, S. 
 Andermatt, N. Holmberg, G. K. Schenter, A. Hehn, A. Bussy, F. Belleflamme, G. 
 Tabacchi, A. Gloess, M. Lass, I. Bethune, C. J. Mundy, C. Plessl, M. Watkins, 
 J. VandeVondele, M. Krack, J. Hutter.
 J. Chem. Phys. 152, 194103 (2020).
 CP2K: An electronic structure and molecular dynamics software package - 
 Quickstep: Efficient and accurate electronic structure calculations.
 https://doi.org/10.1063/5.0007045

 O. Schuett, P. Messmer, J. Hutter, J. VandeVondele.
 Electronic Structure Calculations on Graphics Processing Units, 173-190 (2016).
 GPU-Accelerated Sparse Matrix-Matrix Multiplication for Linear Scaling Density 
 Functional Theory.
 https://doi.org/10.1002/9781118670712.ch8

 A. Heinecke, G. Henry, M. Hutchinson, H. Pabst.
 Proceedings of Intl. Supercomputing Conference, 981-991 (2016).
 LIBXSMM: Accelerating Small Matrix Multiplications by Runtime Code Generation.
 https://doi.org/10.1109/SC.2016.83

 J. Hutter, M. Iannuzzi, F. Schiffmann, J. VandeVondele.
 WIREs Comput Mol Sci. 4, 15-25 (2014).
 CP2K: atomistic simulations of condensed matter systems.
 https://doi.org/10.1002/wcms.1159

 U. Borstnik, J. VandeVondele, V. Weber, J. Hutter.
 Parallel Comput. 40, 47-58 (2014).
 Sparse matrix multiplication: The distributed block-compressed sparse row 
 library.
 https://doi.org/10.1016/j.parco.2014.03.012

 A. Marek, V. Blum, R. Johanni, V. Havu, B. Lang, T. Auckenthaler, A. Heinecke, 
 H. Bungartz, H. Lederer.
 J. Phys. Condens. Matter 26, 213201 (2014).
 The ELPA library: scalable parallel eigenvalue solutions for electronic 
 structure theory and computational science.
 https://doi.org/10.1088/0953-8984/26/21/213201

 J. VandeVondele, U. Borstnik, J. Hutter.
 J. Chem. Theory Comput. 8, 3565-3573 (2012).
 Linear Scaling Self-Consistent Field Calculations with Millions of Atoms in the 
 Condensed Phase.
 https://doi.org/10.1021/ct200897x

 J. VandeVondele, J. Hutter.
 J. Chem. Phys. 127, 114105 (2007).
 Gaussian basis sets for accurate calculations on molecular systems in gas and 
 condensed phases.
 https://doi.org/10.1063/1.2770708

 J. VandeVondele, M. Krack, F. Mohamed, M. Parrinello, T. Chassaing, J. Hutter.
 Comput. Phys. Commun. 167, 103-128 (2005).
 QUICKSTEP: Fast and accurate density functional calculations using a mixed 
 Gaussian and plane waves approach.
 https://doi.org/10.1016/j.cpc.2004.12.014

 M. Krack.
 Theor. Chem. Acc. 114, 145-152 (2005).
 Pseudopotentials for H to Kr optimized for gradient-corrected 
 exchange-correlation functionals.
 https://doi.org/10.1007/s00214-005-0655-y

 M. Frigo, S. G. Johnson.
 Proc. IEEE 93, 216-231 (2005).
 The design and implementation of FFTW3.
 https://doi.org/10.1109/JPROC.2004.840301

 A. M. N. Niklasson, C. J. Tymczak, M. Challacombe.
 J. Chem. Phys. 118, 8611-8620 (2003).
 Trace resetting density matrix purification in O(N) self-consistent-field 
 theory.
 https://doi.org/10.1063/1.1559913

 C. Hartwigsen, S. Goedecker, J. Hutter.
 Phys. Rev. B 58, 3641-3662 (1998).
 Relativistic separable dual-space Gaussian pseudopotentials from H to Rn.
 https://doi.org/10.1103/PhysRevB.58.3641

 G. Lippert, J. Hutter, M. Parrinello.
 Mol. Phys. 92, 477-487 (1997).
 A hybrid Gaussian and plane wave density functional scheme.
 https://doi.org/10.1080/002689797170220

 S. Goedecker, M. Teter, J. Hutter.
 Phys. Rev. B 54, 1703-1710 (1996).
 Separable dual-space Gaussian pseudopotentials.
 https://doi.org/10.1103/PhysRevB.54.1703

 J. P. Perdew, K. Burke, M. Ernzerhof.
 Phys. Rev. Lett. 77, 3865-3868 (1996).
 Generalized gradient approximation made simple.
 https://doi.org/10.1103/PhysRevLett.77.3865


 -------------------------------------------------------------------------------
 -                                                                             -
 -                                T I M I N G                                  -
 -                                                                             -
 -------------------------------------------------------------------------------
 SUBROUTINE                       CALLS  ASD         SELF TIME        TOTAL TIME
                                MAXIMUM       AVERAGE  MAXIMUM  AVERAGE  MAXIMUM
 CP2K                                 1  1.0    0.013    0.018   20.559   20.559
 qs_energies                          1  2.0    0.000    0.000   20.373   20.373
 ls_scf                               1  3.0    0.000    0.000   19.203   19.205
 ls_scf_main                          1  4.0    0.000    0.000   16.644   16.644
 ls_scf_dm_to_ks                      8  5.0    0.000    0.000   12.368   12.372
 qs_ks_update_qs_env                  9  6.1    0.000    0.000    7.794    7.796
 rebuild_ks_matrix                    9  7.1    0.000    0.000    7.788    7.789
 qs_ks_build_kohn_sham_matrix         9  8.1    0.002    0.002    7.788    7.789
 qs_rho_update_rho_low                9  6.1    0.000    0.000    6.125    6.130
 calculate_rho_elec                   9  7.1    0.003    0.003    6.125    6.130
 sum_up_and_integrate                 9  9.1    0.000    0.000    5.893    5.894
 integrate_v_rspace                   9 10.1    0.000    0.000    5.884    5.886
 grid_collocate_task_list             9  8.1    5.436    5.533    5.436    5.533
 grid_integrate_task_list             9 11.1    5.192    5.280    5.192    5.280
 dbcsr_multiply_generic             246  6.2    0.012    0.013    4.673    4.679
 density_matrix_trs4                  8  5.0    0.004    0.005    4.271    4.275
 multiply_cannon                    246  7.2    0.018    0.022    3.801    3.850
 multiply_cannon_loop               246  8.2    0.019    0.021    3.726    3.786
 ls_scf_init_scf                      1  4.0    0.000    0.000    2.497    2.498
 multiply_cannon_multrec           1968  9.2    2.100    2.153    2.107    2.159
 mp_waitall_1                     16729 10.5    1.758    1.856    1.758    1.856
 fft_wrap_pw1pw2                    172 11.3    0.003    0.004    1.759    1.794
 fft_wrap_pw1pw2_200                100 12.8    0.104    0.110    1.688    1.740
 qs_vxc_create                        9  9.1    0.000    0.000    1.547    1.577
 xc_vxc_pw_create                     9 10.1    0.013    0.018    1.547    1.577
 ls_scf_initial_guess                 1  5.0    0.000    0.000    1.555    1.556
 ls_scf_qs_atomic_guess               1  6.0    0.000    0.000    1.555    1.556
 multiply_cannon_metrocomm3        1968  9.2    0.005    0.006    1.382    1.465
 fft3d_ps                           172 13.3    0.722    0.801    1.322    1.365
 xc_pw_derive                        54 12.1    0.001    0.001    1.098    1.182
 qs_energies_init_hamiltonians        1  3.0    0.000    0.000    1.169    1.169
 build_core_hamiltonian_matrix        1  4.0    0.000    0.000    0.749    0.979
 ls_scf_init_matrix_S                 1  5.0    0.000    0.000    0.942    0.943
 matrix_sqrt_Newton_Schulz            1  6.0    0.001    0.001    0.918    0.918
 xc_rho_set_and_dset_create           9 11.1    0.020    0.026    0.782    0.802
 xc_pw_divergence                     9 11.1    0.000    0.000    0.734    0.773
 density_rs2pw                        9  8.1    0.000    0.000    0.655    0.764
 mp_waitany                        1406 12.5    0.590    0.755    0.590    0.755
 build_core_ppl                       1  5.0    0.518    0.734    0.518    0.734
 make_m2s                           492  7.2    0.005    0.007    0.678    0.689
 make_images                        492  8.2    0.039    0.040    0.667    0.680
 transfer_rs2pw                      46  9.0    0.001    0.001    0.520    0.678
 mp_alltoall_z22v                   172 15.3    0.424    0.606    0.424    0.606
 potential_pw2rs                      9 11.1    0.001    0.001    0.598    0.600
 transfer_rs2pw_200                  10  9.8    0.029    0.037    0.415    0.573
 qs_env_update_s_mstruct              1  4.0    0.000    0.000    0.398    0.509
 arnoldi_extremal                     9  6.1    0.000    0.000    0.428    0.429
 arnoldi_normal_ev                    9  7.1    0.000    0.001    0.427    0.428
 -------------------------------------------------------------------------------

 The number of warnings for this run is : 1
 
 -------------------------------------------------------------------------------
  **** **** ******  **  PROGRAM ENDED AT                 2024-09-23 17:37:01.296
 ***** ** ***  *** **   PROGRAM RAN ON                                    moritz
 **    ****   ******    PROGRAM RAN BY                                       ole
 ***** **    ** ** **   PROGRAM PROCESS ID                                156733
  **** **  *******  **  PROGRAM STOPPED IN /home/ole/git/pao_ml_equivar/64H2O_MD
                                           /Frame2100
