 DBCSR| CPU Multiplication driver                                           XSMM (U)
 DBCSR| Multrec recursion limit                                              512 (U)
 DBCSR| Multiplication stack size                                           1000 (D)
 DBCSR| Maximum elements for images                                    UNLIMITED (U)
 DBCSR| Multiplicative factor virtual images                                   1 (U)
 DBCSR| Use multiplication densification                                       T (D)
 DBCSR| Multiplication size stacks                                             3 (U)
 DBCSR| Use memory pool for CPU allocation                                     F (U)
 DBCSR| Number of 3D layers                                               SINGLE (U)
 DBCSR| Use MPI memory allocation                                              F (U)
 DBCSR| Use RMA algorithm                                                      F (U)
 DBCSR| Use Communication thread                                               T (U)
 DBCSR| Communication thread load                                             87 (D)
 DBCSR| MPI: My process id                                                     0
 DBCSR| MPI: Number of processes                                              32
 DBCSR| OMP: Current number of threads                                         1
 DBCSR| OMP: Max number of threads                                             1
 DBCSR| Split modifier for TAS multiplication algorithm                  1.0E+00 (U)


  **** **** ******  **  PROGRAM STARTED AT               2024-09-24 00:52:32.354
 ***** ** ***  *** **   PROGRAM STARTED ON                                moritz
 **    ****   ******    PROGRAM STARTED BY                                   ole
 ***** **    ** ** **   PROGRAM PROCESS ID                                165610
  **** **  *******  **  PROGRAM STARTED IN /home/ole/git/pao_ml_equivar/64H2O_MD
                                           /Frame2100

 CP2K| version string:                 CP2K version 2024.3 (Development Version)
 CP2K| source code revision number:                                  git:3f890bb
 CP2K| cp2kflags: omp libint fftw3 libxc libgrpp pexsi elpa parallel scalapack c
 CP2K|            osma quip deepmd xsmm plumed2 spglib libdftd4 sirius libvori l
 CP2K|            libbqb libvdwxc hdf5
 CP2K| is freely available from                            https://www.cp2k.org/
 CP2K| Program compiled at                          Mo 23 Sep 2024 17:17:04 CEST
 CP2K| Program compiled on                                                moritz
 CP2K| Program compiled for                                                local
 CP2K| Data directory path                               /home/ole/git/cp2k/data
 CP2K| Input file name                                           64H2O_pao44.inp

 GLOBAL| Force Environment number                                              1
 GLOBAL| Basis set file name                                        BASIS_MOLOPT
 GLOBAL| Potential file name                                      GTH_POTENTIALS
 GLOBAL| MM Potential file name                                     MM_POTENTIAL
 GLOBAL| Coordinate file name                                         coords.xyz
 GLOBAL| Method name                                                        CP2K
 GLOBAL| Project name                                                64H2O_pao44
 GLOBAL| Run type                                                         ENERGY
 GLOBAL| FFT library                                                       FFTW3
 GLOBAL| Diagonalization library                                            ELPA
 GLOBAL| DGEMM library                                                      BLAS
 GLOBAL| Minimum number of eigenvectors for ELPA usage                        16
 GLOBAL| Orthonormality check for eigenvectors                          DISABLED
 GLOBAL| Matrix multiplication library                                     COSMA
 GLOBAL| All-to-all communication in single precision                          F
 GLOBAL| FFTs using library dependent lengths                                  F
 GLOBAL| Grid backend                                                       AUTO
 GLOBAL| Global print level                                                  LOW
 GLOBAL| MPI I/O enabled                                                       T
 GLOBAL| Total number of message passing processes                            32
 GLOBAL| Number of threads for this process                                    1
 GLOBAL| This output is from process                                           0
 GLOBAL| Stack size for threads created by OpenMP (OMP_STACKSIZE)        default
 GLOBAL| CPU model name           AMD Ryzen Threadripper 3970X 32-Core Processor
 GLOBAL| CPUID                                                              1002

 MEMORY| system memory details [Kb]
 MEMORY|                        rank 0           min           max       average
 MEMORY| MemTotal            131752136     131752136     131752136     131752136
 MEMORY| MemFree             114352572     114352572     114352572     114352572
 MEMORY| Buffers               1996880       1996880       1996880       1996880
 MEMORY| Cached                8632672       8632672       8632672       8632672
 MEMORY| Slab                  1641584       1641584       1641584       1641584
 MEMORY| SReclaimable          1143796       1143796       1143796       1143796
 MEMORY| MemLikelyFree       126125920     126125920     126125920     126125920


 GENERATE|  Preliminary Number of Bonds generated:                             0
 GENERATE|  Achieved consistency in connectivity generation.

 *******************************************************************************
 *******************************************************************************
 **                                                                           **
 **     #####                         ##              ##                      **
 **    ##   ##            ##          ##              ##                      **
 **   ##     ##                       ##            ######                    **
 **   ##     ##  ##   ##  ##   #####  ##  ##   ####   ##    #####    #####    **
 **   ##     ##  ##   ##  ##  ##      ## ##   ##      ##   ##   ##  ##   ##   **
 **   ##  ## ##  ##   ##  ##  ##      ####     ###    ##   ######   ######    **
 **    ##  ###   ##   ##  ##  ##      ## ##      ##   ##   ##       ##        **
 **     #######   #####   ##   #####  ##  ##  ####    ##    #####   ##        **
 **           ##                                                    ##        **
 **                                                                           **
 **                                                ... make the atoms dance   **
 **                                                                           **
 **            Copyright (C) by CP2K developers group (2000-2024)             **
 **                      J. Chem. Phys. 152, 194103 (2020)                    **
 **                                                                           **
 *******************************************************************************


 TOTAL NUMBERS AND MAXIMUM NUMBERS

  Total number of            - Atomic kinds:                                   2
                             - Atoms:                                        192
                             - Shell sets:                                   192
                             - Shells:                                       704
                             - Primitive Cartesian functions:               1344
                             - Cartesian basis functions:                   1536
                             - Spherical basis functions:                   1472

  Maximum angular momentum of- Orbital basis functions:                        2
                             - Local part of the GTH pseudopotential:          2
                             - Non-local part of the GTH pseudopotential:      0

 ------------------------------ Linear scaling SCF -----------------------------
 eps_scf:                                                              0.100E-07
 eps_filter:                                                           0.100E-11
 mixing_fraction:                                                      0.450E+00
 max_scf:                                                                     25
 fixed chemical potential (mu)                                                 F
 has unit metric:                                                              F
 Computing inv(S):                                                             T
 Computing sqrt(S):                                                            T
 Computing S preconditioner                                                    F
 S sqrt method:                                                     NEWTONSCHULZ
 S sqrt order:                                                                 3
 Extrapolation order:                                                          1
 S preconditioner type                                                      NONE
 Polarized Atomic Orbitals (PAO)                                               T
 Purification method                                   Trace resetting 4th order
 Cluster type                                                             ATOMIC
 Computing Chebyshev                                                       FALSE
 Using PAO                                                                     T
 -------------------------------------------------------------------------------

 
 PAO|                                  EPS_PAO                           0.5E-06
 PAO|                                  MIXING                            0.5E+00
 PAO|                                  MAX_PAO                              1500
 PAO|                                  MAX_CYCLES                           1000
 PAO|                                  PARAMETERIZATION              EQUIVARIANT
 PAO|                                  PRECONDITION                            F
 PAO|                                  REGULARIZATION                    0.0E+00
 PAO|                                  EPS_PGF                           0.1E-09
 PAO|                                  PENALTY_DISTANCE                  0.1E+00
 PAO|                                  PENALTY_STRENGTH                  0.5E-02
 PAO|                                  LINPOT_PRECONDITION_DELTA         0.0E+00
 PAO|                                  LINPOT_INITGUESS_DELT             0.0E+00
 PAO|                                  LINPOT_REGULARIZATION_DELTA       0.0E+00
 PAO|                                  LINPOT_REGULARIZATION_STRENGTH    0.0E+00
 PAO|                                  OPTIMIZER                              CG
 PAO|                                  CG_INIT_STEPS                           2
 PAO|                                  CG_RESET_LIMIT                    0.1E+00
 PAO|                                  CHECK_UNITARY_TOL                -0.1E+01
 PAO|                                  CHECK_GRADIENT_TOL               -0.1E+01
 PAO|                                  NUM_GRADIENT_ORDER                      2
 PAO|                                  NUM_GRADIENT_EPS                  0.1E-07
 PAO|                                  PRINT%RESTART%WRITE_CYCLES            100
 PAO|                                  RESTART_FILE 
 PAO|                                  PREOPT_DM_FILE 64H2O_ref_LS_DM_SPIN_1_RESTART.dm
 PAO|                                  MACHINE_LEARNING%METHOD       GAUSSIAN_PR
 PAO|                                  MACHINE_LEARNING%PRIOR               ZERO
 PAO|                                  MACHINE_LEARNING%DESCRIPTOR     POTENTIAL
 PAO|                                  MACHINE_LEARNING%TOLERANCE        0.1E-01
 PAO|                                  MACHINE_LEARNING%GP_NOISE_VAR     0.1E+00
 PAO|                                  MACHINE_LEARNING%GP_SCALE         0.5E-01
 

 Calculating atomic Fock matrix for atomic kind: O

 Electronic structure
    Total number of core electrons                                          2.00
    Total number of valence electrons                                       6.00
    Total number of electrons                                               8.00
    Multiplicity                                                   not specified
    S   [  2.00] 2.00
    P      4.00


 *******************************************************************************
                  Iteration          Convergence                     Energy [au]
 *******************************************************************************
                          1        0.708315                     -15.576645311500
                          2        0.608879                     -15.587933561584
                          3        0.102828E-01                 -15.656849565404
                          4        0.113889E-02                 -15.656866888140
                          5        0.434197E-03                 -15.656867072159
                          6        0.263771E-03                 -15.656867091904
                          7        0.478536E-06                 -15.656867103452

 Energy components [Hartree]           Total Energy ::          -15.656867103452
                                        Band Energy ::           -3.000198112285
                                     Kinetic Energy ::           11.759971203220
                                   Potential Energy ::          -27.416838306672
                                      Virial (-V/T) ::            2.331369510426
                                        Core Energy ::          -26.140716385623
                                          XC Energy ::           -3.154051012914
                                     Coulomb Energy ::           13.637900295084
                       Total Pseudopotential Energy ::          -37.935781716540
                       Local Pseudopotential Energy ::          -39.218907440693
                    Nonlocal Pseudopotential Energy ::            1.283125724153
                                        Confinement ::            0.350941276976

 Orbital energies  State     L     Occupation   Energy[a.u.]          Energy[eV]

                       1     0          2.000      -0.864471          -23.523463

                       1     1          4.000      -0.317814           -8.648154


 Total Electron Density at R=0:                                         0.000068

 Calculating atomic Fock matrix for atomic kind: H

 Electronic structure
    Total number of core electrons                                          0.00
    Total number of valence electrons                                       1.00
    Total number of electrons                                               1.00
    Multiplicity                                                   not specified
    S      1.00


 *******************************************************************************
                  Iteration          Convergence                     Energy [au]
 *******************************************************************************
                          1        0.437545E-02                  -0.424159432110
                          2        0.531356E-03                  -0.424178438213
                          3        0.259176E-06                  -0.424178722480

 Energy components [Hartree]           Total Energy ::           -0.424178722480
                                        Band Energy ::           -0.199015229016
                                     Kinetic Energy ::            0.464007633961
                                   Potential Energy ::           -0.888186356441
                                      Virial (-V/T) ::            1.914163240935
                                        Core Energy ::           -0.479160803564
                                          XC Energy ::           -0.244352904054
                                     Coulomb Energy ::            0.299334985138
                       Total Pseudopotential Energy ::           -0.962295316385
                       Local Pseudopotential Energy ::           -0.962295316385
                    Nonlocal Pseudopotential Energy ::            0.000000000000
                                        Confinement ::            0.191268788606

 Orbital energies  State     L     Occupation   Energy[a.u.]          Energy[eV]

                       1     0          1.000      -0.199015           -5.415480


 Total Electron Density at R=0:                                         0.242907
 PAO| Made initial guess for matrix_X with norm:   27.712812921102035     

     Lanczos converged:  F threshold:   0.100E-02
     Est. extremal eigenvalues:    0.634E+01   0.921E-01
     Est. condition number :    0.689E+02

 Order=           3
     NS sqrt iter    1 1.00000000   0.155E+01       0.021     2728.900
     NS sqrt iter    2 1.00000000   0.838E+00       0.034     3374.083
     NS sqrt iter    3 1.00000000   0.337E+00       0.034     3363.549
     NS sqrt iter    4 1.00000000   0.953E-01       0.034     3379.597
     NS sqrt iter    5 1.00000000   0.370E-02       0.034     3352.972
     NS sqrt iter    6 1.00000000   0.413E-06       0.029     2937.091
     Symmetrizing Results
     Final NS sqrt iter    6 1.00000000   0.307E-12

 PAO| Read restart DM 64H2O_ref_LS_DM_SPIN_1_RESTART.dm with checksum:    6138.7807004751030     
 PAO| Quickstep energy from restart density:  -1103.1185340185061     
 PAO| ======================= Iteration:         1 =============================

     Lanczos converged:  F threshold:   0.100E-02
     Est. extremal eigenvalues:    0.634E+01   0.921E-01
     Est. condition number :    0.689E+02

 Order=           3
     NS sqrt iter    1 1.00000000   0.155E+01       0.021     2725.416
     NS sqrt iter    2 1.00000000   0.838E+00       0.033     3381.801
     NS sqrt iter    3 1.00000000   0.337E+00       0.034     3379.416
     NS sqrt iter    4 1.00000000   0.953E-01       0.033     3384.802
     NS sqrt iter    5 1.00000000   0.370E-02       0.033     3382.861
     NS sqrt iter    6 1.00000000   0.413E-06       0.029     2939.978
     Symmetrizing Results
     Final NS sqrt iter    6 1.00000000   0.307E-12

     Est. extremal eigenvalues     -0.81599     2.61774  converged:  T
     TRS4 it   1 1.00000000   0.273E+02       0.007     2133.874   0.100E-11
     TRS4 it   2 1.00000000   0.236E+02       0.013     2202.301   0.100E-11
     TRS4 it   3 1.00000000   0.160E+02       0.013     2218.459   0.100E-11
     TRS4 it   4 1.00000000   0.995E+01       0.013     2229.360   0.100E-11
     TRS4 it   5 1.00000000   0.481E+01       0.013     2211.666   0.100E-11
     TRS4 it   6 1.00000000   0.161E+01       0.013     2216.430   0.100E-11
     TRS4 it   7 1.00000000   0.321E+00       0.013     2217.178   0.100E-11
     TRS4 it   8 1.00000000   0.235E-01       0.013     2237.442   0.100E-11
     TRS4 it   9 1.00000000   0.232E-03       0.013     2203.968   0.100E-11
     TRS4 it  10 1.00000000   0.290E-07       0.013     2223.466   0.100E-11
     TRS4 it  11 1.00000000   0.888E-14       0.013     2204.085   0.100E-11
     Final TRS4 iteration   11 1.00000000   0.888E-14
     Chemical potential (mu):       0.01015
 
 PAO| energy:  -186.39413221734236      penalty:   1.5247202183724868E-031
 PAO|CG| warming up with steepest descent
 PAO|CG| beta:    0.0000000000000000     
 PAO| norm of gradient:   3.9909964983067581     
 PAO|LS| adapt:  T F F
 PAO|LS| adapt: scan_steps:    0.0000000000000000        0.0000000000000000        0.0000000000000000     
 PAO|LS| adapt: energies:   -186.39413221734236        0.0000000000000000        0.0000000000000000     
 PAO| ======================= Iteration:         2 =============================

     Lanczos converged:  F threshold:   0.100E-02
     Est. extremal eigenvalues:    0.612E+01   0.100E+00
     Est. condition number :    0.611E+02

 Order=           3
     NS sqrt iter    1 1.00000000   0.151E+01       0.021     2724.235
     NS sqrt iter    2 1.00000000   0.808E+00       0.034     3368.300
     NS sqrt iter    3 1.00000000   0.316E+00       0.033     3413.457
     NS sqrt iter    4 1.00000000   0.804E-01       0.033     3393.027
     NS sqrt iter    5 1.00000000   0.232E-02       0.033     3408.252
     NS sqrt iter    6 1.00000000   0.118E-06       0.029     2948.976
     Symmetrizing Results
     Final NS sqrt iter    6 1.00000000   0.365E-13

     Est. extremal eigenvalues     -0.81906     2.61403  converged:  T
     TRS4 it   1 1.00000000   0.275E+02       0.007     2112.572   0.100E-11
     TRS4 it   2 1.00000000   0.236E+02       0.013     2227.910   0.100E-11
     TRS4 it   3 1.00000000   0.158E+02       0.013     2207.602   0.100E-11
     TRS4 it   4 1.00000000   0.975E+01       0.013     2189.144   0.100E-11
     TRS4 it   5 1.00000000   0.459E+01       0.013     2214.792   0.100E-11
     TRS4 it   6 1.00000000   0.148E+01       0.013     2210.903   0.100E-11
     TRS4 it   7 1.00000000   0.274E+00       0.013     2195.843   0.100E-11
     TRS4 it   8 1.00000000   0.169E-01       0.013     2231.732   0.100E-11
     TRS4 it   9 1.00000000   0.110E-03       0.013     2213.249   0.100E-11
     TRS4 it  10 1.00000000   0.748E-08       0.013     2220.668   0.100E-11
     TRS4 it  11 1.00000000   0.249E-13       0.013     2229.662   0.100E-11
     Final TRS4 iteration   11 1.00000000   0.249E-13
     Chemical potential (mu):       0.01590
 
 PAO| energy:  -187.85625814521856      penalty:   4.7615660372221672E-007
 PAO|LS| adapt:  T T F
 PAO|LS| adapt: scan_steps:    0.0000000000000000       0.10000000000000001        0.0000000000000000     
 PAO|LS| adapt: energies:   -186.39413221734236       -187.85625814521856        0.0000000000000000     
 PAO| ======================= Iteration:         3 =============================

     Lanczos converged:  F threshold:   0.100E-02
     Est. extremal eigenvalues:    0.589E+01   0.106E+00
     Est. condition number :    0.557E+02

 Order=           3
     NS sqrt iter    1 1.00000000   0.146E+01       0.021     2701.677
     NS sqrt iter    2 1.00000000   0.778E+00       0.033     3381.719
     NS sqrt iter    3 1.00000000   0.295E+00       0.033     3394.674
     NS sqrt iter    4 1.00000000   0.675E-01       0.034     3355.496
     NS sqrt iter    5 1.00000000   0.147E-02       0.034     3375.560
     NS sqrt iter    6 1.00000000   0.352E-07       0.029     2924.100
     Symmetrizing Results
     Final NS sqrt iter    6 1.00000000   0.407E-14

     Est. extremal eigenvalues     -0.82202     2.61568  converged:  T
     TRS4 it   1 1.00000000   0.277E+02       0.007     2146.637   0.100E-11
     TRS4 it   2 1.00000000   0.236E+02       0.013     2202.262   0.100E-11
     TRS4 it   3 1.00000000   0.157E+02       0.013     2194.343   0.100E-11
     TRS4 it   4 1.00000000   0.956E+01       0.013     2209.021   0.100E-11
     TRS4 it   5 1.00000000   0.439E+01       0.013     2211.714   0.100E-11
     TRS4 it   6 1.00000000   0.135E+01       0.013     2190.268   0.100E-11
     TRS4 it   7 1.00000000   0.232E+00       0.013     2213.929   0.100E-11
     TRS4 it   8 1.00000000   0.118E-01       0.013     2201.610   0.100E-11
     TRS4 it   9 1.00000000   0.495E-04       0.013     2198.487   0.100E-11
     TRS4 it  10 1.00000000   0.171E-08       0.013     2202.864   0.100E-11
     TRS4 it  11 1.00000000   0.249E-13       0.013     2228.892   0.100E-11
     Final TRS4 iteration   11 1.00000000   0.249E-13
     Chemical potential (mu):       0.02236
 
 PAO| energy:  -189.04034927488860      penalty:   7.6185056595829707E-006
 PAO|LS| adapt:  T T F
 PAO|LS| adapt: scan_steps:    0.0000000000000000       0.20000000000000001        0.0000000000000000     
 PAO|LS| adapt: energies:   -186.39413221734236       -189.04034927488860        0.0000000000000000     
 PAO| ======================= Iteration:         4 =============================

     Lanczos converged:  F threshold:   0.100E-02
     Est. extremal eigenvalues:    0.546E+01   0.115E+00
     Est. condition number :    0.475E+02

 Order=           3
     NS sqrt iter    1 1.00000000   0.138E+01       0.021     2684.333
     NS sqrt iter    2 1.00000000   0.719E+00       0.033     3392.797
     NS sqrt iter    3 1.00000000   0.257E+00       0.034     3374.806
     NS sqrt iter    4 1.00000000   0.475E-01       0.034     3365.905
     NS sqrt iter    5 1.00000000   0.602E-03       0.033     3411.214
     NS sqrt iter    6 1.00000000   0.320E-08       0.029     2900.156
     Symmetrizing Results
     Final NS sqrt iter    6 1.00000000   0.122E-13

     Est. extremal eigenvalues     -0.82714     2.62147  converged:  T
     TRS4 it   1 1.00000000   0.281E+02       0.007     2158.385   0.100E-11
     TRS4 it   2 1.00000000   0.236E+02       0.013     2184.102   0.100E-11
     TRS4 it   3 1.00000000   0.156E+02       0.013     2210.795   0.100E-11
     TRS4 it   4 1.00000000   0.924E+01       0.013     2237.630   0.100E-11
     TRS4 it   5 1.00000000   0.403E+01       0.013     2195.025   0.100E-11
     TRS4 it   6 1.00000000   0.114E+01       0.013     2195.804   0.100E-11
     TRS4 it   7 1.00000000   0.166E+00       0.013     2225.105   0.100E-11
     TRS4 it   8 1.00000000   0.558E-02       0.013     2246.477   0.100E-11
     TRS4 it   9 1.00000000   0.953E-05       0.013     2188.060   0.100E-11
     TRS4 it  10 1.00000000   0.757E-10       0.013     2212.242   0.100E-11
     Final TRS4 iteration   10 1.00000000   0.757E-10
     Chemical potential (mu):       0.04040
 
 PAO| energy:  -190.53138713662742      penalty:   1.2189609055354655E-004
 PAO|LS| Need extra step
 PAO|LS| adapt:  T T F
 PAO|LS| adapt: scan_steps:    0.0000000000000000       0.40000000000000002        0.0000000000000000     
 PAO|LS| adapt: energies:   -186.39413221734236       -190.53138713662742        0.0000000000000000     
 PAO| ======================= Iteration:         5 =============================

     Lanczos converged:  T threshold:   0.100E-02
     Est. extremal eigenvalues:    0.474E+01   0.130E+00
     Est. condition number :    0.366E+02

 Order=           3
     NS sqrt iter    1 1.00000000   0.123E+01       0.021     2710.808
     NS sqrt iter    2 1.00000000   0.623E+00       0.033     3383.242
     NS sqrt iter    3 1.00000000   0.197E+00       0.033     3417.495
     NS sqrt iter    4 1.00000000   0.246E-01       0.034     3362.352
     NS sqrt iter    5 1.00000000   0.111E-03       0.034     3372.710
     NS sqrt iter    6 1.00000000   0.294E-10       0.019     2285.437
     Symmetrizing Results
     Final NS sqrt iter    6 1.00000000   0.215E-11

     Est. extremal eigenvalues     -0.83097     2.62261  converged:  T
     TRS4 it   1 1.00000000   0.288E+02       0.007     2106.986   0.100E-11
     TRS4 it   2 1.00000000   0.236E+02       0.013     2187.265   0.100E-11
     TRS4 it   3 1.00000000   0.153E+02       0.013     2191.619   0.100E-11
     TRS4 it   4 1.00000000   0.876E+01       0.013     2203.077   0.100E-11
     TRS4 it   5 1.00000000   0.353E+01       0.013     2221.144   0.100E-11
     TRS4 it   6 1.00000000   0.847E+00       0.013     2215.952   0.100E-11
     TRS4 it   7 1.00000000   0.910E-01       0.013     2204.536   0.100E-11
     TRS4 it   8 1.00000000   0.158E-02       0.013     2202.736   0.100E-11
     TRS4 it   9 1.00000000   0.716E-06       0.013     2213.145   0.100E-11
     TRS4 it  10 1.00000000   0.460E-12       0.013     2197.494   0.100E-11
     Final TRS4 iteration   10 1.00000000   0.460E-12
     Chemical potential (mu):       0.06240
 
 PAO| energy:  -190.13344490524381      penalty:   1.9503374488584958E-003
 PAO|LS| Need extra step
 PAO|LS| adapt:  T T T
 PAO|LS| adapt: scan_steps:    0.0000000000000000       0.40000000000000002       0.80000000000000004     
 PAO|LS| adapt: energies:   -186.39413221734236       -190.53138713662742       -190.13344490524381     
 PAO|LS| adapt: suggested step_size:   0.56490188027879351     
 PAO|LS| adapt: predicted energy  -190.91677444486822     
 PAO| ======================= Iteration:         6 =============================

     Lanczos converged:  T threshold:   0.100E-02
     Est. extremal eigenvalues:    0.513E+01   0.121E+00
     Est. condition number :    0.423E+02

 Order=           3
     NS sqrt iter    1 1.00000000   0.131E+01       0.021     2688.704
     NS sqrt iter    2 1.00000000   0.675E+00       0.033     3389.383
     NS sqrt iter    3 1.00000000   0.229E+00       0.034     3379.979
     NS sqrt iter    4 1.00000000   0.357E-01       0.034     3379.042
     NS sqrt iter    5 1.00000000   0.294E-03       0.034     3377.986
     NS sqrt iter    6 1.00000000   0.445E-09       0.028     2745.030
     Symmetrizing Results
     Final NS sqrt iter    6 1.00000000   0.219E-12

     Est. extremal eigenvalues     -0.82996     2.62370  converged:  T
     TRS4 it   1 1.00000000   0.284E+02       0.007     2138.000   0.100E-11
     TRS4 it   2 1.00000000   0.236E+02       0.013     2203.331   0.100E-11
     TRS4 it   3 1.00000000   0.155E+02       0.013     2216.501   0.100E-11
     TRS4 it   4 1.00000000   0.902E+01       0.013     2207.820   0.100E-11
     TRS4 it   5 1.00000000   0.379E+01       0.013     2213.894   0.100E-11
     TRS4 it   6 1.00000000   0.996E+00       0.013     2165.700   0.100E-11
     TRS4 it   7 1.00000000   0.127E+00       0.013     2213.502   0.100E-11
     TRS4 it   8 1.00000000   0.313E-02       0.013     2187.056   0.100E-11
     TRS4 it   9 1.00000000   0.283E-05       0.013     2207.938   0.100E-11
     TRS4 it  10 1.00000000   0.696E-11       0.013     2194.696   0.100E-11
     Final TRS4 iteration   10 1.00000000   0.696E-11
     Chemical potential (mu):       0.05060
 
 PAO| energy:  -190.89004036760124      penalty:   4.8488850988123250E-004
 PAO|CG| warming up with steepest descent
 PAO|CG| beta:    0.0000000000000000     
 PAO| norm of gradient:   2.1122648372121517     
 PAO| energy improvement:  -4.4959081502588845     
 PAO| step      6                 -190.890040368  0.413E-02  0.565E+00     2.474
 PAO|LS| adapt:  T F F
 PAO|LS| adapt: scan_steps:    0.0000000000000000        0.0000000000000000        0.0000000000000000     
 PAO|LS| adapt: energies:   -190.89004036760124        0.0000000000000000        0.0000000000000000     
 PAO| ======================= Iteration:         7 =============================

     Lanczos converged:  T threshold:   0.100E-02
     Est. extremal eigenvalues:    0.496E+01   0.129E+00
     Est. condition number :    0.384E+02

 Order=           3
     NS sqrt iter    1 1.00000000   0.128E+01       0.021     2713.567
     NS sqrt iter    2 1.00000000   0.649E+00       0.033     3393.599
     NS sqrt iter    3 1.00000000   0.212E+00       0.033     3401.790
     NS sqrt iter    4 1.00000000   0.288E-01       0.033     3400.709
     NS sqrt iter    5 1.00000000   0.162E-03       0.033     3385.185
     NS sqrt iter    6 1.00000000   0.780E-10       0.024     2454.274
     Symmetrizing Results
     Final NS sqrt iter    6 1.00000000   0.192E-11

     Est. extremal eigenvalues     -0.83056     2.60730  converged:  T
     TRS4 it   1 1.00000000   0.285E+02       0.007     2175.391   0.100E-11
     TRS4 it   2 1.00000000   0.236E+02       0.013     2215.238   0.100E-11
     TRS4 it   3 1.00000000   0.156E+02       0.013     2172.400   0.100E-11
     TRS4 it   4 1.00000000   0.914E+01       0.013     2221.781   0.100E-11
     TRS4 it   5 1.00000000   0.389E+01       0.013     2201.368   0.100E-11
     TRS4 it   6 1.00000000   0.102E+01       0.013     2201.785   0.100E-11
     TRS4 it   7 1.00000000   0.129E+00       0.013     2194.314   0.100E-11
     TRS4 it   8 1.00000000   0.320E-02       0.013     2217.477   0.100E-11
     TRS4 it   9 1.00000000   0.293E-05       0.013     2224.185   0.100E-11
     TRS4 it  10 1.00000000   0.689E-11       0.013     2214.103   0.100E-11
     Final TRS4 iteration   10 1.00000000   0.689E-11
     Chemical potential (mu):       0.05178
 
 PAO| energy:  -189.97965767033511      penalty:   6.9074993750271158E-004
 PAO|LS| adapt:  T F T
 PAO|LS| adapt: scan_steps:    0.0000000000000000        0.0000000000000000       0.56490188027879351     
 PAO|LS| adapt: energies:   -190.89004036760124        0.0000000000000000       -189.97965767033511     
 PAO| ======================= Iteration:         8 =============================

     Lanczos converged:  T threshold:   0.100E-02
     Est. extremal eigenvalues:    0.505E+01   0.125E+00
     Est. condition number :    0.403E+02

 Order=           3
     NS sqrt iter    1 1.00000000   0.129E+01       0.021     2693.868
     NS sqrt iter    2 1.00000000   0.662E+00       0.034     3372.588
     NS sqrt iter    3 1.00000000   0.220E+00       0.034     3354.749
     NS sqrt iter    4 1.00000000   0.321E-01       0.034     3371.488
     NS sqrt iter    5 1.00000000   0.219E-03       0.033     3396.064
     NS sqrt iter    6 1.00000000   0.189E-09       0.028     2566.943
     Symmetrizing Results
     Final NS sqrt iter    6 1.00000000   0.996E-12

     Est. extremal eigenvalues     -0.83129     2.61611  converged:  T
     TRS4 it   1 1.00000000   0.285E+02       0.007     2144.609   0.100E-11
     TRS4 it   2 1.00000000   0.236E+02       0.013     2189.034   0.100E-11
     TRS4 it   3 1.00000000   0.155E+02       0.013     2212.172   0.100E-11
     TRS4 it   4 1.00000000   0.905E+01       0.013     2214.127   0.100E-11
     TRS4 it   5 1.00000000   0.382E+01       0.013     2207.785   0.100E-11
     TRS4 it   6 1.00000000   0.100E+01       0.013     2217.201   0.100E-11
     TRS4 it   7 1.00000000   0.127E+00       0.013     2210.886   0.100E-11
     TRS4 it   8 1.00000000   0.315E-02       0.013     2222.240   0.100E-11
     TRS4 it   9 1.00000000   0.294E-05       0.013     2219.860   0.100E-11
     TRS4 it  10 1.00000000   0.761E-11       0.013     2196.258   0.100E-11
     Final TRS4 iteration   10 1.00000000   0.761E-11
     Chemical potential (mu):       0.05034
 
 PAO| energy:  -191.27891952182435      penalty:   5.1561023271222666E-004
 PAO|LS| adapt:  T T T
 PAO|LS| adapt: scan_steps:    0.0000000000000000       0.28245094013939676       0.56490188027879351     
 PAO|LS| adapt: energies:   -190.89004036760124       -191.27891952182435       -189.97965767033511     
 PAO|LS| adapt: suggested step_size:   0.20629070001154254     
 PAO|LS| adapt: predicted energy  -191.34028855532608     
 PAO| ======================= Iteration:         9 =============================

     Lanczos converged:  T threshold:   0.100E-02
     Est. extremal eigenvalues:    0.507E+01   0.124E+00
     Est. condition number :    0.408E+02

 Order=           3
     NS sqrt iter    1 1.00000000   0.130E+01       0.021     2709.864
     NS sqrt iter    2 1.00000000   0.666E+00       0.033     3394.734
     NS sqrt iter    3 1.00000000   0.223E+00       0.033     3382.426
     NS sqrt iter    4 1.00000000   0.331E-01       0.034     3353.612
     NS sqrt iter    5 1.00000000   0.237E-03       0.033     3409.184
     NS sqrt iter    6 1.00000000   0.239E-09       0.028     2650.910
     Symmetrizing Results
     Final NS sqrt iter    6 1.00000000   0.705E-12

     Est. extremal eigenvalues     -0.83114     2.61829  converged:  T
     TRS4 it   1 1.00000000   0.284E+02       0.007     2126.504   0.100E-11
     TRS4 it   2 1.00000000   0.236E+02       0.013     2201.385   0.100E-11
     TRS4 it   3 1.00000000   0.155E+02       0.013     2226.540   0.100E-11
     TRS4 it   4 1.00000000   0.903E+01       0.013     2230.284   0.100E-11
     TRS4 it   5 1.00000000   0.380E+01       0.013     2220.158   0.100E-11
     TRS4 it   6 1.00000000   0.998E+00       0.013     2213.016   0.100E-11
     TRS4 it   7 1.00000000   0.126E+00       0.013     2224.198   0.100E-11
     TRS4 it   8 1.00000000   0.314E-02       0.013     2230.571   0.100E-11
     TRS4 it   9 1.00000000   0.293E-05       0.013     2209.619   0.100E-11
     TRS4 it  10 1.00000000   0.763E-11       0.013     2237.647   0.100E-11
     Final TRS4 iteration   10 1.00000000   0.763E-11
     Chemical potential (mu):       0.05025
 
 PAO| energy:  -191.34462026491110      penalty:   4.9783966340009888E-004
 PAO|CG| trace_G_new   0.73296159182499954     
 PAO|CG| trace_G_prev    4.4616627425228774     
 PAO|CG| trace_G_mix   -4.3652485967118140E-002
 PAO|CG| trace_D    4.4616627425228774     
 PAO|CG| trace_D_Gnew   4.3652485967118140E-002
 PAO|CG| beta:   0.17406382387230282     
 PAO| norm of gradient:  0.85613176078510222     
 PAO| energy improvement: -0.45457989730985560     
 PAO| step      9                 -191.344620265  0.167E-02  0.206E+00     1.505
 PAO|LS| adapt:  T F F
 PAO|LS| adapt: scan_steps:    0.0000000000000000        0.0000000000000000        0.0000000000000000     
 PAO|LS| adapt: energies:   -191.34462026491110        0.0000000000000000        0.0000000000000000     
 PAO| ======================= Iteration:        10 =============================

     Lanczos converged:  T threshold:   0.100E-02
     Est. extremal eigenvalues:    0.501E+01   0.128E+00
     Est. condition number :    0.393E+02

 Order=           3
     NS sqrt iter    1 1.00000000   0.129E+01       0.021     2670.032
     NS sqrt iter    2 1.00000000   0.657E+00       0.034     3376.247
     NS sqrt iter    3 1.00000000   0.217E+00       0.034     3376.419
     NS sqrt iter    4 1.00000000   0.307E-01       0.034     3365.014
     NS sqrt iter    5 1.00000000   0.190E-03       0.034     3364.715
     NS sqrt iter    6 1.00000000   0.122E-09       0.026     2515.968
     Symmetrizing Results
     Final NS sqrt iter    6 1.00000000   0.146E-11

     Est. extremal eigenvalues     -0.83168     2.60370  converged:  T
     TRS4 it   1 1.00000000   0.284E+02       0.007     2154.649   0.100E-11
     TRS4 it   2 1.00000000   0.235E+02       0.013     2209.439   0.100E-11
     TRS4 it   3 1.00000000   0.155E+02       0.013     2209.095   0.100E-11
     TRS4 it   4 1.00000000   0.901E+01       0.013     2210.879   0.100E-11
     TRS4 it   5 1.00000000   0.378E+01       0.013     2225.078   0.100E-11
     TRS4 it   6 1.00000000   0.985E+00       0.013     2236.241   0.100E-11
     TRS4 it   7 1.00000000   0.123E+00       0.013     2186.918   0.100E-11
     TRS4 it   8 1.00000000   0.299E-02       0.013     2221.283   0.100E-11
     TRS4 it   9 1.00000000   0.266E-05       0.013     2180.533   0.100E-11
     TRS4 it  10 1.00000000   0.631E-11       0.013     2218.151   0.100E-11
     Final TRS4 iteration   10 1.00000000   0.631E-11
     Chemical potential (mu):       0.05099
 
 PAO| energy:  -191.44478802065143      penalty:   5.0057460638172277E-004
 PAO|LS| adapt:  T T F
 PAO|LS| adapt: scan_steps:    0.0000000000000000       0.20629070001154254        0.0000000000000000     
 PAO|LS| adapt: energies:   -191.34462026491110       -191.44478802065143        0.0000000000000000     
 PAO| ======================= Iteration:        11 =============================

     Lanczos converged:  T threshold:   0.100E-02
     Est. extremal eigenvalues:    0.496E+01   0.131E+00
     Est. condition number :    0.378E+02

 Order=           3
     NS sqrt iter    1 1.00000000   0.127E+01       0.021     2708.814
     NS sqrt iter    2 1.00000000   0.648E+00       0.033     3392.890
     NS sqrt iter    3 1.00000000   0.211E+00       0.034     3369.222
     NS sqrt iter    4 1.00000000   0.285E-01       0.033     3381.661
     NS sqrt iter    5 1.00000000   0.152E-03       0.033     3385.097
     NS sqrt iter    6 1.00000000   0.618E-10       0.023     2382.387
     Symmetrizing Results
     Final NS sqrt iter    6 1.00000000   0.215E-11

     Est. extremal eigenvalues     -0.83192     2.58899  converged:  T
     TRS4 it   1 1.00000000   0.284E+02       0.007     2150.556   0.100E-11
     TRS4 it   2 1.00000000   0.235E+02       0.013     2187.851   0.100E-11
     TRS4 it   3 1.00000000   0.154E+02       0.013     2229.877   0.100E-11
     TRS4 it   4 1.00000000   0.899E+01       0.013     2217.313   0.100E-11
     TRS4 it   5 1.00000000   0.376E+01       0.013     2223.572   0.100E-11
     TRS4 it   6 1.00000000   0.971E+00       0.013     2204.855   0.100E-11
     TRS4 it   7 1.00000000   0.120E+00       0.013     2210.241   0.100E-11
     TRS4 it   8 1.00000000   0.282E-02       0.013     2239.260   0.100E-11
     TRS4 it   9 1.00000000   0.238E-05       0.013     2228.803   0.100E-11
     TRS4 it  10 1.00000000   0.507E-11       0.013     2226.653   0.100E-11
     Final TRS4 iteration   10 1.00000000   0.507E-11
     Chemical potential (mu):       0.05183
 
 PAO| energy:  -191.44873763306404      penalty:   5.1339597933982965E-004
 PAO|LS| adapt:  T T F
 PAO|LS| adapt: scan_steps:    0.0000000000000000       0.41258140002308508        0.0000000000000000     
 PAO|LS| adapt: energies:   -191.34462026491110       -191.44873763306404        0.0000000000000000     
 PAO| ======================= Iteration:        12 =============================

     Lanczos converged:  T threshold:   0.100E-02
     Est. extremal eigenvalues:    0.485E+01   0.138E+00
     Est. condition number :    0.351E+02

 Order=           3
     NS sqrt iter    1 1.00000000   0.125E+01       0.021     2682.444
     NS sqrt iter    2 1.00000000   0.630E+00       0.033     3380.671
     NS sqrt iter    3 1.00000000   0.200E+00       0.033     3394.877
     NS sqrt iter    4 1.00000000   0.245E-01       0.033     3390.123
     NS sqrt iter    5 1.00000000   0.965E-04       0.033     3412.082
     NS sqrt iter    6 1.00000000   0.154E-10       0.016     2185.244
     Symmetrizing Results
     Final NS sqrt iter    6 1.00000000   0.188E-11

     Est. extremal eigenvalues     -0.83154     2.56038  converged:  T
     TRS4 it   1 1.00000000   0.284E+02       0.007     2167.363   0.100E-11
     TRS4 it   2 1.00000000   0.233E+02       0.013     2197.869   0.100E-11
     TRS4 it   3 1.00000000   0.154E+02       0.013     2190.345   0.100E-11
     TRS4 it   4 1.00000000   0.893E+01       0.013     2225.112   0.100E-11
     TRS4 it   5 1.00000000   0.370E+01       0.013     2242.678   0.100E-11
     TRS4 it   6 1.00000000   0.939E+00       0.013     2207.982   0.100E-11
     TRS4 it   7 1.00000000   0.111E+00       0.013     2220.579   0.100E-11
     TRS4 it   8 1.00000000   0.245E-02       0.013     2222.549   0.100E-11
     TRS4 it   9 1.00000000   0.183E-05       0.013     2226.421   0.100E-11
     TRS4 it  10 1.00000000   0.301E-11       0.013     2197.806   0.100E-11
     Final TRS4 iteration   10 1.00000000   0.301E-11
     Chemical potential (mu):       0.05379
 
 PAO| energy:  -191.18528387716924      penalty:   5.7669809874589303E-004
 PAO|LS| Need extra step
 PAO|LS| adapt:  T T T
 PAO|LS| adapt: scan_steps:    0.0000000000000000       0.41258140002308508       0.82516280004617015     
 PAO|LS| adapt: energies:   -191.34462026491110       -191.44873763306404       -191.18528387716924     
 PAO|LS| adapt: suggested step_size:   0.32315757749150487     
 PAO|LS| adapt: predicted energy  -191.45737136501333     
 PAO| ======================= Iteration:        13 =============================

     Lanczos converged:  T threshold:   0.100E-02
     Est. extremal eigenvalues:    0.498E+01   0.130E+00
     Est. condition number :    0.384E+02

 Order=           3
     NS sqrt iter    1 1.00000000   0.128E+01       0.021     2699.940
     NS sqrt iter    2 1.00000000   0.652E+00       0.034     3373.859
     NS sqrt iter    3 1.00000000   0.213E+00       0.034     3363.343
     NS sqrt iter    4 1.00000000   0.294E-01       0.034     3368.083
     NS sqrt iter    5 1.00000000   0.167E-03       0.034     3372.442
     NS sqrt iter    6 1.00000000   0.831E-10       0.024     2432.963
     Symmetrizing Results
     Final NS sqrt iter    6 1.00000000   0.192E-11

     Est. extremal eigenvalues     -0.83185     2.59537  converged:  T
     TRS4 it   1 1.00000000   0.284E+02       0.007     2157.200   0.100E-11
     TRS4 it   2 1.00000000   0.235E+02       0.013     2193.475   0.100E-11
     TRS4 it   3 1.00000000   0.154E+02       0.013     2206.113   0.100E-11
     TRS4 it   4 1.00000000   0.900E+01       0.013     2230.400   0.100E-11
     TRS4 it   5 1.00000000   0.377E+01       0.013     2230.281   0.100E-11
     TRS4 it   6 1.00000000   0.977E+00       0.013     2217.785   0.100E-11
     TRS4 it   7 1.00000000   0.121E+00       0.013     2233.202   0.100E-11
     TRS4 it   8 1.00000000   0.289E-02       0.013     2219.137   0.100E-11
     TRS4 it   9 1.00000000   0.250E-05       0.013     2204.722   0.100E-11
     TRS4 it  10 1.00000000   0.560E-11       0.013     2232.084   0.100E-11
     Final TRS4 iteration   10 1.00000000   0.560E-11
     Chemical potential (mu):       0.05145
 
 PAO| energy:  -191.45857099928543      penalty:   5.0651478455875077E-004
 PAO|CG| trace_G_new   0.27344490396612603     
 PAO|CG| trace_G_prev   0.73296159182499954     
 PAO|CG| trace_G_mix   -1.1944024759765755E-002
 PAO|CG| trace_D   0.85294537062062048     
 PAO|CG| trace_D_Gnew   1.2025002296562171E-002
 PAO|CG| beta:   0.38936409753108958     
 PAO| norm of gradient:  0.52291959608158312     
 PAO| energy improvement: -0.11395073437432757     
 PAO| step     13                 -191.458570999  0.102E-02  0.323E+00     1.939
 PAO|LS| adapt:  T F F
 PAO|LS| adapt: scan_steps:    0.0000000000000000        0.0000000000000000        0.0000000000000000     
 PAO|LS| adapt: energies:   -191.45857099928543        0.0000000000000000        0.0000000000000000     
 PAO| ======================= Iteration:        14 =============================

     Lanczos converged:  T threshold:   0.100E-02
     Est. extremal eigenvalues:    0.491E+01   0.132E+00
     Est. condition number :    0.371E+02

 Order=           3
     NS sqrt iter    1 1.00000000   0.126E+01       0.021     2711.212
     NS sqrt iter    2 1.00000000   0.640E+00       0.033     3393.204
     NS sqrt iter    3 1.00000000   0.207E+00       0.034     3365.443
     NS sqrt iter    4 1.00000000   0.272E-01       0.033     3381.987
     NS sqrt iter    5 1.00000000   0.134E-03       0.033     3382.175
     NS sqrt iter    6 1.00000000   0.430E-10       0.021     2309.376
     Symmetrizing Results
     Final NS sqrt iter    6 1.00000000   0.223E-11

     Est. extremal eigenvalues     -0.83233     2.58869  converged:  T
     TRS4 it   1 1.00000000   0.285E+02       0.007     2151.619   0.100E-11
     TRS4 it   2 1.00000000   0.235E+02       0.013     2216.824   0.100E-11
     TRS4 it   3 1.00000000   0.154E+02       0.013     2189.524   0.100E-11
     TRS4 it   4 1.00000000   0.895E+01       0.013     2211.115   0.100E-11
     TRS4 it   5 1.00000000   0.372E+01       0.013     2217.600   0.100E-11
     TRS4 it   6 1.00000000   0.949E+00       0.013     2199.015   0.100E-11
     TRS4 it   7 1.00000000   0.114E+00       0.013     2211.500   0.100E-11
     TRS4 it   8 1.00000000   0.258E-02       0.013     2207.878   0.100E-11
     TRS4 it   9 1.00000000   0.200E-05       0.013     2219.438   0.100E-11
     TRS4 it  10 1.00000000   0.360E-11       0.013     2207.450   0.100E-11
     Final TRS4 iteration   10 1.00000000   0.360E-11
     Chemical potential (mu):       0.05316
 
 PAO| energy:  -191.50936980476749      penalty:   5.0812411862715388E-004
 PAO|LS| adapt:  T T F
 PAO|LS| adapt: scan_steps:    0.0000000000000000       0.32315757749150487        0.0000000000000000     
 PAO|LS| adapt: energies:   -191.45857099928543       -191.50936980476749        0.0000000000000000     
 PAO| ======================= Iteration:        15 =============================

     Lanczos converged:  T threshold:   0.100E-02
     Est. extremal eigenvalues:    0.483E+01   0.135E+00
     Est. condition number :    0.358E+02

 Order=           3
     NS sqrt iter    1 1.00000000   0.125E+01       0.021     2736.140
     NS sqrt iter    2 1.00000000   0.630E+00       0.033     3381.581
     NS sqrt iter    3 1.00000000   0.201E+00       0.034     3373.835
     NS sqrt iter    4 1.00000000   0.251E-01       0.033     3385.138
     NS sqrt iter    5 1.00000000   0.108E-03       0.034     3371.589
     NS sqrt iter    6 1.00000000   0.223E-10       0.018     2183.571
     Symmetrizing Results
     Final NS sqrt iter    6 1.00000000   0.214E-11

     Est. extremal eigenvalues     -0.83247     2.58178  converged:  T
     TRS4 it   1 1.00000000   0.285E+02       0.007     2134.831   0.100E-11
     TRS4 it   2 1.00000000   0.234E+02       0.013     2199.733   0.100E-11
     TRS4 it   3 1.00000000   0.154E+02       0.013     2209.134   0.100E-11
     TRS4 it   4 1.00000000   0.889E+01       0.013     2231.725   0.100E-11
     TRS4 it   5 1.00000000   0.366E+01       0.013     2197.167   0.100E-11
     TRS4 it   6 1.00000000   0.920E+00       0.013     2213.701   0.100E-11
     TRS4 it   7 1.00000000   0.108E+00       0.013     2210.416   0.100E-11
     TRS4 it   8 1.00000000   0.230E-02       0.013     2234.901   0.100E-11
     TRS4 it   9 1.00000000   0.161E-05       0.013     2198.460   0.100E-11
     TRS4 it  10 1.00000000   0.235E-11       0.013     2215.314   0.100E-11
     Final TRS4 iteration   10 1.00000000   0.235E-11
     Chemical potential (mu):       0.05478
 
 PAO| energy:  -191.48912116109886      penalty:   5.2398474662514335E-004
 PAO|LS| adapt:  T T T
 PAO|LS| adapt: scan_steps:    0.0000000000000000       0.32315757749150487       0.64631515498300973     
 PAO|LS| adapt: energies:   -191.45857099928543       -191.50936980476749       -191.48912116109886     
 PAO|LS| adapt: suggested step_size:   0.39263590783004687     
 PAO|LS| adapt: predicted energy  -191.51101186299405     
 PAO| ======================= Iteration:        16 =============================

     Lanczos converged:  T threshold:   0.100E-02
     Est. extremal eigenvalues:    0.489E+01   0.133E+00
     Est. condition number :    0.368E+02

 Order=           3
     NS sqrt iter    1 1.00000000   0.126E+01       0.021     2713.024
     NS sqrt iter    2 1.00000000   0.638E+00       0.033     3391.815
     NS sqrt iter    3 1.00000000   0.206E+00       0.034     3372.815
     NS sqrt iter    4 1.00000000   0.267E-01       0.034     3377.190
     NS sqrt iter    5 1.00000000   0.128E-03       0.033     3384.747
     NS sqrt iter    6 1.00000000   0.373E-10       0.020     2301.569
     Symmetrizing Results
     Final NS sqrt iter    6 1.00000000   0.223E-11

     Est. extremal eigenvalues     -0.83239     2.58722  converged:  T
     TRS4 it   1 1.00000000   0.285E+02       0.007     2161.552   0.100E-11
     TRS4 it   2 1.00000000   0.234E+02       0.013     2222.252   0.100E-11
     TRS4 it   3 1.00000000   0.154E+02       0.013     2209.112   0.100E-11
     TRS4 it   4 1.00000000   0.893E+01       0.013     2197.380   0.100E-11
     TRS4 it   5 1.00000000   0.370E+01       0.013     2224.024   0.100E-11
     TRS4 it   6 1.00000000   0.943E+00       0.013     2218.063   0.100E-11
     TRS4 it   7 1.00000000   0.113E+00       0.013     2208.152   0.100E-11
     TRS4 it   8 1.00000000   0.252E-02       0.013     2200.961   0.100E-11
     TRS4 it   9 1.00000000   0.191E-05       0.013     2215.599   0.100E-11
     TRS4 it  10 1.00000000   0.330E-11       0.013     2200.753   0.100E-11
     Final TRS4 iteration   10 1.00000000   0.330E-11
     Chemical potential (mu):       0.05352
 
 PAO| energy:  -191.51095656825296      penalty:   5.1028616252964435E-004
 PAO|CG| trace_G_new   0.10242469497630319     
 PAO|CG| trace_G_prev   0.27344490396612603     
 PAO|CG| trace_G_mix    4.3954134830886211E-003
 PAO|CG| trace_D   0.39339096715840649     
 PAO|CG| trace_D_Gnew   7.2104469057212781E-004
 PAO|CG| beta:   0.35849737944049703     
 PAO| norm of gradient:  0.32003858357439213     
 PAO| energy improvement:  -5.2385568967537210E-002
 PAO| step     16                 -191.510956568  0.625E-03  0.393E+00     1.485
 PAO|LS| adapt:  T F F
 PAO|LS| adapt: scan_steps:    0.0000000000000000        0.0000000000000000        0.0000000000000000     
 PAO|LS| adapt: energies:   -191.51095656825296        0.0000000000000000        0.0000000000000000     
 PAO| ======================= Iteration:        17 =============================

     Lanczos converged:  T threshold:   0.100E-02
     Est. extremal eigenvalues:    0.485E+01   0.134E+00
     Est. condition number :    0.363E+02

 Order=           3
     NS sqrt iter    1 1.00000000   0.125E+01       0.021     2717.103
     NS sqrt iter    2 1.00000000   0.633E+00       0.033     3388.654
     NS sqrt iter    3 1.00000000   0.203E+00       0.033     3381.896
     NS sqrt iter    4 1.00000000   0.259E-01       0.034     3373.333
     NS sqrt iter    5 1.00000000   0.117E-03       0.034     3378.251
     NS sqrt iter    6 1.00000000   0.287E-10       0.019     2242.712
     Symmetrizing Results
     Final NS sqrt iter    6 1.00000000   0.219E-11

     Est. extremal eigenvalues     -0.83248     2.58574  converged:  T
     TRS4 it   1 1.00000000   0.285E+02       0.007     2143.436   0.100E-11
     TRS4 it   2 1.00000000   0.234E+02       0.013     2226.355   0.100E-11
     TRS4 it   3 1.00000000   0.154E+02       0.013     2204.604   0.100E-11
     TRS4 it   4 1.00000000   0.889E+01       0.013     2233.922   0.100E-11
     TRS4 it   5 1.00000000   0.366E+01       0.013     2207.801   0.100E-11
     TRS4 it   6 1.00000000   0.923E+00       0.013     2231.227   0.100E-11
     TRS4 it   7 1.00000000   0.109E+00       0.013     2209.971   0.100E-11
     TRS4 it   8 1.00000000   0.233E-02       0.013     2190.625   0.100E-11
     TRS4 it   9 1.00000000   0.164E-05       0.013     2223.579   0.100E-11
     TRS4 it  10 1.00000000   0.244E-11       0.013     2209.180   0.100E-11
     Final TRS4 iteration   10 1.00000000   0.244E-11
     Chemical potential (mu):       0.05460
 
 PAO| energy:  -191.51576553118815      penalty:   5.0259972980231965E-004
 PAO|LS| adapt:  T T F
 PAO|LS| adapt: scan_steps:    0.0000000000000000       0.39263590783004687        0.0000000000000000     
 PAO|LS| adapt: energies:   -191.51095656825296       -191.51576553118815        0.0000000000000000     
 PAO| ======================= Iteration:        18 =============================

     Lanczos converged:  T threshold:   0.100E-02
     Est. extremal eigenvalues:    0.481E+01   0.134E+00
     Est. condition number :    0.358E+02

 Order=           3
     NS sqrt iter    1 1.00000000   0.124E+01       0.021     2692.647
     NS sqrt iter    2 1.00000000   0.628E+00       0.034     3372.096
     NS sqrt iter    3 1.00000000   0.200E+00       0.033     3381.608
     NS sqrt iter    4 1.00000000   0.251E-01       0.033     3397.349
     NS sqrt iter    5 1.00000000   0.107E-03       0.033     3392.408
     NS sqrt iter    6 1.00000000   0.222E-10       0.018     2207.848
     Symmetrizing Results
     Final NS sqrt iter    6 1.00000000   0.215E-11

     Est. extremal eigenvalues     -0.83244     2.58410  converged:  T
     TRS4 it   1 1.00000000   0.285E+02       0.007     2128.709   0.100E-11
     TRS4 it   2 1.00000000   0.234E+02       0.013     2189.966   0.100E-11
     TRS4 it   3 1.00000000   0.154E+02       0.013     2243.373   0.100E-11
     TRS4 it   4 1.00000000   0.885E+01       0.013     2205.242   0.100E-11
     TRS4 it   5 1.00000000   0.362E+01       0.013     2234.982   0.100E-11
     TRS4 it   6 1.00000000   0.904E+00       0.013     2193.937   0.100E-11
     TRS4 it   7 1.00000000   0.105E+00       0.013     2216.389   0.100E-11
     TRS4 it   8 1.00000000   0.216E-02       0.013     2209.525   0.100E-11
     TRS4 it   9 1.00000000   0.141E-05       0.013     2224.923   0.100E-11
     TRS4 it  10 1.00000000   0.183E-11       0.013     2231.584   0.100E-11
     Final TRS4 iteration   10 1.00000000   0.183E-11
     Chemical potential (mu):       0.05571
 
 PAO| energy:  -191.44982306350747      penalty:   5.0231164638034407E-004
 PAO|LS| adapt:  T T T
 PAO|LS| adapt: scan_steps:    0.0000000000000000       0.39263590783004687       0.78527181566009374     
 PAO|LS| adapt: energies:   -191.51095656825296       -191.51576553118815       -191.44982306350747     
 PAO|LS| adapt: suggested step_size:   0.22300535106504504     
 PAO|LS| adapt: predicted energy  -191.52236841075174     
 PAO| ======================= Iteration:        19 =============================

     Lanczos converged:  T threshold:   0.100E-02
     Est. extremal eigenvalues:    0.487E+01   0.133E+00
     Est. condition number :    0.365E+02

 Order=           3
     NS sqrt iter    1 1.00000000   0.125E+01       0.021     2683.064
     NS sqrt iter    2 1.00000000   0.635E+00       0.033     3392.408
     NS sqrt iter    3 1.00000000   0.204E+00       0.034     3358.762
     NS sqrt iter    4 1.00000000   0.262E-01       0.034     3371.352
     NS sqrt iter    5 1.00000000   0.121E-03       0.034     3369.325
     NS sqrt iter    6 1.00000000   0.321E-10       0.019     2280.881
     Symmetrizing Results
     Final NS sqrt iter    6 1.00000000   0.226E-11

     Est. extremal eigenvalues     -0.83246     2.58640  converged:  T
     TRS4 it   1 1.00000000   0.285E+02       0.007     2138.700   0.100E-11
     TRS4 it   2 1.00000000   0.234E+02       0.013     2186.196   0.100E-11
     TRS4 it   3 1.00000000   0.154E+02       0.013     2209.278   0.100E-11
     TRS4 it   4 1.00000000   0.891E+01       0.013     2219.383   0.100E-11
     TRS4 it   5 1.00000000   0.368E+01       0.013     2223.810   0.100E-11
     TRS4 it   6 1.00000000   0.931E+00       0.013     2201.632   0.100E-11
     TRS4 it   7 1.00000000   0.110E+00       0.013     2234.922   0.100E-11
     TRS4 it   8 1.00000000   0.241E-02       0.013     2225.922   0.100E-11
     TRS4 it   9 1.00000000   0.175E-05       0.013     2221.774   0.100E-11
     TRS4 it  10 1.00000000   0.278E-11       0.013     2213.497   0.100E-11
     Final TRS4 iteration   10 1.00000000   0.278E-11
     Chemical potential (mu):       0.05413
 
 PAO| energy:  -191.52235739480628      penalty:   5.0502599458083000E-004
 PAO|CG| trace_G_new    2.1272708185919427E-002
 PAO|CG| trace_G_prev   0.10242469497630319     
 PAO|CG| trace_G_mix   -3.7792971446272102E-004
 PAO|CG| trace_D   0.15246646278533849     
 PAO|CG| trace_D_Gnew  -4.1344155767955842E-005
 PAO|CG| beta:   0.21138103369886729     
 PAO| norm of gradient:  0.14585166500907498     
 PAO| energy improvement:  -1.1400826553312982E-002
 PAO| step     19                 -191.522357395  0.285E-03  0.223E+00     1.462
 PAO|LS| adapt:  T F F
 PAO|LS| adapt: scan_steps:    0.0000000000000000        0.0000000000000000        0.0000000000000000     
 PAO|LS| adapt: energies:   -191.52235739480628        0.0000000000000000        0.0000000000000000     
 PAO| ======================= Iteration:        20 =============================

     Lanczos converged:  T threshold:   0.100E-02
     Est. extremal eigenvalues:    0.486E+01   0.133E+00
     Est. condition number :    0.365E+02

 Order=           3
     NS sqrt iter    1 1.00000000   0.125E+01       0.021     2675.972
     NS sqrt iter    2 1.00000000   0.635E+00       0.034     3374.812
     NS sqrt iter    3 1.00000000   0.204E+00       0.033     3389.547
     NS sqrt iter    4 1.00000000   0.262E-01       0.034     3371.416
     NS sqrt iter    5 1.00000000   0.121E-03       0.033     3392.386
     NS sqrt iter    6 1.00000000   0.317E-10       0.019     2242.672
     Symmetrizing Results
     Final NS sqrt iter    6 1.00000000   0.225E-11

     Est. extremal eigenvalues     -0.83247     2.58501  converged:  T
     TRS4 it   1 1.00000000   0.285E+02       0.007     2186.818   0.100E-11
     TRS4 it   2 1.00000000   0.234E+02       0.013     2197.927   0.100E-11
     TRS4 it   3 1.00000000   0.154E+02       0.013     2212.968   0.100E-11
     TRS4 it   4 1.00000000   0.890E+01       0.013     2233.037   0.100E-11
     TRS4 it   5 1.00000000   0.367E+01       0.013     2265.513   0.100E-11
     TRS4 it   6 1.00000000   0.927E+00       0.013     2218.210   0.100E-11
     TRS4 it   7 1.00000000   0.110E+00       0.013     2222.933   0.100E-11
     TRS4 it   8 1.00000000   0.237E-02       0.013     2195.094   0.100E-11
     TRS4 it   9 1.00000000   0.170E-05       0.013     2204.876   0.100E-11
     TRS4 it  10 1.00000000   0.260E-11       0.013     2228.079   0.100E-11
     Final TRS4 iteration   10 1.00000000   0.260E-11
     Chemical potential (mu):       0.05430
 
 PAO| energy:  -191.52617716979358      penalty:   4.9518376357085602E-004
 PAO|LS| adapt:  T T F
 PAO|LS| adapt: scan_steps:    0.0000000000000000       0.22300535106504504        0.0000000000000000     
 PAO|LS| adapt: energies:   -191.52235739480628       -191.52617716979358        0.0000000000000000     
 PAO| ======================= Iteration:        21 =============================

     Lanczos converged:  T threshold:   0.100E-02
     Est. extremal eigenvalues:    0.486E+01   0.133E+00
     Est. condition number :    0.364E+02

 Order=           3
     NS sqrt iter    1 1.00000000   0.125E+01       0.021     2708.173
     NS sqrt iter    2 1.00000000   0.634E+00       0.034     3357.639
     NS sqrt iter    3 1.00000000   0.204E+00       0.034     3335.751
     NS sqrt iter    4 1.00000000   0.262E-01       0.034     3367.036
     NS sqrt iter    5 1.00000000   0.121E-03       0.034     3300.710
     NS sqrt iter    6 1.00000000   0.313E-10       0.019     2263.584
     Symmetrizing Results
     Final NS sqrt iter    6 1.00000000   0.225E-11

     Est. extremal eigenvalues     -0.83248     2.58360  converged:  T
     TRS4 it   1 1.00000000   0.285E+02       0.007     2144.654   0.100E-11
     TRS4 it   2 1.00000000   0.234E+02       0.013     2237.811   0.100E-11
     TRS4 it   3 1.00000000   0.154E+02       0.013     2198.562   0.100E-11
     TRS4 it   4 1.00000000   0.888E+01       0.013     2219.289   0.100E-11
     TRS4 it   5 1.00000000   0.366E+01       0.013     2221.408   0.100E-11
     TRS4 it   6 1.00000000   0.923E+00       0.013     2215.928   0.100E-11
     TRS4 it   7 1.00000000   0.109E+00       0.013     2204.434   0.100E-11
     TRS4 it   8 1.00000000   0.234E-02       0.013     2207.008   0.100E-11
     TRS4 it   9 1.00000000   0.165E-05       0.013     2193.411   0.100E-11
     TRS4 it  10 1.00000000   0.246E-11       0.013     2229.339   0.100E-11
     Final TRS4 iteration   10 1.00000000   0.246E-11
     Chemical potential (mu):       0.05448
 
 PAO| energy:  -191.52813119252181      penalty:   4.8578556904147548E-004
 PAO|LS| adapt:  T T F
 PAO|LS| adapt: scan_steps:    0.0000000000000000       0.44601070213009009        0.0000000000000000     
 PAO|LS| adapt: energies:   -191.52235739480628       -191.52813119252181        0.0000000000000000     
 PAO| ======================= Iteration:        22 =============================

     Lanczos converged:  T threshold:   0.100E-02
     Est. extremal eigenvalues:    0.484E+01   0.133E+00
     Est. condition number :    0.364E+02

 Order=           3
     NS sqrt iter    1 1.00000000   0.125E+01       0.021     2711.796
     NS sqrt iter    2 1.00000000   0.633E+00       0.033     3382.430
     NS sqrt iter    3 1.00000000   0.204E+00       0.034     3359.288
     NS sqrt iter    4 1.00000000   0.262E-01       0.033     3387.896
     NS sqrt iter    5 1.00000000   0.120E-03       0.033     3395.862
     NS sqrt iter    6 1.00000000   0.307E-10       0.019     2282.049
     Symmetrizing Results
     Final NS sqrt iter    6 1.00000000   0.226E-11

     Est. extremal eigenvalues     -0.83248     2.58075  converged:  T
     TRS4 it   1 1.00000000   0.285E+02       0.007     2161.542   0.100E-11
     TRS4 it   2 1.00000000   0.234E+02       0.013     2227.868   0.100E-11
     TRS4 it   3 1.00000000   0.154E+02       0.013     2222.346   0.100E-11
     TRS4 it   4 1.00000000   0.886E+01       0.013     2219.516   0.100E-11
     TRS4 it   5 1.00000000   0.364E+01       0.013     2207.080   0.100E-11
     TRS4 it   6 1.00000000   0.914E+00       0.013     2214.987   0.100E-11
     TRS4 it   7 1.00000000   0.107E+00       0.013     2219.938   0.100E-11
     TRS4 it   8 1.00000000   0.227E-02       0.013     2238.512   0.100E-11
     TRS4 it   9 1.00000000   0.156E-05       0.013     2225.213   0.100E-11
     TRS4 it  10 1.00000000   0.221E-11       0.013     2239.144   0.100E-11
     Final TRS4 iteration   10 1.00000000   0.221E-11
     Chemical potential (mu):       0.05484
 
 PAO| energy:  -191.52636009184627      penalty:   4.6829195892119182E-004
 PAO|LS| Need extra step
 PAO|LS| adapt:  T T T
 PAO|LS| adapt: scan_steps:    0.0000000000000000       0.44601070213009009       0.89202140426018017     
 PAO|LS| adapt: energies:   -191.52235739480628       -191.52813119252181       -191.52636009184627     
 PAO|LS| adapt: suggested step_size:   0.56431883728890464     
 PAO|LS| adapt: predicted energy  -191.52839662988697     
 PAO| ======================= Iteration:        23 =============================

     Lanczos converged:  T threshold:   0.100E-02
     Est. extremal eigenvalues:    0.485E+01   0.133E+00
     Est. condition number :    0.364E+02

 Order=           3
     NS sqrt iter    1 1.00000000   0.125E+01       0.021     2713.320
     NS sqrt iter    2 1.00000000   0.634E+00       0.033     3411.125
     NS sqrt iter    3 1.00000000   0.204E+00       0.033     3397.493
     NS sqrt iter    4 1.00000000   0.262E-01       0.033     3403.945
     NS sqrt iter    5 1.00000000   0.121E-03       0.034     3358.854
     NS sqrt iter    6 1.00000000   0.312E-10       0.019     2259.720
     Symmetrizing Results
     Final NS sqrt iter    6 1.00000000   0.226E-11

     Est. extremal eigenvalues     -0.83248     2.58285  converged:  T
     TRS4 it   1 1.00000000   0.285E+02       0.007     2154.914   0.100E-11
     TRS4 it   2 1.00000000   0.234E+02       0.013     2224.218   0.100E-11
     TRS4 it   3 1.00000000   0.154E+02       0.013     2211.589   0.100E-11
     TRS4 it   4 1.00000000   0.888E+01       0.013     2201.482   0.100E-11
     TRS4 it   5 1.00000000   0.366E+01       0.013     2229.536   0.100E-11
     TRS4 it   6 1.00000000   0.920E+00       0.013     2189.836   0.100E-11
     TRS4 it   7 1.00000000   0.108E+00       0.013     2179.915   0.100E-11
     TRS4 it   8 1.00000000   0.232E-02       0.013     2211.831   0.100E-11
     TRS4 it   9 1.00000000   0.163E-05       0.013     2209.057   0.100E-11
     TRS4 it  10 1.00000000   0.236E-11       0.013     2183.085   0.100E-11
     Final TRS4 iteration   10 1.00000000   0.236E-11
     Chemical potential (mu):       0.05457
 
 PAO| energy:  -191.52840337924991      penalty:   4.8097723547079965E-004
 PAO|CG| trace_G_new    1.6849128864999133E-002
 PAO|CG| trace_G_prev    2.1272708185919427E-002
 PAO|CG| trace_G_mix    1.0732184018463211E-004
 PAO|CG| trace_D    2.8102684483485480E-002
 PAO|CG| trace_D_Gnew  -4.8465600485374225E-005
 PAO|CG| beta:   0.78700872867216953     
 PAO| norm of gradient:  0.12980419432745280     
 PAO| energy improvement:  -6.0459844436309140E-003
 PAO| step     23                 -191.528403379  0.254E-03  0.564E+00     1.884
 PAO|LS| adapt:  T F F
 PAO|LS| adapt: scan_steps:    0.0000000000000000        0.0000000000000000        0.0000000000000000     
 PAO|LS| adapt: energies:   -191.52840337924991        0.0000000000000000        0.0000000000000000     
 PAO| ======================= Iteration:        24 =============================

     Lanczos converged:  T threshold:   0.100E-02
     Est. extremal eigenvalues:    0.484E+01   0.133E+00
     Est. condition number :    0.364E+02

 Order=           3
     NS sqrt iter    1 1.00000000   0.125E+01       0.021     2707.275
     NS sqrt iter    2 1.00000000   0.632E+00       0.033     3390.739
     NS sqrt iter    3 1.00000000   0.203E+00       0.033     3387.297
     NS sqrt iter    4 1.00000000   0.261E-01       0.033     3386.470
     NS sqrt iter    5 1.00000000   0.120E-03       0.034     3353.225
     NS sqrt iter    6 1.00000000   0.309E-10       0.019     2275.525
     Symmetrizing Results
     Final NS sqrt iter    6 1.00000000   0.225E-11

     Est. extremal eigenvalues     -0.83250     2.57881  converged:  T
     TRS4 it   1 1.00000000   0.285E+02       0.007     2158.981   0.100E-11
     TRS4 it   2 1.00000000   0.234E+02       0.013     2220.370   0.100E-11
     TRS4 it   3 1.00000000   0.154E+02       0.013     2189.728   0.100E-11
     TRS4 it   4 1.00000000   0.885E+01       0.013     2217.909   0.100E-11
     TRS4 it   5 1.00000000   0.363E+01       0.013     2202.105   0.100E-11
     TRS4 it   6 1.00000000   0.911E+00       0.013     2198.331   0.100E-11
     TRS4 it   7 1.00000000   0.106E+00       0.013     2238.744   0.100E-11
     TRS4 it   8 1.00000000   0.224E-02       0.013     2219.166   0.100E-11
     TRS4 it   9 1.00000000   0.153E-05       0.013     2193.992   0.100E-11
     TRS4 it  10 1.00000000   0.210E-11       0.013     2230.618   0.100E-11
     Final TRS4 iteration   10 1.00000000   0.210E-11
     Chemical potential (mu):       0.05495
 
 PAO| energy:  -191.53171432731972      penalty:   4.4311941565941196E-004
 PAO|LS| adapt:  T T F
 PAO|LS| adapt: scan_steps:    0.0000000000000000       0.56431883728890464        0.0000000000000000     
 PAO|LS| adapt: energies:   -191.52840337924991       -191.53171432731972        0.0000000000000000     
 PAO| ======================= Iteration:        25 =============================

     Lanczos converged:  T threshold:   0.100E-02
     Est. extremal eigenvalues:    0.482E+01   0.133E+00
     Est. condition number :    0.363E+02

 Order=           3
     NS sqrt iter    1 1.00000000   0.124E+01       0.021     2706.904
     NS sqrt iter    2 1.00000000   0.631E+00       0.033     3393.817
     NS sqrt iter    3 1.00000000   0.203E+00       0.034     3367.773
     NS sqrt iter    4 1.00000000   0.261E-01       0.034     3368.656
     NS sqrt iter    5 1.00000000   0.120E-03       0.034     3379.772
     NS sqrt iter    6 1.00000000   0.308E-10       0.019     2234.330
     Symmetrizing Results
     Final NS sqrt iter    6 1.00000000   0.223E-11

     Est. extremal eigenvalues     -0.83250     2.57458  converged:  T
     TRS4 it   1 1.00000000   0.285E+02       0.007     2140.821   0.100E-11
     TRS4 it   2 1.00000000   0.233E+02       0.013     2218.206   0.100E-11
     TRS4 it   3 1.00000000   0.153E+02       0.013     2221.820   0.100E-11
     TRS4 it   4 1.00000000   0.882E+01       0.013     2226.228   0.100E-11
     TRS4 it   5 1.00000000   0.361E+01       0.013     2201.456   0.100E-11
     TRS4 it   6 1.00000000   0.901E+00       0.013     2235.124   0.100E-11
     TRS4 it   7 1.00000000   0.105E+00       0.013     2203.162   0.100E-11
     TRS4 it   8 1.00000000   0.217E-02       0.013     2233.471   0.100E-11
     TRS4 it   9 1.00000000   0.143E-05       0.013     2212.965   0.100E-11
     TRS4 it  10 1.00000000   0.185E-11       0.013     2207.522   0.100E-11
     Final TRS4 iteration   10 1.00000000   0.185E-11
     Chemical potential (mu):       0.05532
 
 PAO| energy:  -191.52236427883940      penalty:   4.0937935500239914E-004
 PAO|LS| adapt:  T T T
 PAO|LS| adapt: scan_steps:    0.0000000000000000       0.56431883728890464        1.1286376745778093     
 PAO|LS| adapt: energies:   -191.52840337924991       -191.53171432731972       -191.52236427883940     
 PAO|LS| adapt: suggested step_size:   0.42973313906070360     
 PAO|LS| adapt: predicted energy  -191.53207439705855     
 PAO| ======================= Iteration:        26 =============================

     Lanczos converged:  T threshold:   0.100E-02
     Est. extremal eigenvalues:    0.484E+01   0.133E+00
     Est. condition number :    0.364E+02

 Order=           3
     NS sqrt iter    1 1.00000000   0.125E+01       0.021     2710.979
     NS sqrt iter    2 1.00000000   0.633E+00       0.033     3385.469
     NS sqrt iter    3 1.00000000   0.203E+00       0.033     3391.489
     NS sqrt iter    4 1.00000000   0.261E-01       0.034     3369.384
     NS sqrt iter    5 1.00000000   0.120E-03       0.033     3388.507
     NS sqrt iter    6 1.00000000   0.309E-10       0.019     2254.671
     Symmetrizing Results
     Final NS sqrt iter    6 1.00000000   0.225E-11

     Est. extremal eigenvalues     -0.83249     2.57979  converged:  T
     TRS4 it   1 1.00000000   0.285E+02       0.007     2148.400   0.100E-11
     TRS4 it   2 1.00000000   0.234E+02       0.013     2195.937   0.100E-11
     TRS4 it   3 1.00000000   0.154E+02       0.013     2220.718   0.100E-11
     TRS4 it   4 1.00000000   0.886E+01       0.013     2210.545   0.100E-11
     TRS4 it   5 1.00000000   0.364E+01       0.013     2204.319   0.100E-11
     TRS4 it   6 1.00000000   0.913E+00       0.013     2217.515   0.100E-11
     TRS4 it   7 1.00000000   0.107E+00       0.013     2215.369   0.100E-11
     TRS4 it   8 1.00000000   0.226E-02       0.013     2205.951   0.100E-11
     TRS4 it   9 1.00000000   0.155E-05       0.013     2225.887   0.100E-11
     TRS4 it  10 1.00000000   0.217E-11       0.013     2216.613   0.100E-11
     Final TRS4 iteration   10 1.00000000   0.217E-11
     Chemical potential (mu):       0.05486
 
 PAO| energy:  -191.53206174418278      penalty:   4.5176688835171146E-004
 PAO|CG| trace_G_new    1.3339276103298022E-002
 PAO|CG| trace_G_prev    1.6849128864999133E-002
 PAO|CG| trace_G_mix    2.6482700389911267E-004
 PAO|CG| trace_D    3.4331732255051629E-002
 PAO|CG| trace_D_Gnew  -8.2450297778953485E-005
 PAO|CG| beta:   0.77597181457603992     
 PAO| norm of gradient:  0.11549578392001165     
 PAO| energy improvement:  -3.6583649328747470E-003
 PAO| step     26                 -191.532061744  0.226E-03  0.430E+00     1.453
 PAO|LS| adapt:  T F F
 PAO|LS| adapt: scan_steps:    0.0000000000000000        0.0000000000000000        0.0000000000000000     
 PAO|LS| adapt: energies:   -191.53206174418278        0.0000000000000000        0.0000000000000000     
 PAO| ======================= Iteration:        27 =============================

     Lanczos converged:  T threshold:   0.100E-02
     Est. extremal eigenvalues:    0.482E+01   0.133E+00
     Est. condition number :    0.364E+02

 Order=           3
     NS sqrt iter    1 1.00000000   0.124E+01       0.021     2729.275
     NS sqrt iter    2 1.00000000   0.631E+00       0.033     3410.426
     NS sqrt iter    3 1.00000000   0.203E+00       0.034     3364.677
     NS sqrt iter    4 1.00000000   0.260E-01       0.033     3387.474
     NS sqrt iter    5 1.00000000   0.120E-03       0.034     3364.334
     NS sqrt iter    6 1.00000000   0.308E-10       0.019     2265.053
     Symmetrizing Results
     Final NS sqrt iter    6 1.00000000   0.224E-11

     Est. extremal eigenvalues     -0.83251     2.57739  converged:  T
     TRS4 it   1 1.00000000   0.285E+02       0.007     2155.733   0.100E-11
     TRS4 it   2 1.00000000   0.234E+02       0.013     2197.397   0.100E-11
     TRS4 it   3 1.00000000   0.153E+02       0.013     2220.176   0.100E-11
     TRS4 it   4 1.00000000   0.884E+01       0.013     2193.396   0.100E-11
     TRS4 it   5 1.00000000   0.362E+01       0.013     2226.968   0.100E-11
     TRS4 it   6 1.00000000   0.905E+00       0.013     2203.752   0.100E-11
     TRS4 it   7 1.00000000   0.105E+00       0.013     2213.538   0.100E-11
     TRS4 it   8 1.00000000   0.219E-02       0.013     2192.201   0.100E-11
     TRS4 it   9 1.00000000   0.146E-05       0.013     2214.418   0.100E-11
     TRS4 it  10 1.00000000   0.196E-11       0.013     2226.651   0.100E-11
     Final TRS4 iteration   10 1.00000000   0.196E-11
     Chemical potential (mu):       0.05522
 
 PAO| energy:  -191.53474046866830      penalty:   4.1581829249107914E-004
 PAO|LS| adapt:  T T F
 PAO|LS| adapt: scan_steps:    0.0000000000000000       0.42973313906070360        0.0000000000000000     
 PAO|LS| adapt: energies:   -191.53206174418278       -191.53474046866830        0.0000000000000000     
 PAO| ======================= Iteration:        28 =============================

     Lanczos converged:  T threshold:   0.100E-02
     Est. extremal eigenvalues:    0.481E+01   0.132E+00
     Est. condition number :    0.364E+02

 Order=           3
     NS sqrt iter    1 1.00000000   0.124E+01       0.021     2703.171
     NS sqrt iter    2 1.00000000   0.629E+00       0.034     3375.124
     NS sqrt iter    3 1.00000000   0.202E+00       0.033     3388.854
     NS sqrt iter    4 1.00000000   0.259E-01       0.034     3374.705
     NS sqrt iter    5 1.00000000   0.119E-03       0.034     3377.346
     NS sqrt iter    6 1.00000000   0.308E-10       0.019     2267.292
     Symmetrizing Results
     Final NS sqrt iter    6 1.00000000   0.222E-11

     Est. extremal eigenvalues     -0.83252     2.57484  converged:  T
     TRS4 it   1 1.00000000   0.285E+02       0.007     2154.349   0.100E-11
     TRS4 it   2 1.00000000   0.233E+02       0.013     2215.502   0.100E-11
     TRS4 it   3 1.00000000   0.153E+02       0.013     2219.982   0.100E-11
     TRS4 it   4 1.00000000   0.882E+01       0.013     2211.799   0.100E-11
     TRS4 it   5 1.00000000   0.360E+01       0.013     2232.897   0.100E-11
     TRS4 it   6 1.00000000   0.897E+00       0.013     2228.786   0.100E-11
     TRS4 it   7 1.00000000   0.104E+00       0.013     2230.020   0.100E-11
     TRS4 it   8 1.00000000   0.213E-02       0.013     2194.884   0.100E-11
     TRS4 it   9 1.00000000   0.138E-05       0.013     2229.011   0.100E-11
     TRS4 it  10 1.00000000   0.171E-11       0.013     2240.826   0.100E-11
     Final TRS4 iteration   10 1.00000000   0.171E-11
     Chemical potential (mu):       0.05559
 
 PAO| energy:  -191.53119664927684      penalty:   3.8298193519634805E-004
 PAO|LS| adapt:  T T T
 PAO|LS| adapt: scan_steps:    0.0000000000000000       0.42973313906070360       0.85946627812140719     
 PAO|LS| adapt: energies:   -191.53206174418278       -191.53474046866830       -191.53119664927684     
 PAO|LS| adapt: suggested step_size:   0.39986111590848433     
 PAO|LS| adapt: predicted energy  -191.53475550249553     
 PAO| ======================= Iteration:        29 =============================

     Lanczos converged:  T threshold:   0.100E-02
     Est. extremal eigenvalues:    0.482E+01   0.133E+00
     Est. condition number :    0.364E+02

 Order=           3
     NS sqrt iter    1 1.00000000   0.124E+01       0.021     2682.590
     NS sqrt iter    2 1.00000000   0.631E+00       0.033     3384.354
     NS sqrt iter    3 1.00000000   0.203E+00       0.033     3399.882
     NS sqrt iter    4 1.00000000   0.260E-01       0.033     3382.912
     NS sqrt iter    5 1.00000000   0.120E-03       0.033     3384.381
     NS sqrt iter    6 1.00000000   0.308E-10       0.019     2264.583
     Symmetrizing Results
     Final NS sqrt iter    6 1.00000000   0.224E-11

     Est. extremal eigenvalues     -0.83251     2.57756  converged:  T
     TRS4 it   1 1.00000000   0.285E+02       0.007     2168.776   0.100E-11
     TRS4 it   2 1.00000000   0.234E+02       0.013     2211.178   0.100E-11
     TRS4 it   3 1.00000000   0.153E+02       0.013     2221.193   0.100E-11
     TRS4 it   4 1.00000000   0.884E+01       0.013     2222.584   0.100E-11
     TRS4 it   5 1.00000000   0.362E+01       0.013     2184.998   0.100E-11
     TRS4 it   6 1.00000000   0.906E+00       0.013     2205.558   0.100E-11
     TRS4 it   7 1.00000000   0.105E+00       0.013     2218.199   0.100E-11
     TRS4 it   8 1.00000000   0.220E-02       0.013     2233.517   0.100E-11
     TRS4 it   9 1.00000000   0.147E-05       0.013     2216.011   0.100E-11
[...]
     TRS4 it   3 1.00000000   0.155E+02       0.013     2228.330   0.100E-11
     TRS4 it   4 1.00000000   0.916E+01       0.013     2216.558   0.100E-11
     TRS4 it   5 1.00000000   0.411E+01       0.013     2212.235   0.100E-11
     TRS4 it   6 1.00000000   0.129E+01       0.013     2211.001   0.100E-11
     TRS4 it   7 1.00000000   0.228E+00       0.013     2222.244   0.100E-11
     TRS4 it   8 1.00000000   0.114E-01       0.013     2199.304   0.100E-11
     TRS4 it   9 1.00000000   0.423E-04       0.013     2202.884   0.100E-11
     TRS4 it  10 1.00000000   0.130E-08       0.013     2215.166   0.100E-11
     TRS4 it  11 1.00000000   0.711E-14       0.013     2217.755   0.100E-11
     Final TRS4 iteration   11 1.00000000   0.711E-14
     Chemical potential (mu):       0.02485
 
 PAO| energy:  -191.15158027065411      penalty:   1.6038380351988591E-008
 PAO| Writing restart file.
     Est. extremal eigenvalues     -0.83236     2.56525  converged:  T
     TRS4 it   1 1.00000000   0.287E+02       0.007     2166.901   0.100E-11
     TRS4 it   2 1.00000000   0.235E+02       0.013     2208.861   0.100E-11
     TRS4 it   3 1.00000000   0.155E+02       0.013     2217.349   0.100E-11
     TRS4 it   4 1.00000000   0.916E+01       0.013     2195.538   0.100E-11
     TRS4 it   5 1.00000000   0.411E+01       0.013     2211.950   0.100E-11
     TRS4 it   6 1.00000000   0.129E+01       0.013     2198.570   0.100E-11
     TRS4 it   7 1.00000000   0.228E+00       0.013     2223.199   0.100E-11
     TRS4 it   8 1.00000000   0.114E-01       0.013     2215.456   0.100E-11
     TRS4 it   9 1.00000000   0.423E-04       0.013     2212.536   0.100E-11
     TRS4 it  10 1.00000000   0.130E-08       0.013     2205.257   0.100E-11
     TRS4 it  11 1.00000000   0.711E-14       0.013     2185.476   0.100E-11
     Final TRS4 iteration   11 1.00000000   0.711E-14
     Chemical potential (mu):       0.02485

 SCF     1     -1103.026409110     -1103.026409110    1.765415

*********************************************************
 Using MIXING_FRACTION=0.450 to mix KS matrix:  iscf=  2
 KS_nw=0.450*KS + 0.550*KS_old
*********************************************************
     Est. extremal eigenvalues     -0.83236     2.56525  converged:  T
     TRS4 it   1 1.00000000   0.287E+02       0.007     2099.949   0.100E-11
     TRS4 it   2 1.00000000   0.235E+02       0.013     2226.500   0.100E-11
     TRS4 it   3 1.00000000   0.155E+02       0.013     2193.468   0.100E-11
     TRS4 it   4 1.00000000   0.916E+01       0.013     2224.274   0.100E-11
     TRS4 it   5 1.00000000   0.411E+01       0.013     2212.683   0.100E-11
     TRS4 it   6 1.00000000   0.129E+01       0.013     2192.248   0.100E-11
     TRS4 it   7 1.00000000   0.228E+00       0.013     2223.211   0.100E-11
     TRS4 it   8 1.00000000   0.114E-01       0.013     2220.479   0.100E-11
     TRS4 it   9 1.00000000   0.423E-04       0.013     2201.478   0.100E-11
     TRS4 it  10 1.00000000   0.130E-08       0.013     2203.055   0.100E-11
     TRS4 it  11 1.00000000   0.107E-13       0.013     2209.800   0.100E-11
     Final TRS4 iteration   11 1.00000000   0.107E-13
     Chemical potential (mu):       0.02485

 SCF     2     -1103.026409110        -0.000000000    1.765687


 SCF run converged in     2 steps.

 PAO| Storing density matrix for ASPC guess in slot:           1

 ENERGY| Total FORCE_EVAL ( QS ) energy [a.u.]:            -1103.026409109878614

 -------------------------------------------------------------------------------
 -                                                                             -
 -                                DBCSR STATISTICS                             -
 -                                                                             -
 -------------------------------------------------------------------------------
 COUNTER                                    TOTAL       BLAS       SMM       ACC
 flops     5 x     5 x     4             23116800       0.0%    100.0%      0.0%     
 flops    13 x     5 x     4             29818880       0.0%    100.0%      0.0%     
 flops     5 x    13 x     4             29818880       0.0%    100.0%      0.0%     
 flops    13 x    13 x     4             39370240       0.0%    100.0%      0.0%     
 flops     4 x     4 x     5           6594232320       0.0%    100.0%      0.0%     
 flops     5 x     4 x     5           8119910400       0.0%    100.0%      0.0%     
 flops     4 x     4 x    13           8572502016       0.0%    100.0%      0.0%     
 flops    13 x     4 x     5          10555883520       0.0%    100.0%      0.0%     
 flops     5 x     4 x    13          10555883520       0.0%    100.0%      0.0%     
 flops    13 x     4 x    13          13722648576       0.0%    100.0%      0.0%     
 flops     5 x     4 x     4         406419892960       0.0%    100.0%      0.0%     
 flops    13 x     4 x     4         534894727744       0.0%    100.0%      0.0%     
 flops     4 x     4 x     4       30315999490176       0.0%    100.0%      0.0%     
 flops inhomo. stacks                           0       0.0%      0.0%      0.0%
 flops total                        31.315557E+12       0.0%    100.0%      0.0%
 flops max/rank                    988.613287E+09       0.0%    100.0%      0.0%
 matmuls inhomo. stacks                         0       0.0%      0.0%      0.0%
 matmuls total                       240823104294       0.0%    100.0%      0.0%
 number of processed stacks             246022997       0.0%    100.0%      0.0%
 average stack size                                     0.0     978.9       0.0
 marketing flops                    54.245835E+12
 -------------------------------------------------------------------------------
 # multiplications                          50927
 max memory usage/rank             616.914944E+06
 # max total images/rank                        2
 # max 3D layers                                1
 # MPI messages exchanged                21185632
 MPI messages size (bytes):
  total size                         2.511994E+12
  min size                           0.000000E+00
  max size                         541.696000E+03
  average size                     118.570648E+03
 MPI breakdown and total messages size (bytes):
             size <=      128              903687                     9216
       128 < size <=     8192              344079               1324207616
      8192 < size <=    32768               39516               1016368128
     32768 < size <=   131072             9104674             676945258752
    131072 < size <=  4194304            10793676            1833113408512
   4194304 < size <= 16777216                   0                        0
  16777216 < size                               0                        0
 -------------------------------------------------------------------------------

 *** WARNING in dbcsr_mm.F:301 :: Using a non-square number of MPI ranks ***
 *** might lead to poor performance. Used ranks: 32 Suggested: 36 64     ***

 -------------------------------------------------------------------------------
 -                                                                             -
 -                      DBCSR MESSAGE PASSING PERFORMANCE                      -
 -                                                                             -
 -------------------------------------------------------------------------------
 ROUTINE             CALLS      AVE VOLUME [Bytes]
 MP_Bcast               14                     12.
 MP_Allreduce       306719                     37.
 MP_Alltoall        131443                  14577.
 MP_ISend          1704578                  55200.
 MP_IRecv          1667120                  56501.
 -------------------------------------------------------------------------------

 -------------------------------------------------------------------------------
 -                                                                             -
 -                                DBM STATISTICS                               -
 -                                                                             -
 -------------------------------------------------------------------------------
    M  x    N  x    K                                          COUNT     PERCENT
 -------------------------------------------------------------------------------

 -------------------------------------------------------------------------------
 -                                                                             -
 -                                GRID STATISTICS                              -
 -                                                                             -
 -------------------------------------------------------------------------------
 LP    KERNEL             BACKEND                              COUNT     PERCENT
 2     collocate ortho    CPU                               11473448      28.83%
 2     integrate ortho    CPU                               11473448      28.83%
 3     collocate ortho    CPU                                7375396      18.53%
 3     integrate ortho    CPU                                7375396      18.53%
 4     collocate ortho    CPU                                1047606       2.63%
 4     integrate ortho    CPU                                1047606       2.63%
 0     collocate general  CPU                                   6144       0.02%
 -------------------------------------------------------------------------------

 MEMORY| Estimated peak process memory [MiB]                                 589

 -------------------------------------------------------------------------------
 -                                                                             -
 -                         MESSAGE PASSING PERFORMANCE                         -
 -                                                                             -
 -------------------------------------------------------------------------------

 ROUTINE             CALLS      AVE VOLUME [Bytes]
 MP_Group                5
 MP_Bcast           371805                   1934.
 MP_Allreduce       923962                    514.
 MP_Sync                 5
 MP_Alltoall           369                4328815.
 MP_SendRecv          1302                  18832.
 MP_ISendRecv         1302                  18832.
 MP_Wait              3696
 MP_ISend             2166                 108220.
 MP_IRecv             2166                 108236.
 -------------------------------------------------------------------------------


 -------------------------------------------------------------------------------
 -                                                                             -
 -                           R E F E R E N C E S                               -
 -                                                                             -
 -------------------------------------------------------------------------------
 
 CP2K version 2024.3 (Development Version), the CP2K developers group (2024).
 CP2K is freely available from https://www.cp2k.org/ .
 
 T. D. Kuehne, M. Iannuzzi, M. Del Ben, V. V. Rybkin, P. Seewald, F. Stein, T. 
 Laino, R. Z. Khaliullin, O. Schuett, F. Schiffmann, D. Golze, J. Wilhelm, S. 
 Chulkov, M. H. Bani-Hashemian, V. Weber, U. Borstnik, M. Taillefumier, A. S. 
 Jakobovits, A. Lazzaro, H. Pabst, T. Mueller, R. Schade, M. Guidon, S. 
 Andermatt, N. Holmberg, G. K. Schenter, A. Hehn, A. Bussy, F. Belleflamme, G. 
 Tabacchi, A. Gloess, M. Lass, I. Bethune, C. J. Mundy, C. Plessl, M. Watkins, 
 J. VandeVondele, M. Krack, J. Hutter.
 J. Chem. Phys. 152, 194103 (2020).
 CP2K: An electronic structure and molecular dynamics software package - 
 Quickstep: Efficient and accurate electronic structure calculations.
 https://doi.org/10.1063/5.0007045

 O. Schuett, J. VandeVondele.
 J. Chem. Theory Comput. 14, 4168-4175 (2018).
 Machine Learning Adaptive Basis Sets for Efficient Large Scale Density 
 Functional Theory Simulation.
 https://doi.org/10.1021/acs.jctc.8b00378

 O. Schuett, P. Messmer, J. Hutter, J. VandeVondele.
 Electronic Structure Calculations on Graphics Processing Units, 173-190 (2016).
 GPU-Accelerated Sparse Matrix-Matrix Multiplication for Linear Scaling Density 
 Functional Theory.
 https://doi.org/10.1002/9781118670712.ch8

 A. Heinecke, G. Henry, M. Hutchinson, H. Pabst.
 Proceedings of Intl. Supercomputing Conference, 981-991 (2016).
 LIBXSMM: Accelerating Small Matrix Multiplications by Runtime Code Generation.
 https://doi.org/10.1109/SC.2016.83

 J. Hutter, M. Iannuzzi, F. Schiffmann, J. VandeVondele.
 WIREs Comput Mol Sci. 4, 15-25 (2014).
 CP2K: atomistic simulations of condensed matter systems.
 https://doi.org/10.1002/wcms.1159

 U. Borstnik, J. VandeVondele, V. Weber, J. Hutter.
 Parallel Comput. 40, 47-58 (2014).
 Sparse matrix multiplication: The distributed block-compressed sparse row 
 library.
 https://doi.org/10.1016/j.parco.2014.03.012

 A. Marek, V. Blum, R. Johanni, V. Havu, B. Lang, T. Auckenthaler, A. Heinecke, 
 H. Bungartz, H. Lederer.
 J. Phys. Condens. Matter 26, 213201 (2014).
 The ELPA library: scalable parallel eigenvalue solutions for electronic 
 structure theory and computational science.
 https://doi.org/10.1088/0953-8984/26/21/213201

 J. VandeVondele, U. Borstnik, J. Hutter.
 J. Chem. Theory Comput. 8, 3565-3573 (2012).
 Linear Scaling Self-Consistent Field Calculations with Millions of Atoms in the 
 Condensed Phase.
 https://doi.org/10.1021/ct200897x

 J. VandeVondele, J. Hutter.
 J. Chem. Phys. 127, 114105 (2007).
 Gaussian basis sets for accurate calculations on molecular systems in gas and 
 condensed phases.
 https://doi.org/10.1063/1.2770708

 J. VandeVondele, M. Krack, F. Mohamed, M. Parrinello, T. Chassaing, J. Hutter.
 Comput. Phys. Commun. 167, 103-128 (2005).
 QUICKSTEP: Fast and accurate density functional calculations using a mixed 
 Gaussian and plane waves approach.
 https://doi.org/10.1016/j.cpc.2004.12.014

 M. Krack.
 Theor. Chem. Acc. 114, 145-152 (2005).
 Pseudopotentials for H to Kr optimized for gradient-corrected 
 exchange-correlation functionals.
 https://doi.org/10.1007/s00214-005-0655-y

 M. Frigo, S. G. Johnson.
 Proc. IEEE 93, 216-231 (2005).
 The design and implementation of FFTW3.
 https://doi.org/10.1109/JPROC.2004.840301

 A. M. N. Niklasson, C. J. Tymczak, M. Challacombe.
 J. Chem. Phys. 118, 8611-8620 (2003).
 Trace resetting density matrix purification in O(N) self-consistent-field 
 theory.
 https://doi.org/10.1063/1.1559913

 C. Hartwigsen, S. Goedecker, J. Hutter.
 Phys. Rev. B 58, 3641-3662 (1998).
 Relativistic separable dual-space Gaussian pseudopotentials from H to Rn.
 https://doi.org/10.1103/PhysRevB.58.3641

 G. Lippert, J. Hutter, M. Parrinello.
 Mol. Phys. 92, 477-487 (1997).
 A hybrid Gaussian and plane wave density functional scheme.
 https://doi.org/10.1080/002689797170220

 S. Goedecker, M. Teter, J. Hutter.
 Phys. Rev. B 54, 1703-1710 (1996).
 Separable dual-space Gaussian pseudopotentials.
 https://doi.org/10.1103/PhysRevB.54.1703

 J. P. Perdew, K. Burke, M. Ernzerhof.
 Phys. Rev. Lett. 77, 3865-3868 (1996).
 Generalized gradient approximation made simple.
 https://doi.org/10.1103/PhysRevLett.77.3865


 -------------------------------------------------------------------------------
 -                                                                             -
 -                                T I M I N G                                  -
 -                                                                             -
 -------------------------------------------------------------------------------
 SUBROUTINE                       CALLS  ASD         SELF TIME        TOTAL TIME
                                MAXIMUM       AVERAGE  MAXIMUM  AVERAGE  MAXIMUM
 CP2K                                 1  1.0    0.013    0.016  449.385  449.386
 qs_energies                          1  2.0    0.000    0.000  449.225  449.226
 ls_scf                               1  3.0    0.000    0.000  448.120  448.120
 pao_update                           6  4.0    0.006    0.024  421.879  421.882
 pao_calc_energy                    829  5.0    0.003    0.018  378.906  378.912
 dbcsr_multiply_generic           50927  8.4    1.396    1.461  351.371  351.650
 multiply_cannon                  50927  9.4    2.634    2.999  284.390  288.826
 multiply_cannon_loop             50927 10.4    1.889    2.157  273.572  277.059
 ls_scf_init_matrix_S               835  7.0    0.008    0.009  216.192  216.250
 pao_rebuild_S                      829  6.0    0.003    0.003  214.626  214.684
 matrix_sqrt_Newton_Schulz          835  8.0    0.174    0.291  200.800  200.851
 multiply_cannon_multrec         407416 11.4  180.213  182.073  181.047  182.877
 pao_dm_trs4                        829  6.0    0.006    0.007  163.898  163.929
 density_matrix_trs4                842  7.0    0.220    0.371  157.773  157.829
 mp_waitall_1                   3260858 12.6   88.857   98.206   88.857   98.206
 multiply_cannon_metrocomm3      407416 11.4    0.707    0.758   71.107   76.055
 arnoldi_extremal                  1677  8.5    0.013    0.014   62.490   62.551
 arnoldi_normal_ev                 1677  9.5    0.037    0.062   62.474   62.534
 build_subspace                    5998 10.7    0.366    0.397   55.064   55.105
 make_m2s                        101854  9.4    0.550    0.729   51.657   52.815
 dbcsr_matrix_vector_mult        183294 11.7    0.785    1.178   51.024   52.613
 make_images                     101854 10.4    7.475    7.706   50.278   51.519
 dbcsr_matrix_vector_mult_local  183294 12.7   43.226   45.195   43.431   45.399
 pao_calc_AB                       1097  5.8    0.002    0.002   42.509   42.514
 pao_calc_AB_equi                  1097  6.8    0.041    0.101   42.507   42.512
 pao_calc_grad_lnv_wrt_AB           267  7.0    0.020    0.023   42.099   42.123
 make_images_data                101854 11.4    0.890    1.102   21.886   24.198
 ls_scf_main                          6  4.0    0.000    0.001   22.966   22.967
 hybrid_alltoall_any             103520 12.4    0.913    1.774   17.091   20.908
 ls_scf_dm_to_ks                     13  5.0    0.000    0.000   20.264   20.269
 matrix_qs_to_ls                   1677  7.5    0.017    0.022   17.286   17.383
 mp_sum_l                        208171  9.5    7.712   14.220    7.712   14.220
 calculate_norms                 760720 11.4   11.838   13.165   11.838   13.165
 qs_ks_update_qs_env                 14  6.0    0.000    0.000   12.184   12.187
 rebuild_ks_matrix                   14  7.0    0.000    0.000   12.174   12.177
 qs_ks_build_kohn_sham_matrix        14  8.0    0.002    0.003   12.174   12.177
 make_images_pack                101854 11.4   11.257   11.575   11.394   11.716
 dbcsr_multiply_generic_mpsum_f   37434  9.5    0.027    0.033    4.554   10.009
 qs_rho_update_rho_low               14  6.0    0.000    0.000    9.564    9.566
 calculate_rho_elec                  14  7.0    0.005    0.005    9.564    9.566
 sum_up_and_integrate                14  9.0    0.000    0.000    9.225    9.228
 integrate_v_rspace                  14 10.0    0.000    0.000    9.212    9.215
 -------------------------------------------------------------------------------

 The number of warnings for this run is : 1
 
 -------------------------------------------------------------------------------
  **** **** ******  **  PROGRAM ENDED AT                 2024-09-24 01:00:02.285
 ***** ** ***  *** **   PROGRAM RAN ON                                    moritz
 **    ****   ******    PROGRAM RAN BY                                       ole
 ***** **    ** ** **   PROGRAM PROCESS ID                                165610
  **** **  *******  **  PROGRAM STOPPED IN /home/ole/git/pao_ml_equivar/64H2O_MD
                                           /Frame2100
