 DBCSR| CPU Multiplication driver                                           XSMM
 DBCSR| Multrec recursion limit                                              512
 DBCSR| Multiplication stack size                                           1000
 DBCSR| Maximum elements for images                                    UNLIMITED
 DBCSR| Multiplicative factor virtual images                                   1
 DBCSR| Use multiplication densification                                       T
 DBCSR| Multiplication size stacks                                             3


  **** **** ******  **  PROGRAM STARTED AT               2019-02-14 01:24:45.998
 ***** ** ***  *** **   PROGRAM STARTED ON                                  otto
 **    ****   ******    PROGRAM STARTED BY                                   ole
 ***** **    ** ** **   PROGRAM PROCESS ID                                  6155
  **** **  *******  **  PROGRAM STARTED IN /home/ole/git/pao_ml_equivar/2H2O_MD/
                                           frame_0575

 CP2K| version string:                    CP2K version 7.0 (Development Version)
 CP2K| source code revision number:                                git:8bf305913
 CP2K| cp2kflags: libint fftw3 libxc xsmm libderiv_max_am1=5 libint_max_am=6    
 CP2K| is freely available from                            https://www.cp2k.org/
 CP2K| Program compiled at                           So Jan 13 00:02:37 CET 2019
 CP2K| Program compiled on                                                  otto
 CP2K| Program compiled for                                                local
 CP2K| Data directory path                               /home/ole/git/cp2k/data
 CP2K| Input file name                                            2H2O_pao44.inp

 GLOBAL| Force Environment number                                              1
 GLOBAL| Basis set file name                                        BASIS_MOLOPT
 GLOBAL| Potential file name                                      GTH_POTENTIALS
 GLOBAL| MM Potential file name                                     MM_POTENTIAL
 GLOBAL| Coordinate file name                                         coords.xyz
 GLOBAL| Method name                                                        CP2K
 GLOBAL| Project name                                                 2H2O_pao44
 GLOBAL| Preferred FFT library                                             FFTW3
 GLOBAL| Preferred diagonalization lib.                                       SL
 GLOBAL| Run type                                                         ENERGY
 GLOBAL| All-to-all communication in single precision                          F
 GLOBAL| FFTs using library dependent lengths                                  F
 GLOBAL| Global print level                                                  LOW
 GLOBAL| MPI I/O enabled                                                       T
 GLOBAL| Total number of message passing processes                             1
 GLOBAL| Number of threads for this process                                    1
 GLOBAL| This output is from process                                           0
 GLOBAL| CPU model name :  Intel(R) Core(TM) i5-3320M CPU @ 2.60GHz

 MEMORY| system memory details [Kb]
 MEMORY|                        rank 0           min           max       average
 MEMORY| MemTotal              7860772       7860772       7860772       7860772
 MEMORY| MemFree               1999012       1999012       1999012       1999012
 MEMORY| Buffers                282812        282812        282812        282812
 MEMORY| Cached                2003512       2003512       2003512       2003512
 MEMORY| Slab                   257448        257448        257448        257448
 MEMORY| SReclaimable           135000        135000        135000        135000
 MEMORY| MemLikelyFree         4420336       4420336       4420336       4420336


 GENERATE|  Preliminary Number of Bonds generated:                             0
 GENERATE|  Achieved consistency in connectivity generation.

 *******************************************************************************
 *******************************************************************************
 **                                                                           **
 **     #####                         ##              ##                      **
 **    ##   ##            ##          ##              ##                      **
 **   ##     ##                       ##            ######                    **
 **   ##     ##  ##   ##  ##   #####  ##  ##   ####   ##    #####    #####    **
 **   ##     ##  ##   ##  ##  ##      ## ##   ##      ##   ##   ##  ##   ##   **
 **   ##  ## ##  ##   ##  ##  ##      ####     ###    ##   ######   ######    **
 **    ##  ###   ##   ##  ##  ##      ## ##      ##   ##   ##       ##        **
 **     #######   #####   ##   #####  ##  ##  ####    ##    #####   ##        **
 **           ##                                                    ##        **
 **                                                                           **
 **                                                ... make the atoms dance   **
 **                                                                           **
 **            Copyright (C) by CP2K developers group (2000 - 2018)           **
 **                                                                           **
 *******************************************************************************


 TOTAL NUMBERS AND MAXIMUM NUMBERS

  Total number of            - Atomic kinds:                                   2
                             - Atoms:                                          6
                             - Shell sets:                                     6
                             - Shells:                                        22
                             - Primitive Cartesian functions:                 42
                             - Cartesian basis functions:                     48
                             - Spherical basis functions:                     46

  Maximum angular momentum of- Orbital basis functions:                        2
                             - Local part of the GTH pseudopotential:          2
                             - Non-local part of the GTH pseudopotential:      0

 ------------------------------ Linear scaling SCF -----------------------------
 eps_scf:                                       0.100E-07
 eps_filter:                                    0.100E-07
 mixing_fraction:                               0.450E+00
 max_scf:                                              25
 fixed chemical potential (mu)                          F
 has unit metric:                                       F
 Computing inv(S):                                      T
 Computing sqrt(S):                                     T
 Computing s preconditioner                             F
 sign sqrt order:                                       3
 Extrapolation order:                                   1
 Use single precision matrices                          F
 S preconditioner type                               NONE
 Polarized Atomic Orbitals (PAO)                        T
 Purification method                      Trace resetting 4th order
 Cluster type                                      ATOMIC
 Computing Chebyshev                                FALSE
 Using PAO                                              T
 -------------------------------------------------------------------------------

 
 PAO|                                  EPS_PAO                           0.5E-06
 PAO|                                  MIXING                            0.5E+00
 PAO|                                  MAX_PAO                              1000
 PAO|                                  MAX_CYCLES                           1000
 PAO|                                  PARAMETERIZATION                   DIRECT
 PAO|                                  PRECONDITION                            F
 PAO|                                  REGULARIZATION                    0.0E+00
 PAO|                                  EPS_PGF                           0.1E-09
 PAO|                                  PENALTY_DISTANCE                  0.1E+00
 PAO|                                  PENALTY_STRENGTH                  0.5E-02
 PAO|                                  LINPOT_PRECONDITION_DELTA         0.0E+00
 PAO|                                  LINPOT_INITGUESS_DELT             0.0E+00
 PAO|                                  LINPOT_REGULARIZATION_DELTA       0.0E+00
 PAO|                                  LINPOT_REGULARIZATION_STRENGTH    0.0E+00
 PAO|                                  OPTIMIZER                              CG
 PAO|                                  CG_INIT_STEPS                           2
 PAO|                                  CG_RESET_LIMIT                    0.1E+00
 PAO|                                  CHECK_UNITARY_TOL                -0.1E+01
 PAO|                                  CHECK_GRADIENT_TOL               -0.1E+01
 PAO|                                  NUM_GRADIENT_ORDER                      2
 PAO|                                  NUM_GRADIENT_EPS                  0.1E-07
 PAO|                                  PRINT%RESTART%WRITE_CYCLES            100
 PAO|                                  RESTART_FILE 
 PAO|                                  PREOPT_DM_FILE 2H2O_ref_LS_DM_SPIN_1_RESTART.dm
 PAO|                                  MACHINE_LEARNING%METHOD        GAUSSIAN_P
 PAO|                                  MACHINE_LEARNING%PRIOR               ZERO
 PAO|                                  MACHINE_LEARNING%DESCRIPTOR     POTENTIAL
 PAO|                                  MACHINE_LEARNING%TOLERANCE        0.1E-01
 PAO|                                  MACHINE_LEARNING%GP_NOISE_VAR     0.1E+00
 PAO|                                  MACHINE_LEARNING%GP_SCALE         0.5E-01
 

 Calculating atomic Fock matrix for atomic kind: O

 Electronic structure
    Total number of core electrons                                          2.00
    Total number of valence electrons                                       6.00
    Total number of electrons                                               8.00
    Multiplicity                                                   not specified
    S   [  2.00] 2.00
    P      4.00


 *******************************************************************************
                  Iteration          Convergence                     Energy [au]
 *******************************************************************************
                          1        0.708315                     -15.576645311500
                          2        0.608879                     -15.587933561584
                          3        0.102828E-01                 -15.656849565404
                          4        0.113889E-02                 -15.656866888140
                          5        0.434197E-03                 -15.656867072159
                          6        0.263771E-03                 -15.656867091904
                          7        0.478536E-06                 -15.656867103452

 Energy components [Hartree]           Total Energy ::          -15.656867103452
                                        Band Energy ::           -3.000198112285
                                     Kinetic Energy ::           11.759971203220
                                   Potential Energy ::          -27.416838306672
                                      Virial (-V/T) ::            2.331369510426
                                        Core Energy ::          -26.140716385623
                                          XC Energy ::           -3.154051012914
                                     Coulomb Energy ::           13.637900295084
                       Total Pseudopotential Energy ::          -37.935781716540
                       Local Pseudopotential Energy ::          -39.218907440693
                    Nonlocal Pseudopotential Energy ::            1.283125724153
                                        Confinement ::            0.350941276976

 Orbital energies  State     L     Occupation   Energy[a.u.]          Energy[eV]

                       1     0          2.000      -0.864471          -23.523463

                       1     1          4.000      -0.317814           -8.648154


 Total Electron Density at R=0:                                         0.000068

 Calculating atomic Fock matrix for atomic kind: H

 Electronic structure
    Total number of core electrons                                          0.00
    Total number of valence electrons                                       1.00
    Total number of electrons                                               1.00
    Multiplicity                                                   not specified
    S      1.00


 *******************************************************************************
                  Iteration          Convergence                     Energy [au]
 *******************************************************************************
                          1        0.437545E-02                  -0.424159432110
                          2        0.531356E-03                  -0.424178438213
                          3        0.259176E-06                  -0.424178722480

 Energy components [Hartree]           Total Energy ::           -0.424178722480
                                        Band Energy ::           -0.199015229016
                                     Kinetic Energy ::            0.464007633961
                                   Potential Energy ::           -0.888186356441
                                      Virial (-V/T) ::            1.914163240935
                                        Core Energy ::           -0.479160803564
                                          XC Energy ::           -0.244352904054
                                     Coulomb Energy ::            0.299334985138
                       Total Pseudopotential Energy ::           -0.962295316385
                       Local Pseudopotential Energy ::           -0.962295316385
                    Nonlocal Pseudopotential Energy ::            0.000000000000
                                        Confinement ::            0.191268788606

 Orbital energies  State     L     Occupation   Energy[a.u.]          Energy[eV]

                       1     0          1.000      -0.199015           -5.415480


 Total Electron Density at R=0:                                         0.242907
 PAO| Made initial guess for matrix_X with norm:   4.8989794855663558     

     Lanczos converged:  T threshold:   0.100E-02
     Est. extremal eigenvalues:    0.345E+01   0.119E+00
     Est. condition number :    0.291E+02
     NS sqrt iter    1 1.00000000   0.843E+00       0.001       45.546
     NS sqrt iter    2 1.00000000   0.448E+00       0.001       79.800
     NS sqrt iter    3 1.00000000   0.171E+00       0.001       76.202
     NS sqrt iter    4 1.00000000   0.205E-01       0.001       82.339
     NS sqrt iter    5 1.00000000   0.504E-04       0.001       69.123
     Final NS sqrt iter    5 1.00000000   0.235E-08

 PAO| Read restart DM 2H2O_ref_LS_DM_SPIN_1_RESTART.dm with checksum:    55.242958892900127     
 PAO| Quickstep energy from restart density:  -34.450252831879112     
 PAO| ======================= Iteration:         1 =============================

     Lanczos converged:  T threshold:   0.100E-02
     Est. extremal eigenvalues:    0.345E+01   0.119E+00
     Est. condition number :    0.291E+02
     NS sqrt iter    1 1.00000000   0.843E+00       0.001       63.564
     NS sqrt iter    2 1.00000000   0.448E+00       0.001      110.592
     NS sqrt iter    3 1.00000000   0.171E+00       0.001      110.592
     NS sqrt iter    4 1.00000000   0.205E-01       0.001      109.081
     NS sqrt iter    5 1.00000000   0.504E-04       0.001       88.448
     Final NS sqrt iter    5 1.00000000   0.235E-08

     Est. extremal eigenvalues     -0.92170     1.86481  converged:  T
     TRS4 it   1 1.00000000   0.884E+00       0.001       16.128   0.100E-07
     TRS4 it   2 1.00000000   0.689E+00       0.001       32.256   0.100E-07
     TRS4 it   3 1.00000000   0.499E+00       0.001       32.256   0.100E-07
     TRS4 it   4 1.00000000   0.315E+00       0.001       32.256   0.100E-07
     TRS4 it   5 1.00000000   0.159E+00       0.001       32.256   0.100E-07
     TRS4 it   6 1.00000000   0.524E-01       0.001       32.256   0.100E-07
     TRS4 it   7 1.00000000   0.802E-02       0.001       32.256   0.100E-07
     TRS4 it   8 1.00000000   0.268E-03       0.001       32.256   0.100E-07
     TRS4 it   9 1.00000000   0.326E-06       0.001       32.256   0.100E-07
     TRS4 it  10 1.00000000   0.479E-12       0.001       32.256   0.100E-07
     Final TRS4 iteration   10 1.00000000   0.479E-12
     Chemical potential (mu):      -0.06149
 
 PAO| energy:  -7.5533207163511422      penalty:   5.4234187233944569E-033
 PAO|CG| warming up with steepest descent
 PAO|CG| beta:    0.0000000000000000     
 PAO| norm of gradient:  0.77299958455850670     
 PAO|LS| adapt:  T F F
 PAO|LS| adapt: scan_steps:    0.0000000000000000        0.0000000000000000        0.0000000000000000     
 PAO|LS| adapt: energies:   -7.5533207163511422        0.0000000000000000        0.0000000000000000     
 PAO| ======================= Iteration:         2 =============================

     Lanczos converged:  T threshold:   0.100E-02
     Est. extremal eigenvalues:    0.336E+01   0.133E+00
     Est. condition number :    0.252E+02
     NS sqrt iter    1 1.00000000   0.827E+00       0.001       64.512
     NS sqrt iter    2 1.00000000   0.432E+00       0.001      110.592
     NS sqrt iter    3 1.00000000   0.153E+00       0.001      110.592
     NS sqrt iter    4 1.00000000   0.143E-01       0.002       73.527
     NS sqrt iter    5 1.00000000   0.160E-04       0.002       38.530
     Final NS sqrt iter    5 1.00000000   0.379E-09

     Est. extremal eigenvalues     -0.92536     1.81971  converged:  T
     TRS4 it   1 1.00000000   0.883E+00       0.000       16.128   0.100E-07
     TRS4 it   2 1.00000000   0.672E+00       0.001       32.256   0.100E-07
     TRS4 it   3 1.00000000   0.484E+00       0.001       32.256   0.100E-07
     TRS4 it   4 1.00000000   0.296E+00       0.001       32.256   0.100E-07
     TRS4 it   5 1.00000000   0.140E+00       0.001       32.256   0.100E-07
     TRS4 it   6 1.00000000   0.411E-01       0.001       32.256   0.100E-07
     TRS4 it   7 1.00000000   0.501E-02       0.001       32.256   0.100E-07
     TRS4 it   8 1.00000000   0.105E-03       0.001       32.256   0.100E-07
     TRS4 it   9 1.00000000   0.500E-07       0.001       32.256   0.100E-07
     Final TRS4 iteration    9 1.00000000   0.500E-07
     Chemical potential (mu):      -0.05022
 
 PAO| energy:  -7.6073777417499144      penalty:   2.1563064458720268E-008
 PAO|LS| adapt:  T T F
 PAO|LS| adapt: scan_steps:    0.0000000000000000       0.10000000000000001        0.0000000000000000     
 PAO|LS| adapt: energies:   -7.5533207163511422       -7.6073777417499144        0.0000000000000000     
 PAO| ======================= Iteration:         3 =============================

     Lanczos converged:  T threshold:   0.100E-02
     Est. extremal eigenvalues:    0.327E+01   0.144E+00
     Est. condition number :    0.228E+02
     NS sqrt iter    1 1.00000000   0.809E+00       0.001       52.249
     NS sqrt iter    2 1.00000000   0.416E+00       0.001       99.752
     NS sqrt iter    3 1.00000000   0.137E+00       0.001      105.304
     NS sqrt iter    4 1.00000000   0.990E-02       0.001      110.592
     NS sqrt iter    5 1.00000000   0.553E-05       0.001       82.944
     Final NS sqrt iter    5 1.00000000   0.465E-10

     Est. extremal eigenvalues     -0.92876     1.78313  converged:  T
     TRS4 it   1 1.00000000   0.882E+00       0.000       16.128   0.100E-07
     TRS4 it   2 1.00000000   0.658E+00       0.001       32.256   0.100E-07
     TRS4 it   3 1.00000000   0.470E+00       0.001       32.256   0.100E-07
     TRS4 it   4 1.00000000   0.277E+00       0.001       32.256   0.100E-07
     TRS4 it   5 1.00000000   0.123E+00       0.001       32.256   0.100E-07
     TRS4 it   6 1.00000000   0.313E-01       0.001       32.256   0.100E-07
     TRS4 it   7 1.00000000   0.293E-02       0.001       32.256   0.100E-07
     TRS4 it   8 1.00000000   0.358E-04       0.001       32.256   0.100E-07
     TRS4 it   9 1.00000000   0.578E-08       0.001       32.256   0.100E-07
     Final TRS4 iteration    9 1.00000000   0.578E-08
     Chemical potential (mu):      -0.03785
 
 PAO| energy:  -7.6494065054489537      penalty:   3.4500800858240335E-007
 PAO|LS| adapt:  T T F
 PAO|LS| adapt: scan_steps:    0.0000000000000000       0.20000000000000001        0.0000000000000000     
 PAO|LS| adapt: energies:   -7.5533207163511422       -7.6494065054489537        0.0000000000000000     
 PAO| ======================= Iteration:         4 =============================

     Lanczos converged:  T threshold:   0.100E-02
     Est. extremal eigenvalues:    0.308E+01   0.160E+00
     Est. condition number :    0.193E+02
     NS sqrt iter    1 1.00000000   0.771E+00       0.001       64.512
     NS sqrt iter    2 1.00000000   0.381E+00       0.001      108.630
     NS sqrt iter    3 1.00000000   0.107E+00       0.002       69.261
     NS sqrt iter    4 1.00000000   0.492E-02       0.001       77.603
     NS sqrt iter    5 1.00000000   0.898E-06       0.001       82.944
     Final NS sqrt iter    5 1.00000000   0.147E-11

     Est. extremal eigenvalues     -0.93394     1.72852  converged:  T
     TRS4 it   1 1.00000000   0.881E+00       0.000       16.128   0.100E-07
     TRS4 it   2 1.00000000   0.634E+00       0.001       32.256   0.100E-07
     TRS4 it   3 1.00000000   0.442E+00       0.001       32.256   0.100E-07
     TRS4 it   4 1.00000000   0.242E+00       0.001       32.256   0.100E-07
     TRS4 it   5 1.00000000   0.916E-01       0.001       32.256   0.100E-07
     TRS4 it   6 1.00000000   0.171E-01       0.001       32.256   0.100E-07
     TRS4 it   7 1.00000000   0.838E-03       0.001       32.256   0.100E-07
     TRS4 it   8 1.00000000   0.284E-05       0.001       32.256   0.100E-07
     TRS4 it   9 1.00000000   0.361E-10       0.001       32.256   0.100E-07
     Final TRS4 iteration    9 1.00000000   0.361E-10
     Chemical potential (mu):      -0.01075
 
 PAO| energy:  -7.6958514585243352      penalty:   5.5201199552924173E-006
 PAO|LS| Need extra step
 PAO|LS| adapt:  T T F
 PAO|LS| adapt: scan_steps:    0.0000000000000000       0.40000000000000002        0.0000000000000000     
 PAO|LS| adapt: energies:   -7.5533207163511422       -7.6958514585243352        0.0000000000000000     
 PAO| ======================= Iteration:         5 =============================

     Lanczos converged:  T threshold:   0.100E-02
     Est. extremal eigenvalues:    0.271E+01   0.187E+00
     Est. condition number :    0.145E+02
     NS sqrt iter    1 1.00000000   0.704E+00       0.001       64.512
     NS sqrt iter    2 1.00000000   0.318E+00       0.001       88.460
     NS sqrt iter    3 1.00000000   0.664E-01       0.001       92.175
     NS sqrt iter    4 1.00000000   0.139E-02       0.001      110.592
     NS sqrt iter    5 1.00000000   0.278E-07       0.001       51.392
     Final NS sqrt iter    5 1.00000000   0.261E-08

     Est. extremal eigenvalues     -0.93458     1.66331  converged:  T
     TRS4 it   1 1.00000000   0.879E+00       0.000       16.128   0.100E-07
     TRS4 it   2 1.00000000   0.599E+00       0.001       32.256   0.100E-07
     TRS4 it   3 1.00000000   0.396E+00       0.001       32.256   0.100E-07
     TRS4 it   4 1.00000000   0.186E+00       0.001       32.256   0.100E-07
     TRS4 it   5 1.00000000   0.510E-01       0.001       32.256   0.100E-07
     TRS4 it   6 1.00000000   0.485E-02       0.001       32.256   0.100E-07
     TRS4 it   7 1.00000000   0.573E-04       0.001       32.256   0.100E-07
     TRS4 it   8 1.00000000   0.102E-07       0.001       32.256   0.100E-07
     Final TRS4 iteration    8 1.00000000   0.102E-07
     Chemical potential (mu):       0.03725
 
 PAO| energy:  -7.6447480278286939      penalty:   8.8321853828595944E-005
 PAO|LS| Need extra step
 PAO|LS| adapt:  T T T
 PAO|LS| adapt: scan_steps:    0.0000000000000000       0.40000000000000002       0.80000000000000004     
 PAO|LS| adapt: energies:   -7.5533207163511422       -7.6958514585243352       -7.6447480278286939     
 PAO|LS| adapt: suggested step_size:   0.49443303330500837     
 PAO|LS| adapt: predicted energy  -7.7012475574929269     
 PAO| ======================= Iteration:         6 =============================

     Lanczos converged:  T threshold:   0.100E-02
     Est. extremal eigenvalues:    0.298E+01   0.167E+00
     Est. condition number :    0.179E+02
     NS sqrt iter    1 1.00000000   0.753E+00       0.002       37.376
     NS sqrt iter    2 1.00000000   0.364E+00       0.002       68.286
     NS sqrt iter    3 1.00000000   0.952E-01       0.001       73.797
     NS sqrt iter    4 1.00000000   0.360E-02       0.001      110.592
     NS sqrt iter    5 1.00000000   0.397E-06       0.001       82.432
     Final NS sqrt iter    5 1.00000000   0.975E-10

     Est. extremal eigenvalues     -0.93536     1.70896  converged:  T
     TRS4 it   1 1.00000000   0.881E+00       0.000       16.128   0.100E-07
     TRS4 it   2 1.00000000   0.624E+00       0.001       32.256   0.100E-07
     TRS4 it   3 1.00000000   0.430E+00       0.001       32.256   0.100E-07
     TRS4 it   4 1.00000000   0.227E+00       0.001       32.256   0.100E-07
     TRS4 it   5 1.00000000   0.794E-01       0.001       32.256   0.100E-07
     TRS4 it   6 1.00000000   0.126E-01       0.001       32.256   0.100E-07
     TRS4 it   7 1.00000000   0.438E-03       0.001       32.256   0.100E-07
     TRS4 it   8 1.00000000   0.746E-06       0.001       32.256   0.100E-07
     TRS4 it   9 1.00000000   0.247E-11       0.001       32.256   0.100E-07
     Final TRS4 iteration    9 1.00000000   0.247E-11
     Chemical potential (mu):       0.00268
 
 PAO| energy:  -7.7004919847257920      penalty:   1.2886599783014634E-005
 PAO|CG| warming up with steepest descent
 PAO|CG| beta:    0.0000000000000000     
 PAO| norm of gradient:  0.40512490855233591     
 PAO| energy improvement: -0.14717126837464978     
 PAO| step      6                   -7.700491985  0.253E-01  0.494E+00     0.098
 PAO|LS| adapt:  T F F
 PAO|LS| adapt: scan_steps:    0.0000000000000000        0.0000000000000000        0.0000000000000000     
 PAO|LS| adapt: energies:   -7.7004919847257920        0.0000000000000000        0.0000000000000000     
 PAO| ======================= Iteration:         7 =============================

     Lanczos converged:  T threshold:   0.100E-02
     Est. extremal eigenvalues:    0.289E+01   0.180E+00
     Est. condition number :    0.161E+02
     NS sqrt iter    1 1.00000000   0.734E+00       0.001       64.512
     NS sqrt iter    2 1.00000000   0.344E+00       0.001      107.952
     NS sqrt iter    3 1.00000000   0.802E-01       0.001      110.592
     NS sqrt iter    4 1.00000000   0.224E-02       0.001      100.682
     NS sqrt iter    5 1.00000000   0.106E-06       0.001       65.851
     Final NS sqrt iter    5 1.00000000   0.126E-08

     Est. extremal eigenvalues     -0.93748     1.70680  converged:  T
     TRS4 it   1 1.00000000   0.883E+00       0.000       16.128   0.100E-07
     TRS4 it   2 1.00000000   0.625E+00       0.001       32.256   0.100E-07
     TRS4 it   3 1.00000000   0.432E+00       0.001       32.256   0.100E-07
     TRS4 it   4 1.00000000   0.229E+00       0.001       32.256   0.100E-07
     TRS4 it   5 1.00000000   0.813E-01       0.001       32.256   0.100E-07
     TRS4 it   6 1.00000000   0.130E-01       0.001       32.256   0.100E-07
     TRS4 it   7 1.00000000   0.448E-03       0.001       32.256   0.100E-07
     TRS4 it   8 1.00000000   0.750E-06       0.001       32.256   0.100E-07
     TRS4 it   9 1.00000000   0.247E-11       0.001       32.256   0.100E-07
     Final TRS4 iteration    9 1.00000000   0.247E-11
     Chemical potential (mu):       0.00318
 
 PAO| energy:  -7.6961743030270684      penalty:   1.8960527940880728E-005
 PAO|LS| adapt:  T F T
 PAO|LS| adapt: scan_steps:    0.0000000000000000        0.0000000000000000       0.49443303330500837     
 PAO|LS| adapt: energies:   -7.7004919847257920        0.0000000000000000       -7.6961743030270684     
 PAO| ======================= Iteration:         8 =============================

     Lanczos converged:  T threshold:   0.100E-02
     Est. extremal eigenvalues:    0.294E+01   0.173E+00
     Est. condition number :    0.170E+02
     NS sqrt iter    1 1.00000000   0.744E+00       0.001       64.512
     NS sqrt iter    2 1.00000000   0.354E+00       0.001      110.592
     NS sqrt iter    3 1.00000000   0.876E-01       0.001      110.592
     NS sqrt iter    4 1.00000000   0.286E-02       0.001      110.592
     NS sqrt iter    5 1.00000000   0.211E-06       0.001       80.768
     Final NS sqrt iter    5 1.00000000   0.679E-09

     Est. extremal eigenvalues     -0.93756     1.70748  converged:  T
     TRS4 it   1 1.00000000   0.881E+00       0.001       16.128   0.100E-07
     TRS4 it   2 1.00000000   0.624E+00       0.001       32.256   0.100E-07
     TRS4 it   3 1.00000000   0.431E+00       0.001       32.256   0.100E-07
     TRS4 it   4 1.00000000   0.227E+00       0.001       30.914   0.100E-07
     TRS4 it   5 1.00000000   0.802E-01       0.001       32.256   0.100E-07
     TRS4 it   6 1.00000000   0.129E-01       0.001       32.256   0.100E-07
     TRS4 it   7 1.00000000   0.458E-03       0.001       32.256   0.100E-07
     TRS4 it   8 1.00000000   0.806E-06       0.001       32.256   0.100E-07
     TRS4 it   9 1.00000000   0.287E-11       0.001       32.256   0.100E-07
     Final TRS4 iteration    9 1.00000000   0.287E-11
     Chemical potential (mu):       0.00236
 
 PAO| energy:  -7.7194113015860415      penalty:   1.3876782059069877E-005
 PAO|LS| adapt:  T T T
 PAO|LS| adapt: scan_steps:    0.0000000000000000       0.24721651665250419       0.49443303330500837     
 PAO|LS| adapt: energies:   -7.7004919847257920       -7.7194113015860415       -7.6961743030270684     
 PAO|LS| adapt: suggested step_size:   0.23455646537717378     
 PAO|LS| adapt: predicted energy  -7.7194665791140524     
 PAO| ======================= Iteration:         9 =============================

     Lanczos converged:  T threshold:   0.100E-02
     Est. extremal eigenvalues:    0.294E+01   0.173E+00
     Est. condition number :    0.170E+02
     NS sqrt iter    1 1.00000000   0.744E+00       0.001       64.512
     NS sqrt iter    2 1.00000000   0.355E+00       0.001      110.592
     NS sqrt iter    3 1.00000000   0.879E-01       0.001      110.592
     NS sqrt iter    4 1.00000000   0.289E-02       0.001      104.678
     NS sqrt iter    5 1.00000000   0.218E-06       0.001       61.719
     Final NS sqrt iter    5 1.00000000   0.720E-09

     Est. extremal eigenvalues     -0.93751     1.70753  converged:  T
     TRS4 it   1 1.00000000   0.881E+00       0.000       16.128   0.100E-07
     TRS4 it   2 1.00000000   0.624E+00       0.001       32.256   0.100E-07
     TRS4 it   3 1.00000000   0.431E+00       0.001       32.256   0.100E-07
     TRS4 it   4 1.00000000   0.227E+00       0.001       32.256   0.100E-07
     TRS4 it   5 1.00000000   0.802E-01       0.001       32.256   0.100E-07
     TRS4 it   6 1.00000000   0.129E-01       0.001       32.256   0.100E-07
     TRS4 it   7 1.00000000   0.458E-03       0.001       32.256   0.100E-07
     TRS4 it   8 1.00000000   0.806E-06       0.001       32.256   0.100E-07
     TRS4 it   9 1.00000000   0.287E-11       0.001       32.256   0.100E-07
     Final TRS4 iteration    9 1.00000000   0.287E-11
     Chemical potential (mu):       0.00235
 
 PAO| energy:  -7.7194876860543875      penalty:   1.3753581949132103E-005
 PAO|CG| trace_G_new    3.5615152597480798E-002
 PAO|CG| trace_G_prev   0.16412619152953847     
 PAO|CG| trace_G_mix   -1.6329042254752536E-003
 PAO|CG| trace_D   0.16412619152953847     
 PAO|CG| trace_D_Gnew   1.6329042254752536E-003
 PAO|CG| beta:   0.22694767042256242     
 PAO| norm of gradient:  0.18871977267228998     
 PAO| energy improvement:  -1.8995701328595516E-002
 PAO| step      9                   -7.719487686  0.118E-01  0.235E+00     0.055
 PAO|LS| adapt:  T F F
 PAO|LS| adapt: scan_steps:    0.0000000000000000        0.0000000000000000        0.0000000000000000     
 PAO|LS| adapt: energies:   -7.7194876860543875        0.0000000000000000        0.0000000000000000     
 PAO| ======================= Iteration:        10 =============================

     Lanczos converged:  T threshold:   0.100E-02
     Est. extremal eigenvalues:    0.290E+01   0.178E+00
     Est. condition number :    0.163E+02
     NS sqrt iter    1 1.00000000   0.735E+00       0.002       38.640
     NS sqrt iter    2 1.00000000   0.346E+00       0.001      106.770
     NS sqrt iter    3 1.00000000   0.823E-01       0.001      103.924
     NS sqrt iter    4 1.00000000   0.238E-02       0.001      110.592
     NS sqrt iter    5 1.00000000   0.122E-06       0.001       76.288
     Final NS sqrt iter    5 1.00000000   0.141E-08

     Est. extremal eigenvalues     -0.93828     1.70787  converged:  T
     TRS4 it   1 1.00000000   0.881E+00       0.001       16.128   0.100E-07
     TRS4 it   2 1.00000000   0.624E+00       0.001       32.256   0.100E-07
     TRS4 it   3 1.00000000   0.430E+00       0.001       32.256   0.100E-07
     TRS4 it   4 1.00000000   0.226E+00       0.001       32.256   0.100E-07
     TRS4 it   5 1.00000000   0.786E-01       0.001       32.256   0.100E-07
     TRS4 it   6 1.00000000   0.123E-01       0.001       32.256   0.100E-07
     TRS4 it   7 1.00000000   0.411E-03       0.001       32.256   0.100E-07
     TRS4 it   8 1.00000000   0.633E-06       0.001       32.256   0.100E-07
     TRS4 it   9 1.00000000   0.176E-11       0.001       32.256   0.100E-07
     Final TRS4 iteration    9 1.00000000   0.176E-11
     Chemical potential (mu):       0.00534
 
 PAO| energy:  -7.7241945309672309      penalty:   1.4283400078152145E-005
 PAO|LS| adapt:  T T F
 PAO|LS| adapt: scan_steps:    0.0000000000000000       0.23455646537717378        0.0000000000000000     
 PAO|LS| adapt: energies:   -7.7194876860543875       -7.7241945309672309        0.0000000000000000     
 PAO| ======================= Iteration:        11 =============================

     Lanczos converged:  T threshold:   0.100E-02
     Est. extremal eigenvalues:    0.286E+01   0.184E+00
     Est. condition number :    0.155E+02
     NS sqrt iter    1 1.00000000   0.727E+00       0.001       46.017
     NS sqrt iter    2 1.00000000   0.337E+00       0.001       99.251
     NS sqrt iter    3 1.00000000   0.768E-01       0.001      110.592
     NS sqrt iter    4 1.00000000   0.194E-02       0.001      110.592
     NS sqrt iter    5 1.00000000   0.670E-07       0.001       72.960
     Final NS sqrt iter    5 1.00000000   0.504E-09

     Est. extremal eigenvalues     -0.93822     1.70902  converged:  T
     TRS4 it   1 1.00000000   0.882E+00       0.000       16.128   0.100E-07
     TRS4 it   2 1.00000000   0.624E+00       0.001       32.256   0.100E-07
     TRS4 it   3 1.00000000   0.429E+00       0.001       32.256   0.100E-07
     TRS4 it   4 1.00000000   0.224E+00       0.001       32.256   0.100E-07
     TRS4 it   5 1.00000000   0.770E-01       0.001       32.256   0.100E-07
     TRS4 it   6 1.00000000   0.117E-01       0.001       32.256   0.100E-07
     TRS4 it   7 1.00000000   0.368E-03       0.001       32.256   0.100E-07
     TRS4 it   8 1.00000000   0.494E-06       0.001       32.256   0.100E-07
     TRS4 it   9 1.00000000   0.106E-11       0.001       32.256   0.100E-07
     Final TRS4 iteration    9 1.00000000   0.106E-11
     Chemical potential (mu):       0.00842
 
 PAO| energy:  -7.7220372188080511      penalty:   1.5503470811808367E-005
 PAO|LS| adapt:  T T T
 PAO|LS| adapt: scan_steps:    0.0000000000000000       0.23455646537717378       0.46911293075434757     
 PAO|LS| adapt: energies:   -7.7194876860543875       -7.7241945309672309       -7.7220372188080511     
 PAO|LS| adapt: suggested step_size:   0.27811675870874780     
 PAO|LS| adapt: predicted energy  -7.7243129016060754     
 PAO| ======================= Iteration:        12 =============================

     Lanczos converged:  T threshold:   0.100E-02
     Est. extremal eigenvalues:    0.289E+01   0.179E+00
     Est. condition number :    0.161E+02
     NS sqrt iter    1 1.00000000   0.734E+00       0.001       64.512
     NS sqrt iter    2 1.00000000   0.344E+00       0.001      110.592
     NS sqrt iter    3 1.00000000   0.812E-01       0.001      110.592
     NS sqrt iter    4 1.00000000   0.229E-02       0.001      110.592
     NS sqrt iter    5 1.00000000   0.109E-06       0.001       75.904
     Final NS sqrt iter    5 1.00000000   0.128E-08

     Est. extremal eigenvalues     -0.93833     1.70803  converged:  T
     TRS4 it   1 1.00000000   0.881E+00       0.001       16.128   0.100E-07
     TRS4 it   2 1.00000000   0.624E+00       0.001       32.256   0.100E-07
     TRS4 it   3 1.00000000   0.430E+00       0.001       32.256   0.100E-07
     TRS4 it   4 1.00000000   0.225E+00       0.001       32.256   0.100E-07
     TRS4 it   5 1.00000000   0.783E-01       0.001       32.256   0.100E-07
     TRS4 it   6 1.00000000   0.122E-01       0.001       32.256   0.100E-07
     TRS4 it   7 1.00000000   0.402E-03       0.001       32.256   0.100E-07
     TRS4 it   8 1.00000000   0.605E-06       0.001       32.256   0.100E-07
     TRS4 it   9 1.00000000   0.160E-11       0.001       32.256   0.100E-07
     Final TRS4 iteration    9 1.00000000   0.160E-11
     Chemical potential (mu):       0.00591
 
 PAO| energy:  -7.7243010399854954      penalty:   1.4452233735551196E-005
 PAO|CG| trace_G_new    1.2618911886141785E-002
 PAO|CG| trace_G_prev    3.5615152597480798E-002
 PAO|CG| trace_G_mix   -4.3074628612511825E-004
 PAO|CG| trace_D    4.3327344701228385E-002
 PAO|CG| trace_D_Gnew   2.5410857169344569E-004
 PAO|CG| beta:   0.36640747604686541     
 PAO| norm of gradient:  0.11233393025324886     
 PAO| energy improvement:  -4.8133539311079332E-003
 PAO| step     12                   -7.724301040  0.702E-02  0.278E+00     0.058
 PAO|LS| adapt:  T F F
 PAO|LS| adapt: scan_steps:    0.0000000000000000        0.0000000000000000        0.0000000000000000     
 PAO|LS| adapt: energies:   -7.7243010399854954        0.0000000000000000        0.0000000000000000     
 PAO| ======================= Iteration:        13 =============================

     Lanczos converged:  T threshold:   0.100E-02
     Est. extremal eigenvalues:    0.285E+01   0.184E+00
     Est. condition number :    0.155E+02
     NS sqrt iter    1 1.00000000   0.726E+00       0.001       64.512
     NS sqrt iter    2 1.00000000   0.337E+00       0.001      110.592
     NS sqrt iter    3 1.00000000   0.767E-01       0.001      103.134
     NS sqrt iter    4 1.00000000   0.193E-02       0.001      110.592
     NS sqrt iter    5 1.00000000   0.658E-07       0.001       72.832
     Final NS sqrt iter    5 1.00000000   0.501E-09

     Est. extremal eigenvalues     -0.93878     1.70198  converged:  T
     TRS4 it   1 1.00000000   0.881E+00       0.001       16.128   0.100E-07
     TRS4 it   2 1.00000000   0.621E+00       0.001       32.256   0.100E-07
     TRS4 it   3 1.00000000   0.426E+00       0.001       32.256   0.100E-07
     TRS4 it   4 1.00000000   0.221E+00       0.001       32.256   0.100E-07
     TRS4 it   5 1.00000000   0.747E-01       0.001       32.256   0.100E-07
     TRS4 it   6 1.00000000   0.110E-01       0.001       32.256   0.100E-07
     TRS4 it   7 1.00000000   0.324E-03       0.001       32.256   0.100E-07
     TRS4 it   8 1.00000000   0.383E-06       0.001       32.256   0.100E-07
     TRS4 it   9 1.00000000   0.636E-12       0.001       32.256   0.100E-07
     Final TRS4 iteration    9 1.00000000   0.636E-12
     Chemical potential (mu):       0.01039
 
 PAO| energy:  -7.7264521246383557      penalty:   1.4762500041105421E-005
 PAO|LS| adapt:  T T F
 PAO|LS| adapt: scan_steps:    0.0000000000000000       0.27811675870874780        0.0000000000000000     
 PAO|LS| adapt: energies:   -7.7243010399854954       -7.7264521246383557        0.0000000000000000     
 PAO| ======================= Iteration:        14 =============================

     Lanczos converged:  T threshold:   0.100E-02
     Est. extremal eigenvalues:    0.282E+01   0.189E+00
     Est. condition number :    0.149E+02
     NS sqrt iter    1 1.00000000   0.719E+00       0.001       64.512
     NS sqrt iter    2 1.00000000   0.330E+00       0.001       97.080
     NS sqrt iter    3 1.00000000   0.725E-01       0.001       96.717
     NS sqrt iter    4 1.00000000   0.164E-02       0.001      110.592
     NS sqrt iter    5 1.00000000   0.398E-07       0.001       66.688
     Final NS sqrt iter    5 1.00000000   0.347E-08

     Est. extremal eigenvalues     -0.93881     1.69628  converged:  T
     TRS4 it   1 1.00000000   0.881E+00       0.000       16.128   0.100E-07
     TRS4 it   2 1.00000000   0.618E+00       0.001       32.256   0.100E-07
     TRS4 it   3 1.00000000   0.422E+00       0.001       32.256   0.100E-07
     TRS4 it   4 1.00000000   0.216E+00       0.001       32.256   0.100E-07
     TRS4 it   5 1.00000000   0.712E-01       0.001       32.256   0.100E-07
     TRS4 it   6 1.00000000   0.995E-02       0.001       32.256   0.100E-07
     TRS4 it   7 1.00000000   0.262E-03       0.001       32.256   0.100E-07
     TRS4 it   8 1.00000000   0.243E-06       0.001       32.256   0.100E-07
     TRS4 it   9 1.00000000   0.252E-12       0.001       32.256   0.100E-07
     Final TRS4 iteration    9 1.00000000   0.252E-12
     Chemical potential (mu):       0.01478
 
 PAO| energy:  -7.7259788777161926      penalty:   1.5542504716774418E-005
 PAO|LS| adapt:  T T T
 PAO|LS| adapt: scan_steps:    0.0000000000000000       0.27811675870874780       0.55623351741749560     
 PAO|LS| adapt: energies:   -7.7243010399854954       -7.7264521246383557       -7.7259788777161926     
 PAO|LS| adapt: suggested step_size:   0.36702221481457192     
 PAO|LS| adapt: predicted energy  -7.7265862130419194     
 PAO| ======================= Iteration:        15 =============================

     Lanczos converged:  T threshold:   0.100E-02
     Est. extremal eigenvalues:    0.284E+01   0.186E+00
     Est. condition number :    0.153E+02
     NS sqrt iter    1 1.00000000   0.724E+00       0.001       64.512
     NS sqrt iter    2 1.00000000   0.335E+00       0.001      110.592
     NS sqrt iter    3 1.00000000   0.753E-01       0.001      110.592
     NS sqrt iter    4 1.00000000   0.183E-02       0.001      110.592
     NS sqrt iter    5 1.00000000   0.560E-07       0.001       70.784
     Final NS sqrt iter    5 1.00000000   0.408E-09

     Est. extremal eigenvalues     -0.93884     1.70012  converged:  T
     TRS4 it   1 1.00000000   0.881E+00       0.000       16.128   0.100E-07
     TRS4 it   2 1.00000000   0.620E+00       0.001       32.256   0.100E-07
     TRS4 it   3 1.00000000   0.424E+00       0.001       22.732   0.100E-07
     TRS4 it   4 1.00000000   0.219E+00       0.001       32.256   0.100E-07
     TRS4 it   5 1.00000000   0.735E-01       0.001       32.256   0.100E-07
     TRS4 it   6 1.00000000   0.107E-01       0.001       32.256   0.100E-07
     TRS4 it   7 1.00000000   0.303E-03       0.001       32.256   0.100E-07
     TRS4 it   8 1.00000000   0.331E-06       0.001       32.256   0.100E-07
     TRS4 it   9 1.00000000   0.473E-12       0.001       32.256   0.100E-07
     Final TRS4 iteration    9 1.00000000   0.473E-12
     Chemical potential (mu):       0.01181
 
 PAO| energy:  -7.7265832398393588      penalty:   1.4957338908658103E-005
 PAO|CG| trace_G_new    2.8186962549912151E-003
 PAO|CG| trace_G_prev    1.2618911886141785E-002
 PAO|CG| trace_G_mix    8.7372300771054319E-005
 PAO|CG| trace_D    1.8249585660040479E-002
 PAO|CG| trace_D_Gnew   2.5961577271889813E-005
 PAO|CG| beta:   0.21644686791257556     
 PAO| norm of gradient:   5.3091395300850920E-002
 PAO| energy improvement:  -2.2821998538633537E-003
 PAO| step     15                   -7.726583240  0.332E-02  0.367E+00     0.055
 PAO|LS| adapt:  T F F
 PAO|LS| adapt: scan_steps:    0.0000000000000000        0.0000000000000000        0.0000000000000000     
 PAO|LS| adapt: energies:   -7.7265832398393588        0.0000000000000000        0.0000000000000000     
 PAO| ======================= Iteration:        16 =============================

     Lanczos converged:  T threshold:   0.100E-02
     Est. extremal eigenvalues:    0.283E+01   0.186E+00
     Est. condition number :    0.152E+02
     NS sqrt iter    1 1.00000000   0.722E+00       0.001       64.512
     NS sqrt iter    2 1.00000000   0.333E+00       0.001      109.679
     NS sqrt iter    3 1.00000000   0.746E-01       0.001       94.198
     NS sqrt iter    4 1.00000000   0.178E-02       0.001      107.193
     NS sqrt iter    5 1.00000000   0.508E-07       0.001       70.656
     Final NS sqrt iter    5 1.00000000   0.373E-09

     Est. extremal eigenvalues     -0.93886     1.70006  converged:  T
     TRS4 it   1 1.00000000   0.882E+00       0.000       16.128   0.100E-07
     TRS4 it   2 1.00000000   0.620E+00       0.001       32.256   0.100E-07
     TRS4 it   3 1.00000000   0.423E+00       0.001       32.256   0.100E-07
     TRS4 it   4 1.00000000   0.217E+00       0.001       32.256   0.100E-07
     TRS4 it   5 1.00000000   0.723E-01       0.001       32.256   0.100E-07
     TRS4 it   6 1.00000000   0.103E-01       0.001       32.256   0.100E-07
     TRS4 it   7 1.00000000   0.285E-03       0.001       32.256   0.100E-07
     TRS4 it   8 1.00000000   0.296E-06       0.001       32.256   0.100E-07
     TRS4 it   9 1.00000000   0.378E-12       0.001       32.256   0.100E-07
     Final TRS4 iteration    9 1.00000000   0.378E-12
     Chemical potential (mu):       0.01282
 
 PAO| energy:  -7.7267490504582019      penalty:   1.4769244126013130E-005
 PAO|LS| adapt:  T T F
 PAO|LS| adapt: scan_steps:    0.0000000000000000       0.36702221481457192        0.0000000000000000     
 PAO|LS| adapt: energies:   -7.7265832398393588       -7.7267490504582019        0.0000000000000000     
 PAO| ======================= Iteration:        17 =============================

     Lanczos converged:  T threshold:   0.100E-02
     Est. extremal eigenvalues:    0.282E+01   0.187E+00
     Est. condition number :    0.151E+02
     NS sqrt iter    1 1.00000000   0.719E+00       0.001       64.512
     NS sqrt iter    2 1.00000000   0.332E+00       0.001      110.592
     NS sqrt iter    3 1.00000000   0.739E-01       0.001      110.592
     NS sqrt iter    4 1.00000000   0.172E-02       0.001       79.924
     NS sqrt iter    5 1.00000000   0.462E-07       0.002       44.788
     Final NS sqrt iter    5 1.00000000   0.371E-09

     Est. extremal eigenvalues     -0.93876     1.70007  converged:  T
     TRS4 it   1 1.00000000   0.882E+00       0.000       16.128   0.100E-07
     TRS4 it   2 1.00000000   0.619E+00       0.001       32.256   0.100E-07
     TRS4 it   3 1.00000000   0.422E+00       0.001       32.256   0.100E-07
     TRS4 it   4 1.00000000   0.216E+00       0.001       32.256   0.100E-07
     TRS4 it   5 1.00000000   0.712E-01       0.001       32.256   0.100E-07
     TRS4 it   6 1.00000000   0.100E-01       0.001       32.256   0.100E-07
     TRS4 it   7 1.00000000   0.269E-03       0.001       32.256   0.100E-07
     TRS4 it   8 1.00000000   0.264E-06       0.001       32.256   0.100E-07
     TRS4 it   9 1.00000000   0.302E-12       0.001       32.256   0.100E-07
     Final TRS4 iteration    9 1.00000000   0.302E-12
     Chemical potential (mu):       0.01381
 
 PAO| energy:  -7.7251754232597873      penalty:   1.4712222325870969E-005
 PAO|LS| adapt:  T T T
 PAO|LS| adapt: scan_steps:    0.0000000000000000       0.36702221481457192       0.73404442962914385     
 PAO|LS| adapt: energies:   -7.7265832398393588       -7.7267490504582019       -7.7251754232597873     
 PAO|LS| adapt: suggested step_size:   0.21849722761451645     
 PAO|LS| adapt: predicted energy  -7.7268914777630213     
 PAO| ======================= Iteration:        18 =============================

     Lanczos converged:  T threshold:   0.100E-02
     Est. extremal eigenvalues:    0.284E+01   0.186E+00
     Est. condition number :    0.153E+02
     NS sqrt iter    1 1.00000000   0.722E+00       0.001       55.712
     NS sqrt iter    2 1.00000000   0.334E+00       0.001       90.541
     NS sqrt iter    3 1.00000000   0.749E-01       0.001      108.100
     NS sqrt iter    4 1.00000000   0.180E-02       0.001      110.592
     NS sqrt iter    5 1.00000000   0.528E-07       0.001       70.656
     Final NS sqrt iter    5 1.00000000   0.387E-09

     Est. extremal eigenvalues     -0.93887     1.70007  converged:  T
     TRS4 it   1 1.00000000   0.881E+00       0.000       16.128   0.100E-07
     TRS4 it   2 1.00000000   0.620E+00       0.001       32.256   0.100E-07
     TRS4 it   3 1.00000000   0.424E+00       0.001       32.256   0.100E-07
     TRS4 it   4 1.00000000   0.218E+00       0.001       32.256   0.100E-07
     TRS4 it   5 1.00000000   0.728E-01       0.001       32.256   0.100E-07
     TRS4 it   6 1.00000000   0.105E-01       0.001       32.256   0.100E-07
     TRS4 it   7 1.00000000   0.292E-03       0.001       32.256   0.100E-07
     TRS4 it   8 1.00000000   0.309E-06       0.001       32.256   0.100E-07
     TRS4 it   9 1.00000000   0.414E-12       0.001       32.256   0.100E-07
     Final TRS4 iteration    9 1.00000000   0.414E-12
     Chemical potential (mu):       0.01241
 
 PAO| energy:  -7.7268909859988364      penalty:   1.4829856038778310E-005
 PAO|CG| trace_G_new    8.2586162244218861E-004
 PAO|CG| trace_G_prev    2.8186962549912151E-003
 PAO|CG| trace_G_mix   -1.0601625016698013E-006
 PAO|CG| trace_D    3.6624369902853639E-003
 PAO|CG| trace_D_Gnew  -2.1285303100297597E-006
 PAO|CG| beta:   0.29337030674361742     
 PAO| norm of gradient:   2.8737808240055267E-002
 PAO| energy improvement:  -3.0774615947759543E-004
 PAO| step     18                   -7.726890986  0.180E-02  0.218E+00     0.056
 PAO|LS| adapt:  T F F
 PAO|LS| adapt: scan_steps:    0.0000000000000000        0.0000000000000000        0.0000000000000000     
 PAO|LS| adapt: energies:   -7.7268909859988364        0.0000000000000000        0.0000000000000000     
 PAO| ======================= Iteration:        19 =============================

     Lanczos converged:  T threshold:   0.100E-02
     Est. extremal eigenvalues:    0.284E+01   0.186E+00
     Est. condition number :    0.153E+02
     NS sqrt iter    1 1.00000000   0.722E+00       0.001       59.503
     NS sqrt iter    2 1.00000000   0.334E+00       0.001      110.592
     NS sqrt iter    3 1.00000000   0.751E-01       0.001      110.592
     NS sqrt iter    4 1.00000000   0.181E-02       0.001      110.592
     NS sqrt iter    5 1.00000000   0.533E-07       0.001       70.656
     Final NS sqrt iter    5 1.00000000   0.392E-09

     Est. extremal eigenvalues     -0.93887     1.70025  converged:  T
     TRS4 it   1 1.00000000   0.881E+00       0.000       16.128   0.100E-07
     TRS4 it   2 1.00000000   0.620E+00       0.001       32.256   0.100E-07
     TRS4 it   3 1.00000000   0.424E+00       0.001       32.256   0.100E-07
     TRS4 it   4 1.00000000   0.218E+00       0.001       32.256   0.100E-07
     TRS4 it   5 1.00000000   0.727E-01       0.001       32.256   0.100E-07
     TRS4 it   6 1.00000000   0.104E-01       0.001       32.256   0.100E-07
     TRS4 it   7 1.00000000   0.293E-03       0.001       32.256   0.100E-07
     TRS4 it   8 1.00000000   0.313E-06       0.001       32.256   0.100E-07
     TRS4 it   9 1.00000000   0.425E-12       0.001       32.256   0.100E-07
     Final TRS4 iteration    9 1.00000000   0.425E-12
     Chemical potential (mu):       0.01217
 
 PAO| energy:  -7.7270287926376806      penalty:   1.4542067277057950E-005
 PAO|LS| adapt:  T T F
 PAO|LS| adapt: scan_steps:    0.0000000000000000       0.21849722761451645        0.0000000000000000     
 PAO|LS| adapt: energies:   -7.7268909859988364       -7.7270287926376806        0.0000000000000000     
 PAO| ======================= Iteration:        20 =============================

     Lanczos converged:  T threshold:   0.100E-02
     Est. extremal eigenvalues:    0.284E+01   0.186E+00
     Est. condition number :    0.153E+02
     NS sqrt iter    1 1.00000000   0.722E+00       0.001       59.000
     NS sqrt iter    2 1.00000000   0.334E+00       0.001      110.592
     NS sqrt iter    3 1.00000000   0.753E-01       0.001      110.592
     NS sqrt iter    4 1.00000000   0.182E-02       0.001      110.592
     NS sqrt iter    5 1.00000000   0.537E-07       0.001       70.784
     Final NS sqrt iter    5 1.00000000   0.397E-09

     Est. extremal eigenvalues     -0.93886     1.70044  converged:  T
     TRS4 it   1 1.00000000   0.881E+00       0.000       16.128   0.100E-07
     TRS4 it   2 1.00000000   0.620E+00       0.001       32.256   0.100E-07
     TRS4 it   3 1.00000000   0.423E+00       0.001       32.256   0.100E-07
     TRS4 it   4 1.00000000   0.217E+00       0.001       32.256   0.100E-07
     TRS4 it   5 1.00000000   0.725E-01       0.001       32.256   0.100E-07
     TRS4 it   6 1.00000000   0.104E-01       0.001       32.256   0.100E-07
     TRS4 it   7 1.00000000   0.293E-03       0.001       32.256   0.100E-07
     TRS4 it   8 1.00000000   0.317E-06       0.001       32.256   0.100E-07
     TRS4 it   9 1.00000000   0.436E-12       0.001       32.256   0.100E-07
     Final TRS4 iteration    9 1.00000000   0.436E-12
     Chemical potential (mu):       0.01193
 
 PAO| energy:  -7.7270804697487181      penalty:   1.4268968576922127E-005
 PAO|LS| adapt:  T T F
 PAO|LS| adapt: scan_steps:    0.0000000000000000       0.43699445522903291        0.0000000000000000     
 PAO|LS| adapt: energies:   -7.7268909859988364       -7.7270804697487181        0.0000000000000000     
 PAO| ======================= Iteration:        21 =============================

     Lanczos converged:  T threshold:   0.100E-02
     Est. extremal eigenvalues:    0.284E+01   0.185E+00
     Est. condition number :    0.153E+02
     NS sqrt iter    1 1.00000000   0.722E+00       0.001       56.866
     NS sqrt iter    2 1.00000000   0.335E+00       0.001      110.592
     NS sqrt iter    3 1.00000000   0.758E-01       0.001      110.592
     NS sqrt iter    4 1.00000000   0.184E-02       0.001      103.684
     NS sqrt iter    5 1.00000000   0.548E-07       0.001       67.760
     Final NS sqrt iter    5 1.00000000   0.410E-09

     Est. extremal eigenvalues     -0.93885     1.70083  converged:  T
     TRS4 it   1 1.00000000   0.882E+00       0.000       16.128   0.100E-07
     TRS4 it   2 1.00000000   0.619E+00       0.001       32.256   0.100E-07
     TRS4 it   3 1.00000000   0.423E+00       0.001       32.256   0.100E-07
     TRS4 it   4 1.00000000   0.217E+00       0.001       32.256   0.100E-07
     TRS4 it   5 1.00000000   0.722E-01       0.001       32.256   0.100E-07
     TRS4 it   6 1.00000000   0.104E-01       0.001       32.256   0.100E-07
     TRS4 it   7 1.00000000   0.295E-03       0.001       32.256   0.100E-07
     TRS4 it   8 1.00000000   0.325E-06       0.001       32.256   0.100E-07
     TRS4 it   9 1.00000000   0.463E-12       0.001       32.256   0.100E-07
     Final TRS4 iteration    9 1.00000000   0.463E-12
     Chemical potential (mu):       0.01142
 
 PAO| energy:  -7.7269220001376961      penalty:   1.3766193884778083E-005
 PAO|LS| Need extra step
 PAO|LS| adapt:  T T T
 PAO|LS| adapt: scan_steps:    0.0000000000000000       0.43699445522903291       0.87398891045806582     
 PAO|LS| adapt: energies:   -7.7268909859988364       -7.7270804697487181       -7.7269220001376961     
 PAO|LS| adapt: suggested step_size:   0.45646977611717932     
 PAO|LS| adapt: predicted energy  -7.7270808152967554     
 PAO| ======================= Iteration:        22 =============================

     Lanczos converged:  T threshold:   0.100E-02
     Est. extremal eigenvalues:    0.284E+01   0.186E+00
     Est. condition number :    0.153E+02
     NS sqrt iter    1 1.00000000   0.722E+00       0.001       64.512
     NS sqrt iter    2 1.00000000   0.334E+00       0.001      110.592
     NS sqrt iter    3 1.00000000   0.753E-01       0.001      110.592
     NS sqrt iter    4 1.00000000   0.182E-02       0.001      104.232
     NS sqrt iter    5 1.00000000   0.538E-07       0.001       70.784
     Final NS sqrt iter    5 1.00000000   0.398E-09

     Est. extremal eigenvalues     -0.93886     1.70046  converged:  T
     TRS4 it   1 1.00000000   0.881E+00       0.000       16.128   0.100E-07
     TRS4 it   2 1.00000000   0.620E+00       0.001       32.256   0.100E-07
     TRS4 it   3 1.00000000   0.423E+00       0.001       32.256   0.100E-07
     TRS4 it   4 1.00000000   0.217E+00       0.001       32.256   0.100E-07
     TRS4 it   5 1.00000000   0.725E-01       0.001       32.256   0.100E-07
     TRS4 it   6 1.00000000   0.104E-01       0.001       32.256   0.100E-07
     TRS4 it   7 1.00000000   0.294E-03       0.001       32.256   0.100E-07
     TRS4 it   8 1.00000000   0.317E-06       0.001       32.256   0.100E-07
     TRS4 it   9 1.00000000   0.438E-12       0.001       32.256   0.100E-07
     Final TRS4 iteration    9 1.00000000   0.438E-12
     Chemical potential (mu):       0.01191
 
 PAO| energy:  -7.7270808663904260      penalty:   1.4245332496192654E-005
 PAO|CG| trace_G_new    2.8286061819219927E-004
 PAO|CG| trace_G_prev    8.2586162244218861E-004
 PAO|CG| trace_G_mix    5.1979505572039377E-006
 PAO|CG| trace_D    1.1423223209381637E-003
 PAO|CG| trace_D_Gnew  -2.6125455267590925E-006
 PAO|CG| beta:   0.33620967495003329     
 PAO| norm of gradient:   1.6818460636818081E-002
 PAO| energy improvement:  -1.8988039158962522E-004
 PAO| step     22                   -7.727080866  0.105E-02  0.456E+00     0.073
 PAO|LS| adapt:  T F F
 PAO|LS| adapt: scan_steps:    0.0000000000000000        0.0000000000000000        0.0000000000000000     
 PAO|LS| adapt: energies:   -7.7270808663904260        0.0000000000000000        0.0000000000000000     
 PAO| ======================= Iteration:        23 =============================

     Lanczos converged:  T threshold:   0.100E-02
     Est. extremal eigenvalues:    0.284E+01   0.186E+00
     Est. condition number :    0.153E+02
     NS sqrt iter    1 1.00000000   0.722E+00       0.001       50.394
     NS sqrt iter    2 1.00000000   0.334E+00       0.001      110.592
     NS sqrt iter    3 1.00000000   0.754E-01       0.001      110.592
     NS sqrt iter    4 1.00000000   0.182E-02       0.001      110.592
     NS sqrt iter    5 1.00000000   0.540E-07       0.001       70.784
     Final NS sqrt iter    5 1.00000000   0.401E-09

     Est. extremal eigenvalues     -0.93886     1.70034  converged:  T
     TRS4 it   1 1.00000000   0.881E+00       0.001       11.934   0.100E-07
     TRS4 it   2 1.00000000   0.620E+00       0.002       16.123   0.100E-07
     TRS4 it   3 1.00000000   0.423E+00       0.001       32.256   0.100E-07
     TRS4 it   4 1.00000000   0.217E+00       0.001       32.256   0.100E-07
     TRS4 it   5 1.00000000   0.726E-01       0.001       32.256   0.100E-07
     TRS4 it   6 1.00000000   0.105E-01       0.001       32.256   0.100E-07
     TRS4 it   7 1.00000000   0.296E-03       0.001       32.256   0.100E-07
     TRS4 it   8 1.00000000   0.324E-06       0.001       32.256   0.100E-07
     TRS4 it   9 1.00000000   0.457E-12       0.001       32.256   0.100E-07
     Final TRS4 iteration    9 1.00000000   0.457E-12
     Chemical potential (mu):       0.01164
 
 PAO| energy:  -7.7271269193992831      penalty:   1.3546729240763602E-005
 PAO|LS| adapt:  T T F
 PAO|LS| adapt: scan_steps:    0.0000000000000000       0.45646977611717932        0.0000000000000000     
 PAO|LS| adapt: energies:   -7.7270808663904260       -7.7271269193992831        0.0000000000000000     
 PAO| ======================= Iteration:        24 =============================

     Lanczos converged:  T threshold:   0.100E-02
     Est. extremal eigenvalues:    0.284E+01   0.186E+00
     Est. condition number :    0.153E+02
     NS sqrt iter    1 1.00000000   0.722E+00       0.001       64.512
     NS sqrt iter    2 1.00000000   0.334E+00       0.001      102.554
     NS sqrt iter    3 1.00000000   0.754E-01       0.001      110.592
     NS sqrt iter    4 1.00000000   0.183E-02       0.001       89.743
     NS sqrt iter    5 1.00000000   0.542E-07       0.001       66.491
     Final NS sqrt iter    5 1.00000000   0.405E-09

     Est. extremal eigenvalues     -0.93885     1.70021  converged:  T
     TRS4 it   1 1.00000000   0.881E+00       0.000       16.128   0.100E-07
     TRS4 it   2 1.00000000   0.620E+00       0.001       32.256   0.100E-07
     TRS4 it   3 1.00000000   0.423E+00       0.001       32.256   0.100E-07
     TRS4 it   4 1.00000000   0.217E+00       0.001       32.256   0.100E-07
     TRS4 it   5 1.00000000   0.727E-01       0.001       32.256   0.100E-07
     TRS4 it   6 1.00000000   0.105E-01       0.001       32.256   0.100E-07
     TRS4 it   7 1.00000000   0.299E-03       0.001       32.256   0.100E-07
     TRS4 it   8 1.00000000   0.331E-06       0.001       32.256   0.100E-07
     TRS4 it   9 1.00000000   0.478E-12       0.001       32.256   0.100E-07
     Final TRS4 iteration    9 1.00000000   0.478E-12
     Chemical potential (mu):       0.01137
 
 PAO| energy:  -7.7270051005882205      penalty:   1.2882952706777450E-005
 PAO|LS| adapt:  T T T
 PAO|LS| adapt: scan_steps:    0.0000000000000000       0.45646977611717932       0.91293955223435863     
 PAO|LS| adapt: energies:   -7.7270808663904260       -7.7271269193992831       -7.7270051005882205     
 PAO|LS| adapt: suggested step_size:   0.35346023351904876     
 PAO|LS| adapt: predicted energy  -7.7271311938337792     
 PAO| ======================= Iteration:        25 =============================

     Lanczos converged:  T threshold:   0.100E-02
     Est. extremal eigenvalues:    0.284E+01   0.186E+00
     Est. condition number :    0.153E+02
     NS sqrt iter    1 1.00000000   0.722E+00       0.001       64.512
     NS sqrt iter    2 1.00000000   0.334E+00       0.001      110.592
     NS sqrt iter    3 1.00000000   0.754E-01       0.001      110.592
     NS sqrt iter    4 1.00000000   0.182E-02       0.001      110.592
     NS sqrt iter    5 1.00000000   0.539E-07       0.001       55.648
     Final NS sqrt iter    5 1.00000000   0.401E-09

     Est. extremal eigenvalues     -0.93886     1.70036  converged:  T
     TRS4 it   1 1.00000000   0.881E+00       0.000       16.128   0.100E-07
     TRS4 it   2 1.00000000   0.620E+00       0.001       32.256   0.100E-07
     TRS4 it   3 1.00000000   0.423E+00       0.001       32.256   0.100E-07
     TRS4 it   4 1.00000000   0.217E+00       0.001       32.256   0.100E-07
     TRS4 it   5 1.00000000   0.726E-01       0.001       32.256   0.100E-07
     TRS4 it   6 1.00000000   0.105E-01       0.001       32.256   0.100E-07
     TRS4 it   7 1.00000000   0.296E-03       0.001       32.256   0.100E-07
     TRS4 it   8 1.00000000   0.323E-06       0.001       32.256   0.100E-07
     TRS4 it   9 1.00000000   0.453E-12       0.001       32.256   0.100E-07
     Final TRS4 iteration    9 1.00000000   0.453E-12
     Chemical potential (mu):       0.01170
 
 PAO| energy:  -7.7271311434405261      penalty:   1.3701305374116939E-005
 PAO|CG| trace_G_new    1.3813764125805507E-004
 PAO|CG| trace_G_prev    2.8286061819219927E-004
 PAO|CG| trace_G_mix    5.0159758165831486E-007
 PAO|CG| trace_D    4.1374197032648547E-004
 PAO|CG| trace_D_Gnew  -4.4051677150139037E-007
 PAO|CG| beta:   0.48658609514483658     
 PAO| norm of gradient:   1.1753197065396933E-002
 PAO| energy improvement:  -5.0277050100078213E-005
 PAO| step     25                   -7.727131143  0.735E-03  0.353E+00     0.057
 PAO|LS| adapt:  T F F
 PAO|LS| adapt: scan_steps:    0.0000000000000000        0.0000000000000000        0.0000000000000000     
 PAO|LS| adapt: energies:   -7.7271311434405261        0.0000000000000000        0.0000000000000000     
 PAO| ======================= Iteration:        26 =============================

     Lanczos converged:  T threshold:   0.100E-02
     Est. extremal eigenvalues:    0.283E+01   0.186E+00
     Est. condition number :    0.153E+02
     NS sqrt iter    1 1.00000000   0.722E+00       0.002       32.857
     NS sqrt iter    2 1.00000000   0.334E+00       0.001       75.727
     NS sqrt iter    3 1.00000000   0.753E-01       0.001      110.592
     NS sqrt iter    4 1.00000000   0.182E-02       0.001      109.974
     NS sqrt iter    5 1.00000000   0.539E-07       0.001       70.656
     Final NS sqrt iter    5 1.00000000   0.402E-09

     Est. extremal eigenvalues     -0.93886     1.70066  converged:  T
     TRS4 it   1 1.00000000   0.882E+00       0.000       16.128   0.100E-07
     TRS4 it   2 1.00000000   0.620E+00       0.001       32.256   0.100E-07
     TRS4 it   3 1.00000000   0.423E+00       0.001       32.256   0.100E-07
     TRS4 it   4 1.00000000   0.218E+00       0.001       32.256   0.100E-07
     TRS4 it   5 1.00000000   0.726E-01       0.001       32.256   0.100E-07
     TRS4 it   6 1.00000000   0.105E-01       0.001       32.256   0.100E-07
     TRS4 it   7 1.00000000   0.296E-03       0.001       32.256   0.100E-07
     TRS4 it   8 1.00000000   0.322E-06       0.001       32.256   0.100E-07
     TRS4 it   9 1.00000000   0.451E-12       0.001       32.256   0.100E-07
     Final TRS4 iteration    9 1.00000000   0.451E-12
     Chemical potential (mu):       0.01179
 
 PAO| energy:  -7.7271513437666552      penalty:   1.3057639905780650E-005
 PAO|LS| adapt:  T T F
 PAO|LS| adapt: scan_steps:    0.0000000000000000       0.35346023351904876        0.0000000000000000     
 PAO|LS| adapt: energies:   -7.7271311434405261       -7.7271513437666552        0.0000000000000000     
 PAO| ======================= Iteration:        27 =============================

     Lanczos converged:  T threshold:   0.100E-02
     Est. extremal eigenvalues:    0.283E+01   0.186E+00
     Est. condition number :    0.153E+02
     NS sqrt iter    1 1.00000000   0.721E+00       0.001       64.512
     NS sqrt iter    2 1.00000000   0.334E+00       0.001      109.550
     NS sqrt iter    3 1.00000000   0.752E-01       0.001      110.592
     NS sqrt iter    4 1.00000000   0.182E-02       0.001      102.540
     NS sqrt iter    5 1.00000000   0.538E-07       0.001       70.656
     Final NS sqrt iter    5 1.00000000   0.402E-09

     Est. extremal eigenvalues     -0.93886     1.70095  converged:  T
     TRS4 it   1 1.00000000   0.882E+00       0.001       16.128   0.100E-07
     TRS4 it   2 1.00000000   0.620E+00       0.001       32.256   0.100E-07
     TRS4 it   3 1.00000000   0.423E+00       0.001       32.256   0.100E-07
     TRS4 it   4 1.00000000   0.218E+00       0.001       32.256   0.100E-07
     TRS4 it   5 1.00000000   0.726E-01       0.001       32.256   0.100E-07
     TRS4 it   6 1.00000000   0.105E-01       0.001       32.256   0.100E-07
     TRS4 it   7 1.00000000   0.296E-03       0.001       32.256   0.100E-07
     TRS4 it   8 1.00000000   0.321E-06       0.001       32.256   0.100E-07
     TRS4 it   9 1.00000000   0.448E-12       0.001       32.256   0.100E-07
     Final TRS4 iteration    9 1.00000000   0.448E-12
     Chemical potential (mu):       0.01188
 
 PAO| energy:  -7.7271139614042532      penalty:   1.2435364395713345E-005
 PAO|LS| adapt:  T T T
 PAO|LS| adapt: scan_steps:    0.0000000000000000       0.35346023351904876       0.70692046703809752     
 PAO|LS| adapt: energies:   -7.7271311434405261       -7.7271513437666552       -7.7271139614042532     
 PAO|LS| adapt: suggested step_size:   0.30072592475144017     
 PAO|LS| adapt: predicted energy  -7.7271519846328101     
 PAO| ======================= Iteration:        28 =============================

     Lanczos converged:  T threshold:   0.100E-02
     Est. extremal eigenvalues:    0.283E+01   0.186E+00
     Est. condition number :    0.153E+02
     NS sqrt iter    1 1.00000000   0.722E+00       0.003       22.589
     NS sqrt iter    2 1.00000000   0.334E+00       0.001       83.534
     NS sqrt iter    3 1.00000000   0.753E-01       0.001       96.028
     NS sqrt iter    4 1.00000000   0.182E-02       0.001      110.204
     NS sqrt iter    5 1.00000000   0.539E-07       0.001       70.656
     Final NS sqrt iter    5 1.00000000   0.402E-09

     Est. extremal eigenvalues     -0.93886     1.70061  converged:  T
     TRS4 it   1 1.00000000   0.882E+00       0.000       16.128   0.100E-07
     TRS4 it   2 1.00000000   0.620E+00       0.001       32.256   0.100E-07
     TRS4 it   3 1.00000000   0.423E+00       0.001       32.256   0.100E-07
     TRS4 it   4 1.00000000   0.218E+00       0.001       32.256   0.100E-07
     TRS4 it   5 1.00000000   0.726E-01       0.001       32.256   0.100E-07
     TRS4 it   6 1.00000000   0.105E-01       0.001       32.256   0.100E-07
     TRS4 it   7 1.00000000   0.296E-03       0.001       32.256   0.100E-07
     TRS4 it   8 1.00000000   0.322E-06       0.001       27.719   0.100E-07
     TRS4 it   9 1.00000000   0.450E-12       0.001       32.256   0.100E-07
     Final TRS4 iteration    9 1.00000000   0.450E-12
     Chemical potential (mu):       0.01178
 
 PAO| energy:  -7.7271519783028300      penalty:   1.3152304577234114E-005
 PAO|CG| trace_G_new    5.3767009860875241E-005
 PAO|CG| trace_G_prev    1.3813764125805507E-004
 PAO|CG| trace_G_mix    4.1083255539854508E-007
 PAO|CG| trace_D    2.3652638285569146E-004
 PAO|CG| trace_D_Gnew  -1.2285813403772609E-007
 PAO|CG| beta:   0.38625371636252254     
 PAO| norm of gradient:   7.3325991204262111E-003
 PAO| energy improvement:  -2.0834862303864554E-005
 PAO| step     28                   -7.727151978  0.458E-03  0.301E+00     0.058
 PAO|LS| adapt:  T F F
 PAO|LS| adapt: scan_steps:    0.0000000000000000        0.0000000000000000        0.0000000000000000     
 PAO|LS| adapt: energies:   -7.7271519783028300        0.0000000000000000        0.0000000000000000     
 PAO| ======================= Iteration:        29 =============================

     Lanczos converged:  T threshold:   0.100E-02
     Est. extremal eigenvalues:    0.283E+01   0.186E+00
     Est. condition number :    0.153E+02
     NS sqrt iter    1 1.00000000   0.721E+00       0.001       64.512
     NS sqrt iter    2 1.00000000   0.334E+00       0.001       94.635
     NS sqrt iter    3 1.00000000   0.752E-01       0.001      110.592
     NS sqrt iter    4 1.00000000   0.182E-02       0.001      110.592
     NS sqrt iter    5 1.00000000   0.538E-07       0.001       70.656
     Final NS sqrt iter    5 1.00000000   0.402E-09

     Est. extremal eigenvalues     -0.93887     1.70087  converged:  T
     TRS4 it   1 1.00000000   0.882E+00       0.000       16.128   0.100E-07
     TRS4 it   2 1.00000000   0.620E+00       0.001       30.947   0.100E-07
     TRS4 it   3 1.00000000   0.423E+00       0.001       32.256   0.100E-07
     TRS4 it   4 1.00000000   0.217E+00       0.001       25.633   0.100E-07
     TRS4 it   5 1.00000000   0.725E-01       0.001       32.256   0.100E-07
     TRS4 it   6 1.00000000   0.104E-01       0.001       32.256   0.100E-07
     TRS4 it   7 1.00000000   0.294E-03       0.001       32.256   0.100E-07
     TRS4 it   8 1.00000000   0.317E-06       0.001       32.256   0.100E-07
     TRS4 it   9 1.00000000   0.437E-12       0.001       32.256   0.100E-07
     Final TRS4 iteration    9 1.00000000   0.437E-12
     Chemical potential (mu):       0.01197
 
 PAO| energy:  -7.7271660769249415      penalty:   1.2627477904347799E-005
 PAO|LS| adapt:  T T F
 PAO|LS| adapt: scan_steps:    0.0000000000000000       0.30072592475144017        0.0000000000000000     
 PAO|LS| adapt: energies:   -7.7271519783028300       -7.7271660769249415        0.0000000000000000     
 PAO| ======================= Iteration:        30 =============================

     Lanczos converged:  T threshold:   0.100E-02
     Est. extremal eigenvalues:    0.283E+01   0.185E+00
     Est. condition number :    0.153E+02
     NS sqrt iter    1 1.00000000   0.721E+00       0.001       64.512
     NS sqrt iter    2 1.00000000   0.334E+00       0.001      110.592
     NS sqrt iter    3 1.00000000   0.751E-01       0.001      110.592
     NS sqrt iter    4 1.00000000   0.181E-02       0.001       99.424
     NS sqrt iter    5 1.00000000   0.538E-07       0.001       70.656
     Final NS sqrt iter    5 1.00000000   0.402E-09

     Est. extremal eigenvalues     -0.93887     1.70112  converged:  T
     TRS4 it   1 1.00000000   0.882E+00       0.001       16.128   0.100E-07
     TRS4 it   2 1.00000000   0.620E+00       0.001       32.256   0.100E-07
     TRS4 it   3 1.00000000   0.423E+00       0.001       32.256   0.100E-07
     TRS4 it   4 1.00000000   0.217E+00       0.001       32.256   0.100E-07
     TRS4 it   5 1.00000000   0.724E-01       0.001       32.256   0.100E-07
     TRS4 it   6 1.00000000   0.104E-01       0.001       32.256   0.100E-07
     TRS4 it   7 1.00000000   0.292E-03       0.001       32.256   0.100E-07
     TRS4 it   8 1.00000000   0.313E-06       0.001       32.256   0.100E-07
     TRS4 it   9 1.00000000   0.424E-12       0.001       32.256   0.100E-07
     Final TRS4 iteration    9 1.00000000   0.424E-12
     Chemical potential (mu):       0.01217
 
 PAO| energy:  -7.7271759979194270      penalty:   1.2115468115435236E-005
 PAO|LS| adapt:  T T F
 PAO|LS| adapt: scan_steps:    0.0000000000000000       0.60145184950288033        0.0000000000000000     
 PAO|LS| adapt: energies:   -7.7271519783028300       -7.7271759979194270        0.0000000000000000     
 PAO| ======================= Iteration:        31 =============================

     Lanczos converged:  T threshold:   0.100E-02
     Est. extremal eigenvalues:    0.283E+01   0.185E+00
     Est. condition number :    0.153E+02
     NS sqrt iter    1 1.00000000   0.720E+00       0.001       64.512
     NS sqrt iter    2 1.00000000   0.333E+00       0.001      110.592
     NS sqrt iter    3 1.00000000   0.750E-01       0.001      110.592
     NS sqrt iter    4 1.00000000   0.181E-02       0.001      110.592
     NS sqrt iter    5 1.00000000   0.538E-07       0.001       70.656
     Final NS sqrt iter    5 1.00000000   0.404E-09

     Est. extremal eigenvalues     -0.93887     1.70162  converged:  T
     TRS4 it   1 1.00000000   0.882E+00       0.001       16.128   0.100E-07
     TRS4 it   2 1.00000000   0.620E+00       0.001       32.256   0.100E-07
     TRS4 it   3 1.00000000   0.423E+00       0.001       29.041   0.100E-07
     TRS4 it   4 1.00000000   0.217E+00       0.001       32.256   0.100E-07
     TRS4 it   5 1.00000000   0.722E-01       0.001       32.256   0.100E-07
     TRS4 it   6 1.00000000   0.104E-01       0.001       32.256   0.100E-07
     TRS4 it   7 1.00000000   0.289E-03       0.001       32.256   0.100E-07
     TRS4 it   8 1.00000000   0.304E-06       0.001       32.256   0.100E-07
     TRS4 it   9 1.00000000   0.400E-12       0.001       32.256   0.100E-07
     Final TRS4 iteration    9 1.00000000   0.400E-12
     Chemical potential (mu):       0.01255
 
 PAO| energy:  -7.7271832634562090      penalty:   1.1129386528432169E-005
 PAO|LS| Need extra step
 PAO|LS| adapt:  T T F
 PAO|LS| adapt: scan_steps:    0.0000000000000000        1.2029036990057607        0.0000000000000000     
 PAO|LS| adapt: energies:   -7.7271519783028300       -7.7271832634562090        0.0000000000000000     
 PAO| ======================= Iteration:        32 =============================

     Lanczos converged:  T threshold:   0.100E-02
     Est. extremal eigenvalues:    0.282E+01   0.185E+00
     Est. condition number :    0.153E+02
     NS sqrt iter    1 1.00000000   0.719E+00       0.001       53.937
     NS sqrt iter    2 1.00000000   0.332E+00       0.001       95.745
     NS sqrt iter    3 1.00000000   0.747E-01       0.001      110.592
     NS sqrt iter    4 1.00000000   0.180E-02       0.001      110.592
     NS sqrt iter    5 1.00000000   0.540E-07       0.001       71.040
     Final NS sqrt iter    5 1.00000000   0.442E-09

     Est. extremal eigenvalues     -0.93887     1.70262  converged:  T
     TRS4 it   1 1.00000000   0.883E+00       0.001       16.128   0.100E-07
     TRS4 it   2 1.00000000   0.620E+00       0.001       32.256   0.100E-07
     TRS4 it   3 1.00000000   0.423E+00       0.001       32.256   0.100E-07
     TRS4 it   4 1.00000000   0.216E+00       0.001       23.543   0.100E-07
     TRS4 it   5 1.00000000   0.718E-01       0.001       31.938   0.100E-07
     TRS4 it   6 1.00000000   0.103E-01       0.001       32.256   0.100E-07
     TRS4 it   7 1.00000000   0.282E-03       0.001       32.256   0.100E-07
     TRS4 it   8 1.00000000   0.287E-06       0.001       32.256   0.100E-07
     TRS4 it   9 1.00000000   0.355E-12       0.001       32.256   0.100E-07
     Final TRS4 iteration    9 1.00000000   0.355E-12
     Chemical potential (mu):       0.01331
 
 PAO| energy:  -7.7271471234823998      penalty:   9.3054691142665177E-006
 PAO|LS| Need extra step
 PAO|LS| adapt:  T T T
 PAO|LS| adapt: scan_steps:    0.0000000000000000        1.2029036990057607        2.4058073980115213     
 PAO|LS| adapt: energies:   -7.7271519783028300       -7.7271832634562090       -7.7271471234823998     
 PAO|LS| adapt: suggested step_size:    1.1595972812285078     
 PAO|LS| adapt: predicted energy  -7.7271833071514937     
 PAO| ======================= Iteration:        33 =============================

     Lanczos converged:  T threshold:   0.100E-02
     Est. extremal eigenvalues:    0.283E+01   0.185E+00
     Est. condition number :    0.153E+02
     NS sqrt iter    1 1.00000000   0.720E+00       0.001       64.512
     NS sqrt iter    2 1.00000000   0.333E+00       0.001      110.592
     NS sqrt iter    3 1.00000000   0.750E-01       0.001      110.592
     NS sqrt iter    4 1.00000000   0.181E-02       0.001      110.592
     NS sqrt iter    5 1.00000000   0.538E-07       0.001       70.656
     Final NS sqrt iter    5 1.00000000   0.404E-09

     Est. extremal eigenvalues     -0.93887     1.70159  converged:  T
     TRS4 it   1 1.00000000   0.882E+00       0.000       16.128   0.100E-07
     TRS4 it   2 1.00000000   0.620E+00       0.001       32.256   0.100E-07
     TRS4 it   3 1.00000000   0.423E+00       0.001       32.256   0.100E-07
     TRS4 it   4 1.00000000   0.217E+00       0.001       32.256   0.100E-07
     TRS4 it   5 1.00000000   0.722E-01       0.001       32.256   0.100E-07
     TRS4 it   6 1.00000000   0.104E-01       0.001       32.256   0.100E-07
     TRS4 it   7 1.00000000   0.289E-03       0.001       32.256   0.100E-07
     TRS4 it   8 1.00000000   0.305E-06       0.001       32.256   0.100E-07
     TRS4 it   9 1.00000000   0.401E-12       0.001       32.256   0.100E-07
     Final TRS4 iteration    9 1.00000000   0.401E-12
     Chemical potential (mu):       0.01252
 
 PAO| energy:  -7.7271833020700278      penalty:   1.1198713639814925E-005
 PAO|CG| trace_G_new    1.3473015650113386E-004
[...]
     NS sqrt iter    3 1.00000000   0.499E-01       0.001      110.592
     NS sqrt iter    4 1.00000000   0.841E-03       0.001      110.592
     NS sqrt iter    5 1.00000000   0.766E-08       0.001       38.528
     Final NS sqrt iter    5 1.00000000   0.513E-09

     Est. extremal eigenvalues     -0.93864     1.64201  converged:  T
     TRS4 it   1 1.00000000   0.894E+00       0.000       16.128   0.100E-07
     TRS4 it   2 1.00000000   0.640E+00       0.001       32.256   0.100E-07
     TRS4 it   3 1.00000000   0.461E+00       0.001       32.256   0.100E-07
     TRS4 it   4 1.00000000   0.284E+00       0.001       32.256   0.100E-07
     TRS4 it   5 1.00000000   0.143E+00       0.001       32.256   0.100E-07
     TRS4 it   6 1.00000000   0.455E-01       0.001       32.256   0.100E-07
     TRS4 it   7 1.00000000   0.627E-02       0.001       32.256   0.100E-07
     TRS4 it   8 1.00000000   0.164E-03       0.001       32.256   0.100E-07
     TRS4 it   9 1.00000000   0.122E-06       0.001       32.256   0.100E-07
     TRS4 it  10 1.00000000   0.662E-13       0.001       32.256   0.100E-07
     Final TRS4 iteration   10 1.00000000   0.662E-13
     Chemical potential (mu):      -0.06435
 
 PAO| energy:  -7.7258950735621870      penalty:   5.6997329487902681E-011
 PAO|LS| Need extra step
 PAO|LS| adapt:  T T T
 PAO|LS| adapt: scan_steps:    0.0000000000000000       0.20000000000000001       0.40000000000000002     
 PAO|LS| adapt: energies:   -7.7258950735569991       -7.7258950735669698       -7.7258950735621870     
 PAO|LS| adapt: suggested step_size:   0.23516344590933716     
 PAO|LS| adapt: predicted energy  -7.7258950735671981     
 PAO| ======================= Iteration:       980 =============================

     Lanczos converged:  T threshold:   0.100E-02
     Est. extremal eigenvalues:    0.254E+01   0.191E+00
     Est. condition number :    0.133E+02
     NS sqrt iter    1 1.00000000   0.642E+00       0.001       47.722
     NS sqrt iter    2 1.00000000   0.276E+00       0.001      107.557
     NS sqrt iter    3 1.00000000   0.499E-01       0.001       95.429
     NS sqrt iter    4 1.00000000   0.841E-03       0.001      110.387
     NS sqrt iter    5 1.00000000   0.766E-08       0.001       38.528
     Final NS sqrt iter    5 1.00000000   0.513E-09

     Est. extremal eigenvalues     -0.93864     1.64201  converged:  T
     TRS4 it   1 1.00000000   0.894E+00       0.000       16.128   0.100E-07
     TRS4 it   2 1.00000000   0.640E+00       0.001       32.256   0.100E-07
     TRS4 it   3 1.00000000   0.461E+00       0.001       32.256   0.100E-07
     TRS4 it   4 1.00000000   0.284E+00       0.001       32.256   0.100E-07
     TRS4 it   5 1.00000000   0.143E+00       0.001       32.256   0.100E-07
     TRS4 it   6 1.00000000   0.455E-01       0.001       32.256   0.100E-07
     TRS4 it   7 1.00000000   0.627E-02       0.001       32.256   0.100E-07
     TRS4 it   8 1.00000000   0.164E-03       0.001       32.256   0.100E-07
     TRS4 it   9 1.00000000   0.122E-06       0.001       32.256   0.100E-07
     TRS4 it  10 1.00000000   0.663E-13       0.001       32.256   0.100E-07
     Final TRS4 iteration   10 1.00000000   0.663E-13
     Chemical potential (mu):      -0.06435
 
 PAO| energy:  -7.7258950735671972      penalty:   5.7161793192781448E-011
 PAO|CG| warming up with steepest descent
 PAO|CG| beta:    0.0000000000000000     
 PAO| norm of gradient:   6.5029452383675293E-006
 PAO| energy improvement:  -1.0198064614996838E-011
 PAO| step    980                   -7.725895074  0.406E-06  0.235E+00     0.076
 PAO| converged after          980  steps :-)
 PAO| Recalculating energy after mixing.

     Lanczos converged:  T threshold:   0.100E-02
     Est. extremal eigenvalues:    0.254E+01   0.191E+00
     Est. condition number :    0.133E+02
     NS sqrt iter    1 1.00000000   0.642E+00       0.001       63.598
     NS sqrt iter    2 1.00000000   0.276E+00       0.001      105.199
     NS sqrt iter    3 1.00000000   0.499E-01       0.001       98.346
     NS sqrt iter    4 1.00000000   0.841E-03       0.001       88.227
     NS sqrt iter    5 1.00000000   0.766E-08       0.001       30.272
     Final NS sqrt iter    5 1.00000000   0.513E-09

     Est. extremal eigenvalues     -0.93864     1.64201  converged:  T
     TRS4 it   1 1.00000000   0.894E+00       0.000       16.128   0.100E-07
     TRS4 it   2 1.00000000   0.640E+00       0.001       32.256   0.100E-07
     TRS4 it   3 1.00000000   0.461E+00       0.001       32.256   0.100E-07
     TRS4 it   4 1.00000000   0.284E+00       0.001       32.256   0.100E-07
     TRS4 it   5 1.00000000   0.143E+00       0.001       28.965   0.100E-07
     TRS4 it   6 1.00000000   0.455E-01       0.001       23.835   0.100E-07
     TRS4 it   7 1.00000000   0.627E-02       0.001       32.256   0.100E-07
     TRS4 it   8 1.00000000   0.164E-03       0.001       32.256   0.100E-07
     TRS4 it   9 1.00000000   0.122E-06       0.001       32.256   0.100E-07
     TRS4 it  10 1.00000000   0.665E-13       0.001       32.256   0.100E-07
     Final TRS4 iteration   10 1.00000000   0.665E-13
     Chemical potential (mu):      -0.06435
 
 PAO| energy:  -7.7258950735646454      penalty:   5.7279711292670927E-011
 PAO| Writing restart file.
     Est. extremal eigenvalues     -0.93864     1.64201  converged:  T
     TRS4 it   1 1.00000000   0.894E+00       0.001       16.128   0.100E-07
     TRS4 it   2 1.00000000   0.640E+00       0.001       32.256   0.100E-07
     TRS4 it   3 1.00000000   0.461E+00       0.001       32.256   0.100E-07
     TRS4 it   4 1.00000000   0.284E+00       0.001       32.256   0.100E-07
     TRS4 it   5 1.00000000   0.143E+00       0.001       32.256   0.100E-07
     TRS4 it   6 1.00000000   0.455E-01       0.001       32.256   0.100E-07
     TRS4 it   7 1.00000000   0.627E-02       0.001       32.256   0.100E-07
     TRS4 it   8 1.00000000   0.164E-03       0.001       32.256   0.100E-07
     TRS4 it   9 1.00000000   0.122E-06       0.001       32.256   0.100E-07
     TRS4 it  10 1.00000000   0.665E-13       0.001       32.256   0.100E-07
     Final TRS4 iteration   10 1.00000000   0.665E-13
     Chemical potential (mu):      -0.06435

 SCF     1       -34.449575677       -34.449575677    2.282819

*********************************************************
 Using MIXING_FRACTION=0.450 to mix KS matrix:  iscf=  2
 KS_nw=0.450*KS + 0.550*KS_old
*********************************************************
     Est. extremal eigenvalues     -0.93864     1.64201  converged:  T
     TRS4 it   1 1.00000000   0.894E+00       0.000       16.128   0.100E-07
     TRS4 it   2 1.00000000   0.640E+00       0.001       32.256   0.100E-07
     TRS4 it   3 1.00000000   0.461E+00       0.001       32.256   0.100E-07
     TRS4 it   4 1.00000000   0.284E+00       0.001       32.256   0.100E-07
     TRS4 it   5 1.00000000   0.143E+00       0.001       32.256   0.100E-07
     TRS4 it   6 1.00000000   0.455E-01       0.001       32.256   0.100E-07
     TRS4 it   7 1.00000000   0.627E-02       0.001       32.256   0.100E-07
     TRS4 it   8 1.00000000   0.164E-03       0.001       32.256   0.100E-07
     TRS4 it   9 1.00000000   0.122E-06       0.001       32.256   0.100E-07
     TRS4 it  10 1.00000000   0.665E-13       0.001       32.256   0.100E-07
     Final TRS4 iteration   10 1.00000000   0.665E-13
     Chemical potential (mu):      -0.06435

 SCF     2       -34.449575677         0.000000000    2.292617

 PAO| Storing density matrix for ASPC guess in slot:           1

 ENERGY| Total FORCE_EVAL ( QS ) energy (a.u.):              -34.449575677011723


 -------------------------------------------------------------------------------
 -                                                                             -
 -                                DBCSR STATISTICS                             -
 -                                                                             -
 -------------------------------------------------------------------------------
 COUNTER                                    TOTAL       BLAS       SMM       ACC
 flops     5 x     5 x     4                36000       0.0%    100.0%      0.0%
 flops    13 x     5 x     4                37440       0.0%    100.0%      0.0%
 flops     5 x    13 x     4                37440       0.0%    100.0%      0.0%
 flops    13 x    13 x     4                73008       0.0%    100.0%      0.0%
 flops     4 x     4 x     5              7676160       0.0%    100.0%      0.0%
 flops     5 x     4 x     5              9372800       0.0%    100.0%      0.0%
 flops     4 x     4 x    13              9979008       0.0%    100.0%      0.0%
 flops    13 x     4 x     5             12184640       0.0%    100.0%      0.0%
 flops     5 x     4 x    13             12184640       0.0%    100.0%      0.0%
 flops     5 x     4 x     4             14970880       0.0%    100.0%      0.0%
 flops    13 x     4 x    13             15840032       0.0%    100.0%      0.0%
 flops    13 x     4 x     4             20142720       0.0%    100.0%      0.0%
 flops     4 x     4 x     4           1001740672       0.0%    100.0%      0.0%
 flops inhomo. stacks                           0       0.0%      0.0%      0.0%
 flops total                         1.104275E+09       0.0%    100.0%      0.0%
 flops max/rank                      1.104275E+09       0.0%    100.0%      0.0%
 matmuls inhomo. stacks                         0       0.0%      0.0%      0.0%
 matmuls total                            8145873       0.0%    100.0%      0.0%
 number of processed stacks                 65245       0.0%    100.0%      0.0%
 average stack size                                     0.0     124.9       0.0
 marketing flops                     1.799312E+09
 -------------------------------------------------------------------------------
 # multiplications                          54496
 max memory usage/rank             321.110016E+06
 # max total images/rank                        1
 # max 3D layers                                1
 # MPI messages exchanged                       0
 MPI messages size (bytes):
  total size                         0.000000E+00
  min size                           0.000000E+00
  max size                           0.000000E+00
  average size                       0.000000E+00
 MPI breakdown and total messages size (bytes):
             size <=      128                   0                        0
       128 < size <=     8192                   0                        0
      8192 < size <=    32768                   0                        0
     32768 < size <=   131072                   0                        0
    131072 < size <=  4194304                   0                        0
   4194304 < size <= 16777216                   0                        0
  16777216 < size                               0                        0
 -------------------------------------------------------------------------------

 MEMORY| Estimated peak process memory [MiB]                                 307

 -------------------------------------------------------------------------------
 -                                                                             -
 -                           R E F E R E N C E S                               -
 -                                                                             -
 -------------------------------------------------------------------------------
 
 CP2K version 7.0 (Development Version), the CP2K developers group (2018).
 CP2K is freely available from https://www.cp2k.org/ .

 Schuett, O; VandeVondele, J. 
 Journal of Chemical Theory and Computation, 14, (2018). 
 Machine Learning Adaptive Basis Sets for Efficient Large Scale Density Functional Theory Simulation.
 https://dx.doi.org/10.1021/acs.jctc.8b00378


 Schuett, Ole; Messmer, Peter; Hutter, Juerg; VandeVondele, Joost. 
 Electronic Structure Calculations on Graphics Processing Units, John Wiley & Sons, Ltd, 173-190 (2016). 
 GPU-Accelerated Sparse Matrix-Matrix Multiplication for Linear Scaling Density Functional Theory.
 https://dx.doi.org/10.1002/9781118670712.ch8


 Borstnik, U; VandeVondele, J; Weber, V; Hutter, J. 
 PARALLEL COMPUTING, 40 (5-6), 47-58 (2014). 
 Sparse matrix multiplication: The distributed block-compressed sparse
 row library.
 https://dx.doi.org/10.1016/j.parco.2014.03.012


 Hutter, J; Iannuzzi, M; Schiffmann, F; VandeVondele, J. 
 WILEY INTERDISCIPLINARY REVIEWS-COMPUTATIONAL MOLECULAR SCIENCE, 4 (1), 15-25 (2014). 
 CP2K: atomistic simulations of condensed matter systems.
 https://dx.doi.org/10.1002/wcms.1159


 VandeVondele, J; Borstnik, U; Hutter, J. 
 JOURNAL OF CHEMICAL THEORY AND COMPUTATION, 8 (10), 3565-3573 (2012). 
 Linear Scaling Self-Consistent Field Calculations with Millions of Atoms
 in the Condensed Phase.
 https://dx.doi.org/10.1021/ct200897x


 VandeVondele, J; Hutter, J. 
 JOURNAL OF CHEMICAL PHYSICS, 127 (11), 114105 (2007). 
 Gaussian basis sets for accurate calculations on molecular systems in
 gas and condensed phases.
 https://dx.doi.org/10.1063/1.2770708


 Krack, M. 
 THEORETICAL CHEMISTRY ACCOUNTS, 114 (1-3), 145-152 (2005). 
 Pseudopotentials for H to Kr optimized for gradient-corrected
 exchange-correlation functionals.
 https://dx.doi.org/10.1007/s00214-005-0655-y


 VandeVondele, J; Krack, M; Mohamed, F; Parrinello, M; Chassaing, T;
 Hutter, J. COMPUTER PHYSICS COMMUNICATIONS, 167 (2), 103-128 (2005). 
 QUICKSTEP: Fast and accurate density functional calculations using a
 mixed Gaussian and plane waves approach.
 https://dx.doi.org/10.1016/j.cpc.2004.12.014


 Frigo, M; Johnson, SG. 
 PROCEEDINGS OF THE IEEE, 93 (2), 216-231 (2005). 
 The design and implementation of FFTW3.
 https://dx.doi.org/10.1109/JPROC.2004.840301


 Niklasson, AMN; Tymczak, CJ; Challacombe, M. 
 JOURNAL OF CHEMICAL PHYSICS, 118 (19), 8611-8620 (2003). 
 Trace resetting density matrix purification in O(N)
 self-consistent-field theory.
 https://dx.doi.org/10.1063/1.1559913


 Hartwigsen, C; Goedecker, S; Hutter, J. 
 PHYSICAL REVIEW B, 58 (7), 3641-3662 (1998). 
 Relativistic separable dual-space Gaussian pseudopotentials from H to Rn.
 https://dx.doi.org/10.1103/PhysRevB.58.3641


 Lippert, G; Hutter, J; Parrinello, M. 
 MOLECULAR PHYSICS, 92 (3), 477-487 (1997). 
 A hybrid Gaussian and plane wave density functional scheme.
 https://dx.doi.org/10.1080/002689797170220


 Perdew, JP; Burke, K; Ernzerhof, M. 
 PHYSICAL REVIEW LETTERS, 77 (18), 3865-3868 (1996). 
 Generalized gradient approximation made simple.
 https://dx.doi.org/10.1103/PhysRevLett.77.3865


 Goedecker, S; Teter, M; Hutter, J. 
 PHYSICAL REVIEW B, 54 (3), 1703-1710 (1996). 
 Separable dual-space Gaussian pseudopotentials.
 https://dx.doi.org/10.1103/PhysRevB.54.1703


 -------------------------------------------------------------------------------
 -                                                                             -
 -                                T I M I N G                                  -
 -                                                                             -
 -------------------------------------------------------------------------------
 SUBROUTINE                       CALLS  ASD         SELF TIME        TOTAL TIME
                                MAXIMUM       AVERAGE  MAXIMUM  AVERAGE  MAXIMUM
 CP2K                                 1  1.0    0.029    0.029   61.118   61.118
 qs_energies                          1  2.0    0.000    0.000   60.680   60.680
 ls_scf                               1  3.0    0.000    0.000   60.560   60.560
 ls_scf_main                          8  4.0    0.002    0.002   39.005   39.005
 ls_scf_dm_to_ks                     17  5.0    0.000    0.000   38.843   38.843
 qs_ks_update_qs_env                 18  6.0    0.000    0.000   29.503   29.503
 rebuild_ks_matrix                   18  7.0    0.000    0.000   29.502   29.502
 qs_ks_build_kohn_sham_matrix        18  8.0    0.003    0.003   29.502   29.502
 pao_update                           8  4.0    0.028    0.028   19.104   19.104
 pao_calc_energy                    987  5.0    0.011    0.011   17.327   17.327
 qs_vxc_create                       18  9.0    0.000    0.000   17.024   17.024
 xc_vxc_pw_create                    18 10.0    0.341    0.341   17.024   17.024
 dbcsr_multiply_generic           54496  8.4    1.074    1.074   13.884   13.884
 xc_rho_set_and_dset_create          18 11.0    0.122    0.122   11.840   11.840
 qs_rho_update_rho                   18  6.0    0.000    0.000   11.689   11.689
 calculate_rho_elec                  18  7.0    9.067    9.067   11.689   11.689
 pw_transfer                        343 10.6    0.032    0.032   11.488   11.488
 fft_wrap_pw1pw2                    307 11.7    0.004    0.004   11.177   11.177
 fft_wrap_pw1pw2_200                199 12.8    1.143    1.143   10.666   10.666
 sum_up_and_integrate                18  9.0    0.061    0.061   10.290   10.290
 integrate_v_rspace                  18 10.0    8.848    8.848   10.228   10.228
 pao_dm_trs4                        987  6.0    0.011    0.011    9.237    9.237
 density_matrix_trs4               1004  7.0    0.561    0.561    8.851    8.851
 ls_scf_init_matrix_S               995  7.0    0.010    0.010    8.036    8.036
 pao_rebuild_S                      987  6.0    0.008    0.008    7.980    7.980
 xc_functional_eval                  18 12.0    0.000    0.000    7.464    7.464
 pbe_lda_eval                        18 13.0    7.464    7.464    7.464    7.464
 matrix_sqrt_Newton_Schulz          995  8.0    0.367    0.367    7.208    7.208
 fft3d_s                            308 13.7    5.785    5.785    5.800    5.800
 multiply_cannon                  54496  9.4    2.501    2.501    5.452    5.452
 make_m2s                        108992  9.4    0.360    0.360    5.042    5.042
 make_images                     108992 10.4    1.312    1.312    4.474    4.474
 density_rs2pw                       18  8.0    0.001    0.001    2.574    2.574
 pao_guess_initial_P                  1  4.0    0.000    0.000    2.359    2.359
 pao_read_preopt_dm                   1  5.0    0.000    0.000    2.359    2.359
 arnoldi_extremal                  1999  8.5    0.013    0.013    2.211    2.211
 pw_scatter_s                       162 14.2    2.208    2.208    2.208    2.208
 arnoldi_normal_ev                 1999  9.5    0.033    0.033    2.198    2.198
 pw_gather_s                        145 13.1    1.971    1.971    1.971    1.971
 pao_calc_AB                       1298  5.8    0.003    0.003    1.736    1.736
 pao_calc_AB_direct                1298  6.8    0.064    0.064    1.733    1.733
 pao_calc_grad_lnv_wrt_AB           310  7.0    0.019    0.019    1.591    1.591
 build_subspace                    1999 10.5    0.134    0.134    1.578    1.578
 pw_derive                          108 11.5    1.517    1.517    1.517    1.517
 dbcsr_finalize                  130589  9.6    0.270    0.270    1.443    1.443
 dbcsr_create_new                416596 10.7    0.804    0.804    1.438    1.438
 dbcsr_matrix_vector_mult         47969 11.5    0.253    0.253    1.398    1.398
 potential_pw2rs                     18 11.0    0.009    0.009    1.378    1.378
 -------------------------------------------------------------------------------

 The number of warnings for this run is : 0
 
 -------------------------------------------------------------------------------
  **** **** ******  **  PROGRAM ENDED AT                 2019-02-14 01:25:47.177
 ***** ** ***  *** **   PROGRAM RAN ON                                      otto
 **    ****   ******    PROGRAM RAN BY                                       ole
 ***** **    ** ** **   PROGRAM PROCESS ID                                  6155
  **** **  *******  **  PROGRAM STOPPED IN /home/ole/git/pao_ml_equivar/2H2O_MD/
                                           frame_0575
