       6
 i =      575, time =      115.000, E =       -34.4503646363
  O         2.5194902046        4.2502581332        3.8200268238
  H         2.1386038804        5.0667009479        4.1390622660
  H         1.8515541166        3.8563487993        3.2330494423
  O         5.3338835477        4.2547675575        4.1840650519
  H         5.3004144667        3.8687725010        5.0940217646
  H         4.3800702293        4.2034306024        3.9039506282
