 DBCSR| CPU Multiplication driver                                           XSMM (U)
 DBCSR| Multrec recursion limit                                              512 (U)
 DBCSR| Multiplication stack size                                           1000 (D)
 DBCSR| Maximum elements for images                                    UNLIMITED (U)
 DBCSR| Multiplicative factor virtual images                                   1 (U)
 DBCSR| Use multiplication densification                                       T (D)
 DBCSR| Multiplication size stacks                                             3 (U)
 DBCSR| Use memory pool for CPU allocation                                     F (U)
 DBCSR| OMP: Current number of threads                                         1
 DBCSR| OMP: Max number of threads                                             1
 DBCSR| Split modifier for TAS multiplication algorithm                  1.0E+00 (U)


  **** **** ******  **  PROGRAM STARTED AT               2023-02-01 10:47:55.590
 ***** ** ***  *** **   PROGRAM STARTED ON                                moritz
 **    ****   ******    PROGRAM STARTED BY                                   ole
 ***** **    ** ** **   PROGRAM PROCESS ID                                148819
  **** **  *******  **  PROGRAM STARTED IN /home/ole/git/pao_ml_equivar/2H2O_MD/
                                           frame_1875

 CP2K| version string:                 CP2K version 2023.1 (Development Version)
 CP2K| source code revision number:                                  git:03b4147
 CP2K| cp2kflags: omp libint fftw3 libxc quip xsmm spglib libvori libbqb libtorc
 CP2K|            h
 CP2K| is freely available from                            https://www.cp2k.org/
 CP2K| Program compiled at                           Mi 01 Feb 2023 10:36:52 CET
 CP2K| Program compiled on                                                moritz
 CP2K| Program compiled for                                                local
 CP2K| Data directory path                               /home/ole/git/cp2k/data
 CP2K| Input file name                                            2H2O_pao44.inp

 GLOBAL| Force Environment number                                              1
 GLOBAL| Basis set file name                                        BASIS_MOLOPT
 GLOBAL| Potential file name                                      GTH_POTENTIALS
 GLOBAL| MM Potential file name                                     MM_POTENTIAL
 GLOBAL| Coordinate file name                                         coords.xyz
 GLOBAL| Method name                                                        CP2K
 GLOBAL| Project name                                                 2H2O_pao44
 GLOBAL| Run type                                                         ENERGY
 GLOBAL| FFT library                                                       FFTW3
 GLOBAL| Diagonalization library                                       ScaLAPACK
 GLOBAL| DGEMM library                                                      BLAS
 GLOBAL| Orthonormality check for eigenvectors                          DISABLED
 GLOBAL| Matrix multiplication library                                 ScaLAPACK
 GLOBAL| All-to-all communication in single precision                          F
 GLOBAL| FFTs using library dependent lengths                                  F
 GLOBAL| Grid backend                                                       AUTO
 GLOBAL| Global print level                                                  LOW
 GLOBAL| MPI I/O enabled                                                       T
 GLOBAL| Total number of message passing processes                             1
 GLOBAL| Number of threads for this process                                    1
 GLOBAL| This output is from process                                           0
 GLOBAL| Stack size for threads created by OpenMP (OMP_STACKSIZE)        default
 GLOBAL| CPU model name           AMD Ryzen Threadripper 3970X 32-Core Processor
 GLOBAL| CPUID                                                              1002
 GLOBAL| Compiled for CPUID                                                    0

 *** HINT in environment.F:884 :: The compiler target flags (generic) used ***
 *** to build this binary cannot exploit all extensions of this CPU model  ***
 *** (x86_avx2). Consider compiler target flags as part of FCFLAGS and     ***
 *** CFLAGS (ARCH file).                                                   ***


 MEMORY| system memory details [Kb]
 MEMORY|                        rank 0           min           max       average
 MEMORY| MemTotal            131773860     131773860     131773860     131773860
 MEMORY| MemFree             109787548     109787548     109787548     109787548
 MEMORY| Buffers                302624        302624        302624        302624
 MEMORY| Cached                7056636       7056636       7056636       7056636
 MEMORY| Slab                   780228        780228        780228        780228
 MEMORY| SReclaimable           332704        332704        332704        332704
 MEMORY| MemLikelyFree       117479512     117479512     117479512     117479512


 GENERATE|  Preliminary Number of Bonds generated:                             0
 GENERATE|  Achieved consistency in connectivity generation.

 *******************************************************************************
 *******************************************************************************
 **                                                                           **
 **     #####                         ##              ##                      **
 **    ##   ##            ##          ##              ##                      **
 **   ##     ##                       ##            ######                    **
 **   ##     ##  ##   ##  ##   #####  ##  ##   ####   ##    #####    #####    **
 **   ##     ##  ##   ##  ##  ##      ## ##   ##      ##   ##   ##  ##   ##   **
 **   ##  ## ##  ##   ##  ##  ##      ####     ###    ##   ######   ######    **
 **    ##  ###   ##   ##  ##  ##      ## ##      ##   ##   ##       ##        **
 **     #######   #####   ##   #####  ##  ##  ####    ##    #####   ##        **
 **           ##                                                    ##        **
 **                                                                           **
 **                                                ... make the atoms dance   **
 **                                                                           **
 **            Copyright (C) by CP2K developers group (2000-2023)             **
 **                      J. Chem. Phys. 152, 194103 (2020)                    **
 **                                                                           **
 *******************************************************************************


 TOTAL NUMBERS AND MAXIMUM NUMBERS

  Total number of            - Atomic kinds:                                   2
                             - Atoms:                                          6
                             - Shell sets:                                     6
                             - Shells:                                        22
                             - Primitive Cartesian functions:                 42
                             - Cartesian basis functions:                     48
                             - Spherical basis functions:                     46

  Maximum angular momentum of- Orbital basis functions:                        2
                             - Local part of the GTH pseudopotential:          2
                             - Non-local part of the GTH pseudopotential:      0

 ------------------------------ Linear scaling SCF -----------------------------
 eps_scf:                                                              0.100E-07
 eps_filter:                                                           0.100E-07
 mixing_fraction:                                                      0.450E+00
 max_scf:                                                                     25
 fixed chemical potential (mu)                                                 F
 has unit metric:                                                              F
 Computing inv(S):                                                             T
 Computing sqrt(S):                                                            T
 Computing S preconditioner                                                    F
 S sqrt method:                                                     NEWTONSCHULZ
 S sqrt order:                                                                 3
 Extrapolation order:                                                          1
 Use single precision matrices                                                 F
 S preconditioner type                                                      NONE
 Polarized Atomic Orbitals (PAO)                                               T
 Purification method                                   Trace resetting 4th order
 Cluster type                                                             ATOMIC
 Computing Chebyshev                                                       FALSE
 Using PAO                                                                     T
 -------------------------------------------------------------------------------

 
 PAO|                                  EPS_PAO                           0.5E-06
 PAO|                                  MIXING                            0.5E+00
 PAO|                                  MAX_PAO                              1500
 PAO|                                  MAX_CYCLES                           1000
 PAO|                                  PARAMETERIZATION              EQUIVARIANT
 PAO|                                  PRECONDITION                            F
 PAO|                                  REGULARIZATION                    0.0E+00
 PAO|                                  EPS_PGF                           0.1E-09
 PAO|                                  PENALTY_DISTANCE                  0.1E+00
 PAO|                                  PENALTY_STRENGTH                  0.5E-02
 PAO|                                  LINPOT_PRECONDITION_DELTA         0.0E+00
 PAO|                                  LINPOT_INITGUESS_DELT             0.0E+00
 PAO|                                  LINPOT_REGULARIZATION_DELTA       0.0E+00
 PAO|                                  LINPOT_REGULARIZATION_STRENGTH    0.0E+00
 PAO|                                  OPTIMIZER                              CG
 PAO|                                  CG_INIT_STEPS                           2
 PAO|                                  CG_RESET_LIMIT                    0.1E+00
 PAO|                                  CHECK_UNITARY_TOL                -0.1E+01
 PAO|                                  CHECK_GRADIENT_TOL               -0.1E+01
 PAO|                                  NUM_GRADIENT_ORDER                      2
 PAO|                                  NUM_GRADIENT_EPS                  0.1E-07
 PAO|                                  PRINT%RESTART%WRITE_CYCLES            100
 PAO|                                  RESTART_FILE 
 PAO|                                  PREOPT_DM_FILE 2H2O_ref_LS_DM_SPIN_1_RESTART.dm
 PAO|                                  MACHINE_LEARNING%METHOD       GAUSSIAN_PR
 PAO|                                  MACHINE_LEARNING%PRIOR               ZERO
 PAO|                                  MACHINE_LEARNING%DESCRIPTOR     POTENTIAL
 PAO|                                  MACHINE_LEARNING%TOLERANCE        0.1E-01
 PAO|                                  MACHINE_LEARNING%GP_NOISE_VAR     0.1E+00
 PAO|                                  MACHINE_LEARNING%GP_SCALE         0.5E-01
 

 Calculating atomic Fock matrix for atomic kind: O

 Electronic structure
    Total number of core electrons                                          2.00
    Total number of valence electrons                                       6.00
    Total number of electrons                                               8.00
    Multiplicity                                                   not specified
    S   [  2.00] 2.00
    P      4.00


 *******************************************************************************
                  Iteration          Convergence                     Energy [au]
 *******************************************************************************
                          1        0.708315                     -15.576645311500
                          2        0.608879                     -15.587933561584
                          3        0.102828E-01                 -15.656849565404
                          4        0.113889E-02                 -15.656866888140
                          5        0.434197E-03                 -15.656867072159
                          6        0.263771E-03                 -15.656867091904
                          7        0.478536E-06                 -15.656867103452

 Energy components [Hartree]           Total Energy ::          -15.656867103452
                                        Band Energy ::           -3.000198112285
                                     Kinetic Energy ::           11.759971203220
                                   Potential Energy ::          -27.416838306672
                                      Virial (-V/T) ::            2.331369510426
                                        Core Energy ::          -26.140716385623
                                          XC Energy ::           -3.154051012914
                                     Coulomb Energy ::           13.637900295084
                       Total Pseudopotential Energy ::          -37.935781716540
                       Local Pseudopotential Energy ::          -39.218907440693
                    Nonlocal Pseudopotential Energy ::            1.283125724153
                                        Confinement ::            0.350941276976

 Orbital energies  State     L     Occupation   Energy[a.u.]          Energy[eV]

                       1     0          2.000      -0.864471          -23.523463

                       1     1          4.000      -0.317814           -8.648154


 Total Electron Density at R=0:                                         0.000068

 Calculating atomic Fock matrix for atomic kind: H

 Electronic structure
    Total number of core electrons                                          0.00
    Total number of valence electrons                                       1.00
    Total number of electrons                                               1.00
    Multiplicity                                                   not specified
    S      1.00


 *******************************************************************************
                  Iteration          Convergence                     Energy [au]
 *******************************************************************************
                          1        0.437545E-02                  -0.424159432110
                          2        0.531356E-03                  -0.424178438213
                          3        0.259176E-06                  -0.424178722480

 Energy components [Hartree]           Total Energy ::           -0.424178722480
                                        Band Energy ::           -0.199015229016
                                     Kinetic Energy ::            0.464007633961
                                   Potential Energy ::           -0.888186356441
                                      Virial (-V/T) ::            1.914163240935
                                        Core Energy ::           -0.479160803564
                                          XC Energy ::           -0.244352904054
                                     Coulomb Energy ::            0.299334985138
                       Total Pseudopotential Energy ::           -0.962295316385
                       Local Pseudopotential Energy ::           -0.962295316385
                    Nonlocal Pseudopotential Energy ::            0.000000000000
                                        Confinement ::            0.191268788606

 Orbital energies  State     L     Occupation   Energy[a.u.]          Energy[eV]

                       1     0          1.000      -0.199015           -5.415480


 Total Electron Density at R=0:                                         0.242907
 PAO| Made initial guess for matrix_X with norm:   4.8989794855663558     

     Lanczos converged:  T threshold:   0.100E-02
     Est. extremal eigenvalues:    0.332E+01   0.117E+00
     Est. condition number :    0.285E+02

 Order=           3
     NS sqrt iter    1 1.00000000   0.811E+00       0.001       60.745
     NS sqrt iter    2 1.00000000   0.432E+00       0.001      107.294
     NS sqrt iter    3 1.00000000   0.163E+00       0.001      108.031
     NS sqrt iter    4 1.00000000   0.185E-01       0.001      108.166
     NS sqrt iter    5 1.00000000   0.405E-04       0.001       87.296
     Symmetrizing Results
     Final NS sqrt iter    5 1.00000000   0.251E-08

 PAO| Read restart DM 2H2O_ref_LS_DM_SPIN_1_RESTART.dm with checksum:    52.924420531434528     
 PAO| Quickstep energy from restart density:  -34.447601188055145     
 PAO| ======================= Iteration:         1 =============================

     Lanczos converged:  T threshold:   0.100E-02
     Est. extremal eigenvalues:    0.332E+01   0.117E+00
     Est. condition number :    0.285E+02

 Order=           3
     NS sqrt iter    1 1.00000000   0.811E+00       0.001       58.783
     NS sqrt iter    2 1.00000000   0.432E+00       0.001       98.486
     NS sqrt iter    3 1.00000000   0.163E+00       0.001       97.874
     NS sqrt iter    4 1.00000000   0.185E-01       0.001       98.647
     NS sqrt iter    5 1.00000000   0.405E-04       0.001       80.153
     Symmetrizing Results
     Final NS sqrt iter    5 1.00000000   0.251E-08

     Est. extremal eigenvalues     -0.91762     1.83533  converged:  T
     TRS4 it   1 1.00000000   0.883E+00       0.000       16.128   0.100E-07
     TRS4 it   2 1.00000000   0.685E+00       0.001       32.256   0.100E-07
     TRS4 it   3 1.00000000   0.500E+00       0.001       32.256   0.100E-07
     TRS4 it   4 1.00000000   0.317E+00       0.001       32.256   0.100E-07
     TRS4 it   5 1.00000000   0.159E+00       0.001       32.256   0.100E-07
     TRS4 it   6 1.00000000   0.502E-01       0.001       32.256   0.100E-07
     TRS4 it   7 1.00000000   0.690E-02       0.001       32.256   0.100E-07
     TRS4 it   8 1.00000000   0.185E-03       0.001       32.256   0.100E-07
     TRS4 it   9 1.00000000   0.152E-06       0.001       32.256   0.100E-07
     TRS4 it  10 1.00000000   0.105E-12       0.001       32.256   0.100E-07
     Final TRS4 iteration   10 1.00000000   0.105E-12
     Chemical potential (mu):      -0.06615
 
 PAO| energy:  -7.5722729994047127      penalty:   4.8071211411905415E-033
 PAO|CG| warming up with steepest descent
 PAO|CG| beta:    0.0000000000000000     
 PAO| norm of gradient:  0.77881819624537085     
 PAO|LS| adapt:  T F F
 PAO|LS| adapt: scan_steps:    0.0000000000000000        0.0000000000000000        0.0000000000000000     
 PAO|LS| adapt: energies:   -7.5722729994047127        0.0000000000000000        0.0000000000000000     
 PAO| ======================= Iteration:         2 =============================

     Lanczos converged:  T threshold:   0.100E-02
     Est. extremal eigenvalues:    0.324E+01   0.130E+00
     Est. condition number :    0.249E+02

 Order=           3
     NS sqrt iter    1 1.00000000   0.796E+00       0.001       59.260
     NS sqrt iter    2 1.00000000   0.417E+00       0.001       99.517
     NS sqrt iter    3 1.00000000   0.146E+00       0.001       97.168
     NS sqrt iter    4 1.00000000   0.126E-01       0.001       98.207
     NS sqrt iter    5 1.00000000   0.124E-04       0.001       77.131
     Symmetrizing Results
     Final NS sqrt iter    5 1.00000000   0.232E-09

     Est. extremal eigenvalues     -0.92126     1.77797  converged:  T
     TRS4 it   1 1.00000000   0.878E+00       0.000       16.128   0.100E-07
     TRS4 it   2 1.00000000   0.666E+00       0.001       32.256   0.100E-07
     TRS4 it   3 1.00000000   0.482E+00       0.001       32.256   0.100E-07
     TRS4 it   4 1.00000000   0.295E+00       0.001       32.256   0.100E-07
     TRS4 it   5 1.00000000   0.138E+00       0.001       32.256   0.100E-07
     TRS4 it   6 1.00000000   0.383E-01       0.001       32.256   0.100E-07
     TRS4 it   7 1.00000000   0.407E-02       0.001       32.256   0.100E-07
     TRS4 it   8 1.00000000   0.648E-04       0.001       32.256   0.100E-07
     TRS4 it   9 1.00000000   0.186E-07       0.001       32.256   0.100E-07
     Final TRS4 iteration    9 1.00000000   0.186E-07
     Chemical potential (mu):      -0.05435
 
 PAO| energy:  -7.6269781293390055      penalty:   2.2093423685927933E-008
 PAO|LS| adapt:  T T F
 PAO|LS| adapt: scan_steps:    0.0000000000000000       0.10000000000000001        0.0000000000000000     
 PAO|LS| adapt: energies:   -7.5722729994047127       -7.6269781293390055        0.0000000000000000     
 PAO| ======================= Iteration:         3 =============================

     Lanczos converged:  T threshold:   0.100E-02
     Est. extremal eigenvalues:    0.316E+01   0.143E+00
     Est. condition number :    0.221E+02

 Order=           3
     NS sqrt iter    1 1.00000000   0.780E+00       0.001       57.966
     NS sqrt iter    2 1.00000000   0.400E+00       0.001       98.037
     NS sqrt iter    3 1.00000000   0.129E+00       0.001       98.414
     NS sqrt iter    4 1.00000000   0.860E-02       0.001       99.407
     NS sqrt iter    5 1.00000000   0.398E-05       0.001       76.622
     Symmetrizing Results
     Final NS sqrt iter    5 1.00000000   0.241E-10

     Est. extremal eigenvalues     -0.92463     1.73120  converged:  T
     TRS4 it   1 1.00000000   0.873E+00       0.000       16.128   0.100E-07
     TRS4 it   2 1.00000000   0.648E+00       0.001       32.256   0.100E-07
     TRS4 it   3 1.00000000   0.465E+00       0.001       32.256   0.100E-07
     TRS4 it   4 1.00000000   0.274E+00       0.001       32.256   0.100E-07
     TRS4 it   5 1.00000000   0.119E+00       0.001       32.256   0.100E-07
     TRS4 it   6 1.00000000   0.282E-01       0.001       32.256   0.100E-07
     TRS4 it   7 1.00000000   0.220E-02       0.001       32.256   0.100E-07
     TRS4 it   8 1.00000000   0.191E-04       0.001       32.256   0.100E-07
     TRS4 it   9 1.00000000   0.162E-08       0.001       32.256   0.100E-07
     Final TRS4 iteration    9 1.00000000   0.162E-08
     Chemical potential (mu):      -0.04164
 
 PAO| energy:  -7.6691927113308376      penalty:   3.5349478710134969E-007
 PAO|LS| adapt:  T T F
 PAO|LS| adapt: scan_steps:    0.0000000000000000       0.20000000000000001        0.0000000000000000     
 PAO|LS| adapt: energies:   -7.5722729994047127       -7.6691927113308376        0.0000000000000000     
 PAO| ======================= Iteration:         4 =============================

     Lanczos converged:  T threshold:   0.100E-02
     Est. extremal eigenvalues:    0.297E+01   0.162E+00
     Est. condition number :    0.183E+02

 Order=           3
     NS sqrt iter    1 1.00000000   0.745E+00       0.001       58.372
     NS sqrt iter    2 1.00000000   0.367E+00       0.001       98.089
     NS sqrt iter    3 1.00000000   0.101E+00       0.001       96.839
     NS sqrt iter    4 1.00000000   0.412E-02       0.001       98.702
     NS sqrt iter    5 1.00000000   0.514E-06       0.001       76.528
     Symmetrizing Results
     Final NS sqrt iter    5 1.00000000   0.121E-09

     Est. extremal eigenvalues     -0.92979     1.66216  converged:  T
     TRS4 it   1 1.00000000   0.866E+00       0.000       16.128   0.100E-07
     TRS4 it   2 1.00000000   0.619E+00       0.001       32.256   0.100E-07
     TRS4 it   3 1.00000000   0.431E+00       0.001       32.256   0.100E-07
     TRS4 it   4 1.00000000   0.233E+00       0.013        2.532   0.100E-07
     TRS4 it   5 1.00000000   0.848E-01       0.001       32.256   0.100E-07
     TRS4 it   6 1.00000000   0.140E-01       0.001       32.256   0.100E-07
     TRS4 it   7 1.00000000   0.522E-03       0.001       32.256   0.100E-07
     TRS4 it   8 1.00000000   0.104E-05       0.001       32.256   0.100E-07
     TRS4 it   9 1.00000000   0.479E-11       0.001       32.256   0.100E-07
     Final TRS4 iteration    9 1.00000000   0.479E-11
     Chemical potential (mu):      -0.01386
 
 PAO| energy:  -7.7148380023432130      penalty:   5.6559166586334464E-006
 PAO|LS| Need extra step
 PAO|LS| adapt:  T T F
 PAO|LS| adapt: scan_steps:    0.0000000000000000       0.40000000000000002        0.0000000000000000     
 PAO|LS| adapt: energies:   -7.5722729994047127       -7.7148380023432130        0.0000000000000000     
 PAO| ======================= Iteration:         5 =============================

     Lanczos converged:  T threshold:   0.100E-02
     Est. extremal eigenvalues:    0.263E+01   0.192E+00
     Est. condition number :    0.137E+02

 Order=           3
     NS sqrt iter    1 1.00000000   0.683E+00       0.001       59.030
     NS sqrt iter    2 1.00000000   0.306E+00       0.001       97.646
     NS sqrt iter    3 1.00000000   0.616E-01       0.001       98.589
     NS sqrt iter    4 1.00000000   0.108E-02       0.001       99.229
     NS sqrt iter    5 1.00000000   0.970E-08       0.001       39.925
     Symmetrizing Results
     Final NS sqrt iter    5 1.00000000   0.465E-08

     Est. extremal eigenvalues     -0.93077     1.58485  converged:  T
     TRS4 it   1 1.00000000   0.857E+00       0.016        0.981   0.100E-07
     TRS4 it   2 1.00000000   0.580E+00       0.001       32.256   0.100E-07
     TRS4 it   3 1.00000000   0.376E+00       0.001       32.256   0.100E-07
     TRS4 it   4 1.00000000   0.170E+00       0.001       32.256   0.100E-07
     TRS4 it   5 1.00000000   0.429E-01       0.001       32.256   0.100E-07
     TRS4 it   6 1.00000000   0.330E-02       0.001       32.256   0.100E-07
     TRS4 it   7 1.00000000   0.250E-04       0.001       32.256   0.100E-07
     TRS4 it   8 1.00000000   0.180E-08       0.001       32.256   0.100E-07
     Final TRS4 iteration    8 1.00000000   0.180E-08
     Chemical potential (mu):       0.03304
 
 PAO| energy:  -7.6583530136801583      penalty:   9.0494667058231329E-005
 PAO|LS| Need extra step
 PAO|LS| adapt:  T T T
 PAO|LS| adapt: scan_steps:    0.0000000000000000       0.40000000000000002       0.80000000000000004     
 PAO|LS| adapt: energies:   -7.5722729994047127       -7.7148380023432130       -7.6583530136801583     
 PAO|LS| adapt: suggested step_size:   0.48649084944223941     
 PAO|LS| adapt: predicted energy  -7.7194912108148905     
 PAO| ======================= Iteration:         6 =============================

     Lanczos converged:  T threshold:   0.100E-02
     Est. extremal eigenvalues:    0.289E+01   0.170E+00
     Est. condition number :    0.171E+02

 Order=           3
     NS sqrt iter    1 1.00000000   0.731E+00       0.001       58.262
     NS sqrt iter    2 1.00000000   0.353E+00       0.001      101.379
     NS sqrt iter    3 1.00000000   0.902E-01       0.001       99.509
     NS sqrt iter    4 1.00000000   0.305E-02       0.001       98.235
     NS sqrt iter    5 1.00000000   0.224E-06       0.001       74.022
     Symmetrizing Results
     Final NS sqrt iter    5 1.00000000   0.948E-09

     Est. extremal eigenvalues     -0.93114     1.63994  converged:  T
     TRS4 it   1 1.00000000   0.863E+00       0.000       16.128   0.100E-07
     TRS4 it   2 1.00000000   0.609E+00       0.001       32.256   0.100E-07
     TRS4 it   3 1.00000000   0.418E+00       0.001       32.256   0.100E-07
     TRS4 it   4 1.00000000   0.217E+00       0.001       32.256   0.100E-07
     TRS4 it   5 1.00000000   0.729E-01       0.001       32.256   0.100E-07
     TRS4 it   6 1.00000000   0.101E-01       0.001       32.256   0.100E-07
     TRS4 it   7 1.00000000   0.263E-03       0.001       32.256   0.100E-07
     TRS4 it   8 1.00000000   0.253E-06       0.001       32.256   0.100E-07
     TRS4 it   9 1.00000000   0.282E-12       0.001       32.256   0.100E-07
     Final TRS4 iteration    9 1.00000000   0.282E-12
     Chemical potential (mu):      -0.00123
 
 PAO| energy:  -7.7187345123639135      penalty:   1.2375471107561312E-005
 PAO|CG| warming up with steepest descent
 PAO|CG| beta:    0.0000000000000000     
 PAO| norm of gradient:  0.40869738034544500     
 PAO| energy improvement: -0.14646151295920085     
 PAO| step      6                   -7.718734512  0.255E-01  0.486E+00     0.137
 PAO|LS| adapt:  T F F
 PAO|LS| adapt: scan_steps:    0.0000000000000000        0.0000000000000000        0.0000000000000000     
 PAO|LS| adapt: energies:   -7.7187345123639135        0.0000000000000000        0.0000000000000000     
 PAO| ======================= Iteration:         7 =============================

     Lanczos converged:  T threshold:   0.100E-02
     Est. extremal eigenvalues:    0.281E+01   0.185E+00
     Est. condition number :    0.152E+02

 Order=           3
     NS sqrt iter    1 1.00000000   0.713E+00       0.001       57.799
     NS sqrt iter    2 1.00000000   0.332E+00       0.001       99.315
     NS sqrt iter    3 1.00000000   0.751E-01       0.001       99.991
     NS sqrt iter    4 1.00000000   0.180E-02       0.001       99.113
     NS sqrt iter    5 1.00000000   0.499E-07       0.001       65.814
     Symmetrizing Results
     Final NS sqrt iter    5 1.00000000   0.652E-09

     Est. extremal eigenvalues     -0.93312     1.61966  converged:  T
     TRS4 it   1 1.00000000   0.860E+00       0.000       16.128   0.100E-07
     TRS4 it   2 1.00000000   0.605E+00       0.001       32.256   0.100E-07
     TRS4 it   3 1.00000000   0.415E+00       0.001       32.256   0.100E-07
     TRS4 it   4 1.00000000   0.216E+00       0.001       32.256   0.100E-07
     TRS4 it   5 1.00000000   0.723E-01       0.001       32.256   0.100E-07
     TRS4 it   6 1.00000000   0.979E-02       0.001       32.256   0.100E-07
     TRS4 it   7 1.00000000   0.234E-03       0.001       32.256   0.100E-07
     TRS4 it   8 1.00000000   0.190E-06       0.001       32.256   0.100E-07
     TRS4 it   9 1.00000000   0.157E-12       0.001       32.256   0.100E-07
     Final TRS4 iteration    9 1.00000000   0.157E-12
     Chemical potential (mu):       0.00024
 
 PAO| energy:  -7.7148648602828747      penalty:   1.8432250874406992E-005
 PAO|LS| adapt:  T F T
 PAO|LS| adapt: scan_steps:    0.0000000000000000        0.0000000000000000       0.48649084944223941     
 PAO|LS| adapt: energies:   -7.7187345123639135        0.0000000000000000       -7.7148648602828747     
 PAO| ======================= Iteration:         8 =============================

     Lanczos converged:  T threshold:   0.100E-02
     Est. extremal eigenvalues:    0.285E+01   0.177E+00
     Est. condition number :    0.161E+02

 Order=           3
     NS sqrt iter    1 1.00000000   0.722E+00       0.001       59.518
     NS sqrt iter    2 1.00000000   0.342E+00       0.001       99.815
     NS sqrt iter    3 1.00000000   0.825E-01       0.001       99.984
     NS sqrt iter    4 1.00000000   0.236E-02       0.001       98.864
     NS sqrt iter    5 1.00000000   0.108E-06       0.001       71.575
     Symmetrizing Results
     Final NS sqrt iter    5 1.00000000   0.894E-09

     Est. extremal eigenvalues     -0.93309     1.62914  converged:  T
     TRS4 it   1 1.00000000   0.861E+00       0.000       16.128   0.100E-07
     TRS4 it   2 1.00000000   0.606E+00       0.001       32.256   0.100E-07
     TRS4 it   3 1.00000000   0.416E+00       0.001       32.256   0.100E-07
     TRS4 it   4 1.00000000   0.216E+00       0.001       32.256   0.100E-07
     TRS4 it   5 1.00000000   0.725E-01       0.001       32.256   0.100E-07
     TRS4 it   6 1.00000000   0.101E-01       0.001       32.256   0.100E-07
     TRS4 it   7 1.00000000   0.257E-03       0.001       32.256   0.100E-07
     TRS4 it   8 1.00000000   0.237E-06       0.001       32.256   0.100E-07
     TRS4 it   9 1.00000000   0.247E-12       0.001       32.256   0.100E-07
     Final TRS4 iteration    9 1.00000000   0.247E-12
     Chemical potential (mu):      -0.00104
 
 PAO| energy:  -7.7378552594190255      penalty:   1.3371853587457002E-005
 PAO|LS| adapt:  T T T
 PAO|LS| adapt: scan_steps:    0.0000000000000000       0.24324542472111971       0.48649084944223941     
 PAO|LS| adapt: energies:   -7.7187345123639135       -7.7378552594190255       -7.7148648602828747     
 PAO|LS| adapt: suggested step_size:   0.23206934369378171     
 PAO|LS| adapt: predicted energy  -7.7378997078863039     
 PAO| ======================= Iteration:         9 =============================

     Lanczos converged:  T threshold:   0.100E-02
     Est. extremal eigenvalues:    0.285E+01   0.177E+00
     Est. condition number :    0.161E+02

 Order=           3
     NS sqrt iter    1 1.00000000   0.722E+00       0.001       59.265
     NS sqrt iter    2 1.00000000   0.343E+00       0.001       94.652
     NS sqrt iter    3 1.00000000   0.829E-01       0.001       98.367
     NS sqrt iter    4 1.00000000   0.239E-02       0.001      101.381
     NS sqrt iter    5 1.00000000   0.112E-06       0.001       70.689
     Symmetrizing Results
     Final NS sqrt iter    5 1.00000000   0.917E-09

     Est. extremal eigenvalues     -0.93304     1.62960  converged:  T
     TRS4 it   1 1.00000000   0.861E+00       0.000       16.128   0.100E-07
     TRS4 it   2 1.00000000   0.607E+00       0.001       32.256   0.100E-07
     TRS4 it   3 1.00000000   0.416E+00       0.001       32.256   0.100E-07
     TRS4 it   4 1.00000000   0.216E+00       0.001       32.256   0.100E-07
     TRS4 it   5 1.00000000   0.725E-01       0.001       32.256   0.100E-07
     TRS4 it   6 1.00000000   0.101E-01       0.001       32.256   0.100E-07
     TRS4 it   7 1.00000000   0.258E-03       0.001       32.256   0.100E-07
     TRS4 it   8 1.00000000   0.239E-06       0.001       32.256   0.100E-07
     TRS4 it   9 1.00000000   0.250E-12       0.001       32.256   0.100E-07
     Final TRS4 iteration    9 1.00000000   0.250E-12
     Chemical potential (mu):      -0.00107
 
 PAO| energy:  -7.7379156046937636      penalty:   1.3261031948856555E-005
 PAO|CG| trace_G_new    3.8346860792178132E-002
 PAO|CG| trace_G_prev   0.16703354870122933     
 PAO|CG| trace_G_mix   -1.3939758988814415E-003
 PAO|CG| trace_D   0.16703354870122933     
 PAO|CG| trace_D_Gnew   1.3939758988814415E-003
 PAO|CG| beta:   0.23792128587379457     
 PAO| norm of gradient:  0.19582354504037081     
 PAO| energy improvement:  -1.9181092329850102E-002
 PAO| step      9                   -7.737915605  0.122E-01  0.232E+00     0.058
 PAO|LS| adapt:  T F F
 PAO|LS| adapt: scan_steps:    0.0000000000000000        0.0000000000000000        0.0000000000000000     
 PAO|LS| adapt: energies:   -7.7379156046937636        0.0000000000000000        0.0000000000000000     
 PAO| ======================= Iteration:        10 =============================

     Lanczos converged:  T threshold:   0.100E-02
     Est. extremal eigenvalues:    0.281E+01   0.183E+00
     Est. condition number :    0.153E+02

 Order=           3
     NS sqrt iter    1 1.00000000   0.714E+00       0.001       58.892
     NS sqrt iter    2 1.00000000   0.334E+00       0.001      100.003
     NS sqrt iter    3 1.00000000   0.772E-01       0.001       98.564
     NS sqrt iter    4 1.00000000   0.193E-02       0.001       98.707
     NS sqrt iter    5 1.00000000   0.579E-07       0.001       66.101
     Symmetrizing Results
     Final NS sqrt iter    5 1.00000000   0.658E-09

     Est. extremal eigenvalues     -0.93403     1.62295  converged:  T
     TRS4 it   1 1.00000000   0.859E+00       0.000       16.128   0.100E-07
     TRS4 it   2 1.00000000   0.604E+00       0.001       32.256   0.100E-07
     TRS4 it   3 1.00000000   0.413E+00       0.001       32.256   0.100E-07
     TRS4 it   4 1.00000000   0.213E+00       0.001       32.256   0.100E-07
     TRS4 it   5 1.00000000   0.701E-01       0.001       32.256   0.100E-07
     TRS4 it   6 1.00000000   0.934E-02       0.001       32.256   0.100E-07
     TRS4 it   7 1.00000000   0.218E-03       0.001       32.256   0.100E-07
     TRS4 it   8 1.00000000   0.166E-06       0.001       32.256   0.100E-07
     TRS4 it   9 1.00000000   0.120E-12       0.001       32.256   0.100E-07
     Final TRS4 iteration    9 1.00000000   0.120E-12
     Chemical potential (mu):       0.00217
 
 PAO| energy:  -7.7430428608441195      penalty:   1.3841297523404549E-005
 PAO|LS| adapt:  T T F
 PAO|LS| adapt: scan_steps:    0.0000000000000000       0.23206934369378171        0.0000000000000000     
 PAO|LS| adapt: energies:   -7.7379156046937636       -7.7430428608441195        0.0000000000000000     
 PAO| ======================= Iteration:        11 =============================

     Lanczos converged:  T threshold:   0.100E-02
     Est. extremal eigenvalues:    0.277E+01   0.190E+00
     Est. condition number :    0.146E+02

 Order=           3
     NS sqrt iter    1 1.00000000   0.706E+00       0.001       59.066
     NS sqrt iter    2 1.00000000   0.325E+00       0.001       97.090
     NS sqrt iter    3 1.00000000   0.717E-01       0.001       97.762
     NS sqrt iter    4 1.00000000   0.154E-02       0.001       98.411
     NS sqrt iter    5 1.00000000   0.293E-07       0.001       59.205
     Symmetrizing Results
     Final NS sqrt iter    5 1.00000000   0.897E-09

     Est. extremal eigenvalues     -0.93383     1.61774  converged:  T
     TRS4 it   1 1.00000000   0.857E+00       0.000       16.128   0.100E-07
     TRS4 it   2 1.00000000   0.602E+00       0.001       32.256   0.100E-07
     TRS4 it   3 1.00000000   0.410E+00       0.001       32.256   0.100E-07
     TRS4 it   4 1.00000000   0.209E+00       0.001       32.256   0.100E-07
     TRS4 it   5 1.00000000   0.677E-01       0.001       32.256   0.100E-07
     TRS4 it   6 1.00000000   0.866E-02       0.001       32.256   0.100E-07
     TRS4 it   7 1.00000000   0.184E-03       0.001       32.256   0.100E-07
     TRS4 it   8 1.00000000   0.115E-06       0.001       32.256   0.100E-07
     TRS4 it   9 1.00000000   0.553E-13       0.001       32.256   0.100E-07
     Final TRS4 iteration    9 1.00000000   0.553E-13
     Chemical potential (mu):       0.00557
 
 PAO| energy:  -7.7410707253814559      penalty:   1.5138386138429155E-005
 PAO|LS| adapt:  T T T
 PAO|LS| adapt: scan_steps:    0.0000000000000000       0.23206934369378171       0.46413868738756342     
 PAO|LS| adapt: energies:   -7.7379156046937636       -7.7430428608441195       -7.7410707253814559     
 PAO|LS| adapt: suggested step_size:   0.28363762075041260     
 PAO|LS| adapt: predicted energy  -7.7432181361898200     
 PAO| ======================= Iteration:        12 =============================

     Lanczos converged:  T threshold:   0.100E-02
     Est. extremal eigenvalues:    0.280E+01   0.185E+00
     Est. condition number :    0.152E+02

 Order=           3
     NS sqrt iter    1 1.00000000   0.712E+00       0.001       58.575
     NS sqrt iter    2 1.00000000   0.332E+00       0.001       98.588
     NS sqrt iter    3 1.00000000   0.759E-01       0.001       99.452
     NS sqrt iter    4 1.00000000   0.184E-02       0.001       97.201
     NS sqrt iter    5 1.00000000   0.498E-07       0.001       64.347
     Symmetrizing Results
     Final NS sqrt iter    5 1.00000000   0.604E-09

     Est. extremal eigenvalues     -0.93409     1.62166  converged:  T
     TRS4 it   1 1.00000000   0.858E+00       0.000       16.128   0.100E-07
     TRS4 it   2 1.00000000   0.604E+00       0.001       32.256   0.100E-07
     TRS4 it   3 1.00000000   0.412E+00       0.001       32.256   0.100E-07
     TRS4 it   4 1.00000000   0.212E+00       0.001       32.256   0.100E-07
     TRS4 it   5 1.00000000   0.695E-01       0.001       32.256   0.100E-07
     TRS4 it   6 1.00000000   0.919E-02       0.001       32.256   0.100E-07
     TRS4 it   7 1.00000000   0.210E-03       0.001       32.256   0.100E-07
     TRS4 it   8 1.00000000   0.153E-06       0.001       32.256   0.100E-07
     TRS4 it   9 1.00000000   0.101E-12       0.001       32.256   0.100E-07
     Final TRS4 iteration    9 1.00000000   0.101E-12
     Chemical potential (mu):       0.00292
 
 PAO| energy:  -7.7432024391524514      penalty:   1.4060192910743509E-005
 PAO|CG| trace_G_new    1.2847525141946172E-002
 PAO|CG| trace_G_prev    3.8346860792178132E-002
 PAO|CG| trace_G_mix   -5.5200015022728610E-004
 PAO|CG| trace_D    4.7138738682737595E-002
 PAO|CG| trace_D_Gnew   2.7385965675827948E-004
 PAO|CG| beta:   0.34942952344371953     
 PAO| norm of gradient:  0.11334692383098084     
 PAO| energy improvement:  -5.2868344586878280E-003
 PAO| step     12                   -7.743202439  0.708E-02  0.284E+00     0.058
 PAO|LS| adapt:  T F F
 PAO|LS| adapt: scan_steps:    0.0000000000000000        0.0000000000000000        0.0000000000000000     
 PAO|LS| adapt: energies:   -7.7432024391524514        0.0000000000000000        0.0000000000000000     
 PAO| ======================= Iteration:        13 =============================

     Lanczos converged:  T threshold:   0.100E-02
     Est. extremal eigenvalues:    0.277E+01   0.190E+00
     Est. condition number :    0.146E+02

 Order=           3
     NS sqrt iter    1 1.00000000   0.705E+00       0.001       57.653
     NS sqrt iter    2 1.00000000   0.325E+00       0.001       99.319
     NS sqrt iter    3 1.00000000   0.715E-01       0.001       99.713
     NS sqrt iter    4 1.00000000   0.154E-02       0.001      101.514
     NS sqrt iter    5 1.00000000   0.293E-07       0.005       12.548
     Symmetrizing Results
     Final NS sqrt iter    5 1.00000000   0.906E-09

     Est. extremal eigenvalues     -0.93470     1.61558  converged:  T
     TRS4 it   1 1.00000000   0.858E+00       0.000       16.128   0.100E-07
     TRS4 it   2 1.00000000   0.601E+00       0.001       32.256   0.100E-07
     TRS4 it   3 1.00000000   0.408E+00       0.001       32.256   0.100E-07
     TRS4 it   4 1.00000000   0.207E+00       0.001       32.256   0.100E-07
     TRS4 it   5 1.00000000   0.659E-01       0.001       32.256   0.100E-07
     TRS4 it   6 1.00000000   0.819E-02       0.001       32.256   0.100E-07
     TRS4 it   7 1.00000000   0.164E-03       0.001       32.256   0.100E-07
     TRS4 it   8 1.00000000   0.909E-07       0.001       32.256   0.100E-07
     TRS4 it   9 1.00000000   0.343E-13       0.001       32.256   0.100E-07
     Final TRS4 iteration    9 1.00000000   0.343E-13
     Chemical potential (mu):       0.00749
 
 PAO| energy:  -7.7454616245342560      penalty:   1.4412302876919171E-005
 PAO|LS| adapt:  T T F
 PAO|LS| adapt: scan_steps:    0.0000000000000000       0.28363762075041260        0.0000000000000000     
 PAO|LS| adapt: energies:   -7.7432024391524514       -7.7454616245342560        0.0000000000000000     
 PAO| ======================= Iteration:        14 =============================

     Lanczos converged:  T threshold:   0.100E-02
     Est. extremal eigenvalues:    0.273E+01   0.194E+00
     Est. condition number :    0.140E+02

 Order=           3
     NS sqrt iter    1 1.00000000   0.697E+00       0.001       59.019
     NS sqrt iter    2 1.00000000   0.318E+00       0.001       98.770
     NS sqrt iter    3 1.00000000   0.674E-01       0.017        6.432
     NS sqrt iter    4 1.00000000   0.129E-02       0.001       98.589
     NS sqrt iter    5 1.00000000   0.163E-07       0.001       49.316
     Symmetrizing Results
     Final NS sqrt iter    5 1.00000000   0.445E-08

     Est. extremal eigenvalues     -0.93474     1.60995  converged:  T
     TRS4 it   1 1.00000000   0.857E+00       0.000       16.128   0.100E-07
     TRS4 it   2 1.00000000   0.598E+00       0.001       32.256   0.100E-07
     TRS4 it   3 1.00000000   0.404E+00       0.001       32.256   0.100E-07
     TRS4 it   4 1.00000000   0.202E+00       0.001       32.256   0.100E-07
     TRS4 it   5 1.00000000   0.624E-01       0.001       32.256   0.100E-07
     TRS4 it   6 1.00000000   0.730E-02       0.001       32.256   0.100E-07
     TRS4 it   7 1.00000000   0.128E-03       0.001       32.256   0.100E-07
     TRS4 it   8 1.00000000   0.541E-07       0.001       32.256   0.100E-07
     Final TRS4 iteration    8 1.00000000   0.541E-07
     Chemical potential (mu):       0.00933
 
 PAO| energy:  -7.7450554906213833      penalty:   1.5254233956715519E-005
 PAO|LS| adapt:  T T T
 PAO|LS| adapt: scan_steps:    0.0000000000000000       0.28363762075041260       0.56727524150082520     
 PAO|LS| adapt: energies:   -7.7432024391524514       -7.7454616245342560       -7.7450554906213833     
 PAO|LS| adapt: suggested step_size:   0.38223652235772210     
 PAO|LS| adapt: predicted energy  -7.7456226652655378     
 PAO| ======================= Iteration:        15 =============================

     Lanczos converged:  T threshold:   0.100E-02
     Est. extremal eigenvalues:    0.275E+01   0.191E+00
     Est. condition number :    0.144E+02

 Order=           3
     NS sqrt iter    1 1.00000000   0.702E+00       0.001       58.389
     NS sqrt iter    2 1.00000000   0.322E+00       0.017        6.432
     NS sqrt iter    3 1.00000000   0.701E-01       0.001       98.579
     NS sqrt iter    4 1.00000000   0.145E-02       0.001       98.642
     NS sqrt iter    5 1.00000000   0.244E-07       0.001       58.162
     Symmetrizing Results
     Final NS sqrt iter    5 1.00000000   0.722E-09

     Est. extremal eigenvalues     -0.93477     1.61358  converged:  T
     TRS4 it   1 1.00000000   0.857E+00       0.000       16.128   0.100E-07
     TRS4 it   2 1.00000000   0.600E+00       0.001       32.256   0.100E-07
     TRS4 it   3 1.00000000   0.406E+00       0.001       32.256   0.100E-07
     TRS4 it   4 1.00000000   0.205E+00       0.001       32.256   0.100E-07
     TRS4 it   5 1.00000000   0.646E-01       0.001       32.256   0.100E-07
     TRS4 it   6 1.00000000   0.787E-02       0.001       32.256   0.100E-07
     TRS4 it   7 1.00000000   0.151E-03       0.001       32.256   0.100E-07
     TRS4 it   8 1.00000000   0.759E-07       0.001       32.256   0.100E-07
     Final TRS4 iteration    8 1.00000000   0.759E-07
     Chemical potential (mu):       0.00672
 
 PAO| energy:  -7.7456187199362150      penalty:   1.4645192296899535E-005
 PAO|CG| trace_G_new    2.7201941306862461E-003
 PAO|CG| trace_G_prev    1.2847525141946172E-002
 PAO|CG| trace_G_mix    1.0400498936813939E-004
 PAO|CG| trace_D    1.8411822591156878E-002
 PAO|CG| trace_D_Gnew   2.8207046013515693E-005
 PAO|CG| beta:   0.20363370473403100     
 PAO| norm of gradient:   5.2155480351409343E-002
 PAO| energy improvement:  -2.4162807837635469E-003
 PAO| step     15                   -7.745618720  0.326E-02  0.382E+00     0.117
 PAO|LS| adapt:  T F F
 PAO|LS| adapt: scan_steps:    0.0000000000000000        0.0000000000000000        0.0000000000000000     
 PAO|LS| adapt: energies:   -7.7456187199362150        0.0000000000000000        0.0000000000000000     
 PAO| ======================= Iteration:        16 =============================

     Lanczos converged:  T threshold:   0.100E-02
     Est. extremal eigenvalues:    0.274E+01   0.192E+00
     Est. condition number :    0.143E+02

 Order=           3
     NS sqrt iter    1 1.00000000   0.700E+00       0.001       59.434
     NS sqrt iter    2 1.00000000   0.321E+00       0.001       97.365
     NS sqrt iter    3 1.00000000   0.693E-01       0.001       98.412
     NS sqrt iter    4 1.00000000   0.139E-02       0.001       99.896
     NS sqrt iter    5 1.00000000   0.212E-07       0.001       56.688
     Symmetrizing Results
     Final NS sqrt iter    5 1.00000000   0.308E-08

     Est. extremal eigenvalues     -0.93480     1.61179  converged:  T
     TRS4 it   1 1.00000000   0.857E+00       0.000       16.128   0.100E-07
     TRS4 it   2 1.00000000   0.598E+00       0.001       32.256   0.100E-07
     TRS4 it   3 1.00000000   0.405E+00       0.001       32.256   0.100E-07
     TRS4 it   4 1.00000000   0.203E+00       0.001       32.256   0.100E-07
     TRS4 it   5 1.00000000   0.633E-01       0.001       32.256   0.100E-07
     TRS4 it   6 1.00000000   0.756E-02       0.001       32.256   0.100E-07
     TRS4 it   7 1.00000000   0.140E-03       0.001       32.256   0.100E-07
     TRS4 it   8 1.00000000   0.660E-07       0.001       32.256   0.100E-07
     Final TRS4 iteration    8 1.00000000   0.660E-07
     Chemical potential (mu):       0.00773
 
 PAO| energy:  -7.7457240733560004      penalty:   1.4460653312905313E-005
 PAO|LS| adapt:  T T F
 PAO|LS| adapt: scan_steps:    0.0000000000000000       0.38223652235772210        0.0000000000000000     
 PAO|LS| adapt: energies:   -7.7456187199362150       -7.7457240733560004        0.0000000000000000     
 PAO| ======================= Iteration:        17 =============================

     Lanczos converged:  T threshold:   0.100E-02
     Est. extremal eigenvalues:    0.273E+01   0.193E+00
     Est. condition number :    0.141E+02

 Order=           3
     NS sqrt iter    1 1.00000000   0.698E+00       0.001       59.346
     NS sqrt iter    2 1.00000000   0.320E+00       0.001       99.444
     NS sqrt iter    3 1.00000000   0.687E-01       0.001       99.810
     NS sqrt iter    4 1.00000000   0.134E-02       0.001      101.323
     NS sqrt iter    5 1.00000000   0.185E-07       0.001       54.659
     Symmetrizing Results
     Final NS sqrt iter    5 1.00000000   0.333E-08

     Est. extremal eigenvalues     -0.93470     1.61007  converged:  T
     TRS4 it   1 1.00000000   0.857E+00       0.000       16.128   0.100E-07
     TRS4 it   2 1.00000000   0.597E+00       0.001       32.256   0.100E-07
     TRS4 it   3 1.00000000   0.403E+00       0.001       32.256   0.100E-07
     TRS4 it   4 1.00000000   0.201E+00       0.001       32.256   0.100E-07
     TRS4 it   5 1.00000000   0.621E-01       0.001       32.256   0.100E-07
     TRS4 it   6 1.00000000   0.727E-02       0.001       32.256   0.100E-07
     TRS4 it   7 1.00000000   0.130E-03       0.001       32.256   0.100E-07
     TRS4 it   8 1.00000000   0.574E-07       0.001       32.256   0.100E-07
     Final TRS4 iteration    8 1.00000000   0.574E-07
     Chemical potential (mu):       0.00872
 
 PAO| energy:  -7.7439571185139178      penalty:   1.4408245980371829E-005
 PAO|LS| adapt:  T T T
 PAO|LS| adapt: scan_steps:    0.0000000000000000       0.38223652235772210       0.76447304471544419     
 PAO|LS| adapt: energies:   -7.7456187199362150       -7.7457240733560004       -7.7439571185139178     
 PAO|LS| adapt: suggested step_size:   0.21262643139710657     
 PAO|LS| adapt: predicted energy  -7.7459083992588722     
 PAO| ======================= Iteration:        18 =============================

     Lanczos converged:  T threshold:   0.100E-02
     Est. extremal eigenvalues:    0.275E+01   0.192E+00
     Est. condition number :    0.143E+02

 Order=           3
     NS sqrt iter    1 1.00000000   0.701E+00       0.001       58.964
     NS sqrt iter    2 1.00000000   0.322E+00       0.001       98.507
     NS sqrt iter    3 1.00000000   0.697E-01       0.001       99.770
     NS sqrt iter    4 1.00000000   0.142E-02       0.001       99.724
     NS sqrt iter    5 1.00000000   0.225E-07       0.001       56.295
     Symmetrizing Results
     Final NS sqrt iter    5 1.00000000   0.329E-08

     Est. extremal eigenvalues     -0.93481     1.61258  converged:  T
     TRS4 it   1 1.00000000   0.857E+00       0.000       16.128   0.100E-07
     TRS4 it   2 1.00000000   0.599E+00       0.001       32.256   0.100E-07
     TRS4 it   3 1.00000000   0.405E+00       0.001       32.256   0.100E-07
     TRS4 it   4 1.00000000   0.204E+00       0.001       32.256   0.100E-07
     TRS4 it   5 1.00000000   0.639E-01       0.001       32.256   0.100E-07
     TRS4 it   6 1.00000000   0.769E-02       0.001       32.256   0.100E-07
     TRS4 it   7 1.00000000   0.144E-03       0.001       32.256   0.100E-07
     TRS4 it   8 1.00000000   0.702E-07       0.001       32.256   0.100E-07
     Final TRS4 iteration    8 1.00000000   0.702E-07
     Chemical potential (mu):       0.00729
 
 PAO| energy:  -7.7459077320942145      penalty:   1.4526598029489432E-005
 PAO|CG| trace_G_new    7.6819413035055363E-004
 PAO|CG| trace_G_prev    2.7201941306862461E-003
 PAO|CG| trace_G_mix    3.4103424473093154E-007
 PAO|CG| trace_D    3.4721835807474816E-003
 PAO|CG| trace_D_Gnew  -2.1249624604922699E-006
 PAO|CG| beta:   0.28227878571008830     
 PAO| norm of gradient:   2.7716315237609663E-002
 PAO| energy improvement:  -2.8901215799947977E-004
 PAO| step     18                   -7.745907732  0.173E-02  0.213E+00     0.056
 PAO|LS| adapt:  T F F
 PAO|LS| adapt: scan_steps:    0.0000000000000000        0.0000000000000000        0.0000000000000000     
 PAO|LS| adapt: energies:   -7.7459077320942145        0.0000000000000000        0.0000000000000000     
 PAO| ======================= Iteration:        19 =============================

     Lanczos converged:  T threshold:   0.100E-02
     Est. extremal eigenvalues:    0.275E+01   0.192E+00
     Est. condition number :    0.143E+02

 Order=           3
     NS sqrt iter    1 1.00000000   0.701E+00       0.001       59.589
     NS sqrt iter    2 1.00000000   0.322E+00       0.001      100.236
     NS sqrt iter    3 1.00000000   0.698E-01       0.001       99.209
     NS sqrt iter    4 1.00000000   0.142E-02       0.001       98.384
     NS sqrt iter    5 1.00000000   0.226E-07       0.001       56.092
     Symmetrizing Results
     Final NS sqrt iter    5 1.00000000   0.332E-08

     Est. extremal eigenvalues     -0.93481     1.61289  converged:  T
     TRS4 it   1 1.00000000   0.857E+00       0.000       16.128   0.100E-07
     TRS4 it   2 1.00000000   0.599E+00       0.001       32.256   0.100E-07
     TRS4 it   3 1.00000000   0.405E+00       0.001       32.256   0.100E-07
     TRS4 it   4 1.00000000   0.204E+00       0.001       32.256   0.100E-07
     TRS4 it   5 1.00000000   0.639E-01       0.001       32.256   0.100E-07
     TRS4 it   6 1.00000000   0.769E-02       0.001       32.256   0.100E-07
     TRS4 it   7 1.00000000   0.145E-03       0.001       32.256   0.100E-07
     TRS4 it   8 1.00000000   0.713E-07       0.001       32.256   0.100E-07
     Final TRS4 iteration    8 1.00000000   0.713E-07
     Chemical potential (mu):       0.00718
 
 PAO| energy:  -7.7460324753089447      penalty:   1.4253002040371184E-005
 PAO|LS| adapt:  T T F
 PAO|LS| adapt: scan_steps:    0.0000000000000000       0.21262643139710657        0.0000000000000000     
 PAO|LS| adapt: energies:   -7.7459077320942145       -7.7460324753089447        0.0000000000000000     
 PAO| ======================= Iteration:        20 =============================

     Lanczos converged:  T threshold:   0.100E-02
     Est. extremal eigenvalues:    0.275E+01   0.192E+00
     Est. condition number :    0.143E+02

 Order=           3
     NS sqrt iter    1 1.00000000   0.701E+00       0.001       59.020
     NS sqrt iter    2 1.00000000   0.322E+00       0.001       99.241
     NS sqrt iter    3 1.00000000   0.700E-01       0.001       96.610
     NS sqrt iter    4 1.00000000   0.143E-02       0.001       99.361
     NS sqrt iter    5 1.00000000   0.227E-07       0.001       56.634
     Symmetrizing Results
     Final NS sqrt iter    5 1.00000000   0.335E-08

     Est. extremal eigenvalues     -0.93481     1.61320  converged:  T
     TRS4 it   1 1.00000000   0.857E+00       0.000       16.128   0.100E-07
     TRS4 it   2 1.00000000   0.599E+00       0.001       32.256   0.100E-07
     TRS4 it   3 1.00000000   0.405E+00       0.001       32.256   0.100E-07
     TRS4 it   4 1.00000000   0.204E+00       0.001       32.256   0.100E-07
     TRS4 it   5 1.00000000   0.638E-01       0.001       32.256   0.100E-07
     TRS4 it   6 1.00000000   0.769E-02       0.001       32.256   0.100E-07
     TRS4 it   7 1.00000000   0.146E-03       0.001       32.256   0.100E-07
     TRS4 it   8 1.00000000   0.724E-07       0.001       32.256   0.100E-07
     Final TRS4 iteration    8 1.00000000   0.724E-07
     Chemical potential (mu):       0.00706
 
 PAO| energy:  -7.7460793014020251      penalty:   1.3991765433617234E-005
 PAO|LS| adapt:  T T F
 PAO|LS| adapt: scan_steps:    0.0000000000000000       0.42525286279421315        0.0000000000000000     
 PAO|LS| adapt: energies:   -7.7459077320942145       -7.7460793014020251        0.0000000000000000     
 PAO| ======================= Iteration:        21 =============================

     Lanczos converged:  T threshold:   0.100E-02
     Est. extremal eigenvalues:    0.275E+01   0.191E+00
     Est. condition number :    0.143E+02

 Order=           3
     NS sqrt iter    1 1.00000000   0.700E+00       0.001       59.334
     NS sqrt iter    2 1.00000000   0.322E+00       0.001       98.084
     NS sqrt iter    3 1.00000000   0.704E-01       0.001       98.943
     NS sqrt iter    4 1.00000000   0.145E-02       0.001       98.682
     NS sqrt iter    5 1.00000000   0.230E-07       0.001       56.481
     Symmetrizing Results
     Final NS sqrt iter    5 1.00000000   0.343E-08

     Est. extremal eigenvalues     -0.93480     1.61384  converged:  T
     TRS4 it   1 1.00000000   0.858E+00       0.000       16.128   0.100E-07
     TRS4 it   2 1.00000000   0.599E+00       0.001       32.256   0.100E-07
     TRS4 it   3 1.00000000   0.405E+00       0.001       32.256   0.100E-07
     TRS4 it   4 1.00000000   0.203E+00       0.001       32.256   0.100E-07
     TRS4 it   5 1.00000000   0.637E-01       0.001       32.256   0.100E-07
     TRS4 it   6 1.00000000   0.768E-02       0.001       32.256   0.100E-07
     TRS4 it   7 1.00000000   0.147E-03       0.001       32.256   0.100E-07
     TRS4 it   8 1.00000000   0.746E-07       0.001       32.256   0.100E-07
     Final TRS4 iteration    8 1.00000000   0.746E-07
     Chemical potential (mu):       0.00680
 
 PAO| energy:  -7.7459363590357162      penalty:   1.3505904671496429E-005
 PAO|LS| Need extra step
 PAO|LS| adapt:  T T T
 PAO|LS| adapt: scan_steps:    0.0000000000000000       0.42525286279421315       0.85050572558842630     
 PAO|LS| adapt: energies:   -7.7459077320942145       -7.7460793014020251       -7.7459363590357162     
 PAO|LS| adapt: suggested step_size:   0.44460618069686553     
 PAO|LS| adapt: predicted energy  -7.7460796271060639     
 PAO| ======================= Iteration:        22 =============================

     Lanczos converged:  T threshold:   0.100E-02
     Est. extremal eigenvalues:    0.275E+01   0.192E+00
     Est. condition number :    0.143E+02

 Order=           3
     NS sqrt iter    1 1.00000000   0.700E+00       0.001       57.447
     NS sqrt iter    2 1.00000000   0.322E+00       0.001       98.210
     NS sqrt iter    3 1.00000000   0.701E-01       0.001       99.841
     NS sqrt iter    4 1.00000000   0.143E-02       0.001       99.652
     NS sqrt iter    5 1.00000000   0.227E-07       0.001       54.446
     Symmetrizing Results
     Final NS sqrt iter    5 1.00000000   0.336E-08

     Est. extremal eigenvalues     -0.93481     1.61323  converged:  T
     TRS4 it   1 1.00000000   0.857E+00       0.000       16.128   0.100E-07
     TRS4 it   2 1.00000000   0.599E+00       0.001       32.256   0.100E-07
     TRS4 it   3 1.00000000   0.405E+00       0.001       32.256   0.100E-07
     TRS4 it   4 1.00000000   0.204E+00       0.001       32.256   0.100E-07
     TRS4 it   5 1.00000000   0.638E-01       0.001       32.256   0.100E-07
     TRS4 it   6 1.00000000   0.769E-02       0.001       32.256   0.100E-07
     TRS4 it   7 1.00000000   0.146E-03       0.001       32.256   0.100E-07
     TRS4 it   8 1.00000000   0.725E-07       0.001       32.256   0.100E-07
     Final TRS4 iteration    8 1.00000000   0.725E-07
     Chemical potential (mu):       0.00705
 
 PAO| energy:  -7.7460796702263970      penalty:   1.3968595902009836E-005
 PAO|CG| trace_G_new    2.1627500656693478E-004
 PAO|CG| trace_G_prev    7.6819413035055363E-004
 PAO|CG| trace_G_mix    4.1641877744790096E-006
 PAO|CG| trace_D    1.0460619402083160E-003
 PAO|CG| trace_D_Gnew  -2.2262707116423003E-006
 PAO|CG| beta:   0.27611616701062563     
 PAO| norm of gradient:   1.4706291394057673E-002
 PAO| energy improvement:  -1.7193813218252529E-004
 PAO| step     22                   -7.746079670  0.919E-03  0.445E+00     0.073
 PAO|LS| adapt:  T F F
 PAO|LS| adapt: scan_steps:    0.0000000000000000        0.0000000000000000        0.0000000000000000     
 PAO|LS| adapt: energies:   -7.7460796702263970        0.0000000000000000        0.0000000000000000     
 PAO| ======================= Iteration:        23 =============================

     Lanczos converged:  T threshold:   0.100E-02
     Est. extremal eigenvalues:    0.275E+01   0.192E+00
     Est. condition number :    0.143E+02

 Order=           3
     NS sqrt iter    1 1.00000000   0.700E+00       0.001       59.151
     NS sqrt iter    2 1.00000000   0.322E+00       0.001       99.367
     NS sqrt iter    3 1.00000000   0.701E-01       0.001       98.883
     NS sqrt iter    4 1.00000000   0.143E-02       0.001       99.241
     NS sqrt iter    5 1.00000000   0.225E-07       0.001       58.756
     Symmetrizing Results
     Final NS sqrt iter    5 1.00000000   0.333E-08

     Est. extremal eigenvalues     -0.93481     1.61327  converged:  T
     TRS4 it   1 1.00000000   0.857E+00       0.000       16.128   0.100E-07
     TRS4 it   2 1.00000000   0.599E+00       0.001       32.256   0.100E-07
     TRS4 it   3 1.00000000   0.405E+00       0.001       32.256   0.100E-07
     TRS4 it   4 1.00000000   0.204E+00       0.001       32.256   0.100E-07
     TRS4 it   5 1.00000000   0.640E-01       0.001       32.256   0.100E-07
     TRS4 it   6 1.00000000   0.774E-02       0.001       32.256   0.100E-07
     TRS4 it   7 1.00000000   0.148E-03       0.001       32.256   0.100E-07
     TRS4 it   8 1.00000000   0.746E-07       0.001       32.256   0.100E-07
     Final TRS4 iteration    8 1.00000000   0.746E-07
     Chemical potential (mu):       0.00679
 
 PAO| energy:  -7.7461240209811990      penalty:   1.3328602525797962E-005
 PAO|LS| adapt:  T T F
 PAO|LS| adapt: scan_steps:    0.0000000000000000       0.44460618069686553        0.0000000000000000     
 PAO|LS| adapt: energies:   -7.7460796702263970       -7.7461240209811990        0.0000000000000000     
 PAO| ======================= Iteration:        24 =============================

     Lanczos converged:  T threshold:   0.100E-02
     Est. extremal eigenvalues:    0.275E+01   0.192E+00
     Est. condition number :    0.143E+02

 Order=           3
     NS sqrt iter    1 1.00000000   0.700E+00       0.001       58.087
     NS sqrt iter    2 1.00000000   0.322E+00       0.001       97.040
     NS sqrt iter    3 1.00000000   0.701E-01       0.001       98.389
     NS sqrt iter    4 1.00000000   0.143E-02       0.001       99.007
     NS sqrt iter    5 1.00000000   0.223E-07       0.001       56.374
     Symmetrizing Results
     Final NS sqrt iter    5 1.00000000   0.331E-08

     Est. extremal eigenvalues     -0.93480     1.61331  converged:  T
     TRS4 it   1 1.00000000   0.857E+00       0.000       16.128   0.100E-07
     TRS4 it   2 1.00000000   0.599E+00       0.001       32.256   0.100E-07
     TRS4 it   3 1.00000000   0.406E+00       0.001       32.256   0.100E-07
     TRS4 it   4 1.00000000   0.204E+00       0.001       32.256   0.100E-07
     TRS4 it   5 1.00000000   0.642E-01       0.001       32.256   0.100E-07
     TRS4 it   6 1.00000000   0.779E-02       0.001       32.256   0.100E-07
     TRS4 it   7 1.00000000   0.150E-03       0.017        1.929   0.100E-07
     TRS4 it   8 1.00000000   0.769E-07       0.001       32.256   0.100E-07
     Final TRS4 iteration    8 1.00000000   0.769E-07
     Chemical potential (mu):       0.00652
 
 PAO| energy:  -7.7460636262059159      penalty:   1.2714404922790895E-005
 PAO|LS| adapt:  T T T
 PAO|LS| adapt: scan_steps:    0.0000000000000000       0.44460618069686553       0.88921236139373105     
 PAO|LS| adapt: energies:   -7.7460796702263970       -7.7461240209811990       -7.7460636262059159     
 PAO|LS| adapt: suggested step_size:   0.41055570301391286     
 PAO|LS| adapt: predicted energy  -7.7461243281668528     
 PAO| ======================= Iteration:        25 =============================

     Lanczos converged:  T threshold:   0.100E-02
     Est. extremal eigenvalues:    0.275E+01   0.192E+00
     Est. condition number :    0.143E+02

 Order=           3
     NS sqrt iter    1 1.00000000   0.700E+00       0.001       58.566
     NS sqrt iter    2 1.00000000   0.322E+00       0.001       99.652
     NS sqrt iter    3 1.00000000   0.701E-01       0.001       99.272
     NS sqrt iter    4 1.00000000   0.143E-02       0.001       98.537
     NS sqrt iter    5 1.00000000   0.225E-07       0.001       56.589
     Symmetrizing Results
     Final NS sqrt iter    5 1.00000000   0.333E-08

     Est. extremal eigenvalues     -0.93481     1.61327  converged:  T
     TRS4 it   1 1.00000000   0.857E+00       0.000       16.128   0.100E-07
     TRS4 it   2 1.00000000   0.599E+00       0.001       32.256   0.100E-07
     TRS4 it   3 1.00000000   0.405E+00       0.001       32.256   0.100E-07
     TRS4 it   4 1.00000000   0.204E+00       0.001       32.256   0.100E-07
     TRS4 it   5 1.00000000   0.640E-01       0.001       32.256   0.100E-07
     TRS4 it   6 1.00000000   0.773E-02       0.001       32.256   0.100E-07
     TRS4 it   7 1.00000000   0.147E-03       0.001       32.256   0.100E-07
     TRS4 it   8 1.00000000   0.745E-07       0.001       32.256   0.100E-07
     Final TRS4 iteration    8 1.00000000   0.745E-07
     Chemical potential (mu):       0.00680
 
 PAO| energy:  -7.7461243169789986      penalty:   1.3376697983317872E-005
 PAO|CG| trace_G_new    6.0807223633720214E-005
 PAO|CG| trace_G_prev    2.1627500656693478E-004
 PAO|CG| trace_G_mix    3.5515864338187846E-007
 PAO|CG| trace_D    2.9725633158633150E-004
 PAO|CG| trace_D_Gnew  -3.3145035650039322E-007
 PAO|CG| beta:   0.27951479900489135     
 PAO| norm of gradient:   7.7978986678284177E-003
 PAO| energy improvement:  -4.4646752601629203E-005
 PAO| step     25                   -7.746124317  0.487E-03  0.411E+00     0.100
 PAO|LS| adapt:  T F F
 PAO|LS| adapt: scan_steps:    0.0000000000000000        0.0000000000000000        0.0000000000000000     
 PAO|LS| adapt: energies:   -7.7461243169789986        0.0000000000000000        0.0000000000000000     
 PAO| ======================= Iteration:        26 =============================

     Lanczos converged:  T threshold:   0.100E-02
     Est. extremal eigenvalues:    0.275E+01   0.192E+00
     Est. condition number :    0.143E+02

 Order=           3
     NS sqrt iter    1 1.00000000   0.700E+00       0.001       58.201
     NS sqrt iter    2 1.00000000   0.322E+00       0.001       99.216
     NS sqrt iter    3 1.00000000   0.700E-01       0.001       98.911
     NS sqrt iter    4 1.00000000   0.142E-02       0.001       98.804
     NS sqrt iter    5 1.00000000   0.222E-07       0.001       56.368
     Symmetrizing Results
     Final NS sqrt iter    5 1.00000000   0.326E-08

     Est. extremal eigenvalues     -0.93481     1.61295  converged:  T
     TRS4 it   1 1.00000000   0.857E+00       0.000       16.128   0.100E-07
     TRS4 it   2 1.00000000   0.599E+00       0.001       32.256   0.100E-07
     TRS4 it   3 1.00000000   0.405E+00       0.001       32.256   0.100E-07
     TRS4 it   4 1.00000000   0.204E+00       0.001       32.256   0.100E-07
     TRS4 it   5 1.00000000   0.639E-01       0.001       32.256   0.100E-07
     TRS4 it   6 1.00000000   0.772E-02       0.001       32.256   0.100E-07
     TRS4 it   7 1.00000000   0.147E-03       0.001       32.256   0.100E-07
     TRS4 it   8 1.00000000   0.738E-07       0.001       32.256   0.100E-07
     Final TRS4 iteration    8 1.00000000   0.738E-07
     Chemical potential (mu):       0.00685
 
 PAO| energy:  -7.7461285024643312      penalty:   1.2774857710161167E-005
 PAO|LS| adapt:  T T F
 PAO|LS| adapt: scan_steps:    0.0000000000000000       0.41055570301391286        0.0000000000000000     
 PAO|LS| adapt: energies:   -7.7461243169789986       -7.7461285024643312        0.0000000000000000     
 PAO| ======================= Iteration:        27 =============================

     Lanczos converged:  T threshold:   0.100E-02
     Est. extremal eigenvalues:    0.275E+01   0.192E+00
     Est. condition number :    0.143E+02

 Order=           3
     NS sqrt iter    1 1.00000000   0.700E+00       0.001       59.934
     NS sqrt iter    2 1.00000000   0.322E+00       0.001       96.119
     NS sqrt iter    3 1.00000000   0.699E-01       0.001      100.647
     NS sqrt iter    4 1.00000000   0.142E-02       0.001      100.961
     NS sqrt iter    5 1.00000000   0.219E-07       0.001       56.045
     Symmetrizing Results
     Final NS sqrt iter    5 1.00000000   0.319E-08

     Est. extremal eigenvalues     -0.93481     1.61263  converged:  T
     TRS4 it   1 1.00000000   0.857E+00       0.000       16.128   0.100E-07
     TRS4 it   2 1.00000000   0.599E+00       0.001       32.256   0.100E-07
     TRS4 it   3 1.00000000   0.405E+00       0.001       32.256   0.100E-07
     TRS4 it   4 1.00000000   0.204E+00       0.001       32.256   0.100E-07
     TRS4 it   5 1.00000000   0.639E-01       0.001       32.256   0.100E-07
     TRS4 it   6 1.00000000   0.771E-02       0.001       32.256   0.100E-07
     TRS4 it   7 1.00000000   0.146E-03       0.001       32.256   0.100E-07
     TRS4 it   8 1.00000000   0.732E-07       0.001       32.256   0.100E-07
     Final TRS4 iteration    8 1.00000000   0.732E-07
     Chemical potential (mu):       0.00689
 
 PAO| energy:  -7.7460910027147065      penalty:   1.2189194745976196E-005
 PAO|LS| adapt:  T T T
 PAO|LS| adapt: scan_steps:    0.0000000000000000       0.41055570301391286       0.82111140602782573     
 PAO|LS| adapt: energies:   -7.7461243169789986       -7.7461285024643312       -7.7460910027147065     
 PAO|LS| adapt: suggested step_size:   0.24650047805377442     
 PAO|LS| adapt: predicted energy  -7.7461318305018434     
 PAO| ======================= Iteration:        28 =============================

     Lanczos converged:  T threshold:   0.100E-02
     Est. extremal eigenvalues:    0.275E+01   0.192E+00
     Est. condition number :    0.143E+02

 Order=           3
     NS sqrt iter    1 1.00000000   0.700E+00       0.001       57.882
     NS sqrt iter    2 1.00000000   0.322E+00       0.001       98.502
     NS sqrt iter    3 1.00000000   0.700E-01       0.001       99.025
     NS sqrt iter    4 1.00000000   0.143E-02       0.001       97.927
     NS sqrt iter    5 1.00000000   0.223E-07       0.001       56.474
     Symmetrizing Results
     Final NS sqrt iter    5 1.00000000   0.329E-08

     Est. extremal eigenvalues     -0.93481     1.61307  converged:  T
     TRS4 it   1 1.00000000   0.857E+00       0.000       16.128   0.100E-07
     TRS4 it   2 1.00000000   0.599E+00       0.001       32.256   0.100E-07
     TRS4 it   3 1.00000000   0.405E+00       0.001       32.256   0.100E-07
     TRS4 it   4 1.00000000   0.204E+00       0.001       32.256   0.100E-07
     TRS4 it   5 1.00000000   0.639E-01       0.001       32.256   0.100E-07
     TRS4 it   6 1.00000000   0.773E-02       0.001       32.256   0.100E-07
     TRS4 it   7 1.00000000   0.147E-03       0.001       32.256   0.100E-07
     TRS4 it   8 1.00000000   0.741E-07       0.001       32.256   0.100E-07
     Final TRS4 iteration    8 1.00000000   0.741E-07
     Chemical potential (mu):       0.00683
 
 PAO| energy:  -7.7461318264145209      penalty:   1.3013399740893866E-005
 PAO|CG| trace_G_new    2.4560425007597721E-005
 PAO|CG| trace_G_prev    6.0807223633720214E-005
 PAO|CG| trace_G_mix    7.0001323536965525E-009
 PAO|CG| trace_D    8.4216712291713182E-005
 PAO|CG| trace_D_Gnew  -1.3362108214295874E-008
 PAO|CG| beta:   0.40379125057813192     
 PAO| norm of gradient:   4.9558475569369282E-003
 PAO| energy improvement:  -7.5094355223015441E-006
 PAO| step     28                   -7.746131826  0.310E-03  0.247E+00     0.056
 PAO|LS| adapt:  T F F
 PAO|LS| adapt: scan_steps:    0.0000000000000000        0.0000000000000000        0.0000000000000000     
 PAO|LS| adapt: energies:   -7.7461318264145209        0.0000000000000000        0.0000000000000000     
 PAO| ======================= Iteration:        29 =============================

     Lanczos converged:  T threshold:   0.100E-02
     Est. extremal eigenvalues:    0.275E+01   0.192E+00
     Est. condition number :    0.143E+02

 Order=           3
     NS sqrt iter    1 1.00000000   0.700E+00       0.001       58.589
     NS sqrt iter    2 1.00000000   0.322E+00       0.001       97.379
     NS sqrt iter    3 1.00000000   0.700E-01       0.001       98.470
     NS sqrt iter    4 1.00000000   0.142E-02       0.001      100.203
     NS sqrt iter    5 1.00000000   0.222E-07       0.001       58.221
     Symmetrizing Results
     Final NS sqrt iter    5 1.00000000   0.325E-08

     Est. extremal eigenvalues     -0.93481     1.61297  converged:  T
     TRS4 it   1 1.00000000   0.857E+00       0.000       16.128   0.100E-07
     TRS4 it   2 1.00000000   0.599E+00       0.001       32.256   0.100E-07
     TRS4 it   3 1.00000000   0.405E+00       0.001       32.256   0.100E-07
     TRS4 it   4 1.00000000   0.204E+00       0.001       32.256   0.100E-07
     TRS4 it   5 1.00000000   0.639E-01       0.001       32.256   0.100E-07
     TRS4 it   6 1.00000000   0.771E-02       0.001       32.256   0.100E-07
     TRS4 it   7 1.00000000   0.147E-03       0.001       32.256   0.100E-07
     TRS4 it   8 1.00000000   0.735E-07       0.001       32.256   0.100E-07
     Final TRS4 iteration    8 1.00000000   0.735E-07
     Chemical potential (mu):       0.00689
 
 PAO| energy:  -7.7461371450574461      penalty:   1.2609929108474150E-005
 PAO|LS| adapt:  T T F
 PAO|LS| adapt: scan_steps:    0.0000000000000000       0.24650047805377442        0.0000000000000000     
 PAO|LS| adapt: energies:   -7.7461318264145209       -7.7461371450574461        0.0000000000000000     
 PAO| ======================= Iteration:        30 =============================

     Lanczos converged:  T threshold:   0.100E-02
     Est. extremal eigenvalues:    0.275E+01   0.192E+00
     Est. condition number :    0.143E+02

 Order=           3
     NS sqrt iter    1 1.00000000   0.700E+00       0.001       57.963
     NS sqrt iter    2 1.00000000   0.322E+00       0.001       98.575
     NS sqrt iter    3 1.00000000   0.699E-01       0.001       98.097
     NS sqrt iter    4 1.00000000   0.142E-02       0.001       98.542
     NS sqrt iter    5 1.00000000   0.221E-07       0.001       55.782
     Symmetrizing Results
     Final NS sqrt iter    5 1.00000000   0.321E-08

     Est. extremal eigenvalues     -0.93481     1.61287  converged:  T
     TRS4 it   1 1.00000000   0.857E+00       0.000       16.128   0.100E-07
     TRS4 it   2 1.00000000   0.599E+00       0.001       32.256   0.100E-07
     TRS4 it   3 1.00000000   0.405E+00       0.001       32.256   0.100E-07
     TRS4 it   4 1.00000000   0.204E+00       0.001       32.256   0.100E-07
     TRS4 it   5 1.00000000   0.638E-01       0.001       32.256   0.100E-07
     TRS4 it   6 1.00000000   0.770E-02       0.001       32.256   0.100E-07
     TRS4 it   7 1.00000000   0.146E-03       0.001       32.256   0.100E-07
     TRS4 it   8 1.00000000   0.729E-07       0.001       32.256   0.100E-07
     Final TRS4 iteration    8 1.00000000   0.729E-07
     Chemical potential (mu):       0.00695
 
 PAO| energy:  -7.7461409884562267      penalty:   1.2213317826647819E-005
 PAO|LS| adapt:  T T F
 PAO|LS| adapt: scan_steps:    0.0000000000000000       0.49300095610754885        0.0000000000000000     
 PAO|LS| adapt: energies:   -7.7461318264145209       -7.7461409884562267        0.0000000000000000     
 PAO| ======================= Iteration:        31 =============================

     Lanczos converged:  T threshold:   0.100E-02
     Est. extremal eigenvalues:    0.275E+01   0.192E+00
     Est. condition number :    0.143E+02

 Order=           3
     NS sqrt iter    1 1.00000000   0.700E+00       0.001       59.279
     NS sqrt iter    2 1.00000000   0.322E+00       0.001       99.606
     NS sqrt iter    3 1.00000000   0.698E-01       0.001       99.408
     NS sqrt iter    4 1.00000000   0.142E-02       0.001       97.165
     NS sqrt iter    5 1.00000000   0.218E-07       0.001       56.188
     Symmetrizing Results
     Final NS sqrt iter    5 1.00000000   0.314E-08

     Est. extremal eigenvalues     -0.93481     1.61267  converged:  T
     TRS4 it   1 1.00000000   0.858E+00       0.000       16.128   0.100E-07
     TRS4 it   2 1.00000000   0.599E+00       0.001       32.256   0.100E-07
     TRS4 it   3 1.00000000   0.405E+00       0.001       32.256   0.100E-07
     TRS4 it   4 1.00000000   0.203E+00       0.001       32.256   0.100E-07
     TRS4 it   5 1.00000000   0.637E-01       0.001       32.256   0.100E-07
     TRS4 it   6 1.00000000   0.768E-02       0.001       32.256   0.100E-07
     TRS4 it   7 1.00000000   0.145E-03       0.001       32.256   0.100E-07
     TRS4 it   8 1.00000000   0.717E-07       0.001       32.256   0.100E-07
     Final TRS4 iteration    8 1.00000000   0.717E-07
     Chemical potential (mu):       0.00707
 
 PAO| energy:  -7.7461442496810182      penalty:   1.1440576938927207E-005
 PAO|LS| Need extra step
 PAO|LS| adapt:  T T F
 PAO|LS| adapt: scan_steps:    0.0000000000000000       0.98600191221509770        0.0000000000000000     
 PAO|LS| adapt: energies:   -7.7461318264145209       -7.7461442496810182        0.0000000000000000     
 PAO| ======================= Iteration:        32 =============================

     Lanczos converged:  T threshold:   0.100E-02
     Est. extremal eigenvalues:    0.275E+01   0.192E+00
     Est. condition number :    0.143E+02

 Order=           3
     NS sqrt iter    1 1.00000000   0.699E+00       0.001       58.587
     NS sqrt iter    2 1.00000000   0.321E+00       0.001       99.431
     NS sqrt iter    3 1.00000000   0.696E-01       0.001       98.280
     NS sqrt iter    4 1.00000000   0.140E-02       0.001       98.993
     NS sqrt iter    5 1.00000000   0.213E-07       0.001       56.583
     Symmetrizing Results
     Final NS sqrt iter    5 1.00000000   0.221E-08

     Est. extremal eigenvalues     -0.93482     1.61227  converged:  T
     TRS4 it   1 1.00000000   0.858E+00       0.000       16.128   0.100E-07
     TRS4 it   2 1.00000000   0.599E+00       0.001       32.256   0.100E-07
     TRS4 it   3 1.00000000   0.405E+00       0.001       32.256   0.100E-07
     TRS4 it   4 1.00000000   0.203E+00       0.001       32.256   0.100E-07
     TRS4 it   5 1.00000000   0.635E-01       0.001       32.256   0.100E-07
     TRS4 it   6 1.00000000   0.763E-02       0.001       32.256   0.100E-07
     TRS4 it   7 1.00000000   0.143E-03       0.001       32.256   0.100E-07
     TRS4 it   8 1.00000000   0.695E-07       0.001       32.256   0.100E-07
     Final TRS4 iteration    8 1.00000000   0.695E-07
     Chemical potential (mu):       0.00730
 
 PAO| energy:  -7.7461330668991932      penalty:   9.9763519434620113E-006
 PAO|LS| Need extra step
 PAO|LS| adapt:  T T T
[...]
     NS sqrt iter    5 1.00000000   0.762E-09       0.001       36.864
     Symmetrizing Results
     Final NS sqrt iter    5 1.00000000   0.559E-10

     Est. extremal eigenvalues     -0.93465     1.55966  converged:  T
     TRS4 it   1 1.00000000   0.871E+00       0.000       16.128   0.100E-07
     TRS4 it   2 1.00000000   0.624E+00       0.000       32.256   0.100E-07
     TRS4 it   3 1.00000000   0.452E+00       0.000       32.256   0.100E-07
     TRS4 it   4 1.00000000   0.278E+00       0.000       32.256   0.100E-07
     TRS4 it   5 1.00000000   0.136E+00       0.000       32.256   0.100E-07
     TRS4 it   6 1.00000000   0.416E-01       0.000       32.256   0.100E-07
     TRS4 it   7 1.00000000   0.539E-02       0.000       32.256   0.100E-07
     TRS4 it   8 1.00000000   0.121E-03       0.000       32.256   0.100E-07
     TRS4 it   9 1.00000000   0.654E-07       0.000       32.256   0.100E-07
     Final TRS4 iteration    9 1.00000000   0.654E-07
     Chemical potential (mu):      -0.07560
 
 PAO| energy:  -7.7464859531976629      penalty:   1.6662066954027245E-011
 PAO|CG| warming up with steepest descent
 PAO|CG| beta:    0.0000000000000000     
 PAO| norm of gradient:   7.4254296280170791E-006
 PAO| energy improvement:  -1.7997159318383638E-011
 PAO| step    928                   -7.746485953  0.464E-06  0.265E+00     0.053
 PAO| converged after          928  steps :-)
 PAO| Recalculating energy after mixing.

     Lanczos converged:  T threshold:   0.100E-02
     Est. extremal eigenvalues:    0.249E+01   0.213E+00
     Est. condition number :    0.117E+02

 Order=           3
     NS sqrt iter    1 1.00000000   0.631E+00       0.001       64.512
     NS sqrt iter    2 1.00000000   0.265E+00       0.001      110.592
     NS sqrt iter    3 1.00000000   0.427E-01       0.001      110.592
     NS sqrt iter    4 1.00000000   0.434E-03       0.001      109.824
     NS sqrt iter    5 1.00000000   0.762E-09       0.001       36.864
     Symmetrizing Results
     Final NS sqrt iter    5 1.00000000   0.559E-10

     Est. extremal eigenvalues     -0.93465     1.55966  converged:  T
     TRS4 it   1 1.00000000   0.871E+00       0.000       16.128   0.100E-07
     TRS4 it   2 1.00000000   0.624E+00       0.000       32.256   0.100E-07
     TRS4 it   3 1.00000000   0.452E+00       0.000       32.256   0.100E-07
     TRS4 it   4 1.00000000   0.278E+00       0.000       32.256   0.100E-07
     TRS4 it   5 1.00000000   0.136E+00       0.000       32.256   0.100E-07
     TRS4 it   6 1.00000000   0.416E-01       0.000       32.256   0.100E-07
     TRS4 it   7 1.00000000   0.539E-02       0.000       32.256   0.100E-07
     TRS4 it   8 1.00000000   0.121E-03       0.000       32.256   0.100E-07
     TRS4 it   9 1.00000000   0.654E-07       0.000       32.256   0.100E-07
     Final TRS4 iteration    9 1.00000000   0.654E-07
     Chemical potential (mu):      -0.07560
 
 PAO| energy:  -7.7464859531931562      penalty:   1.6841290331582165E-011
 PAO| Writing restart file.
     Est. extremal eigenvalues     -0.93465     1.55966  converged:  T
     TRS4 it   1 1.00000000   0.871E+00       0.000       16.128   0.100E-07
     TRS4 it   2 1.00000000   0.624E+00       0.000       32.256   0.100E-07
     TRS4 it   3 1.00000000   0.452E+00       0.000       32.256   0.100E-07
     TRS4 it   4 1.00000000   0.278E+00       0.000       32.256   0.100E-07
     TRS4 it   5 1.00000000   0.136E+00       0.000       32.256   0.100E-07
     TRS4 it   6 1.00000000   0.416E-01       0.000       32.256   0.100E-07
     TRS4 it   7 1.00000000   0.539E-02       0.000       32.256   0.100E-07
     TRS4 it   8 1.00000000   0.121E-03       0.000       32.256   0.100E-07
     TRS4 it   9 1.00000000   0.654E-07       0.000       32.256   0.100E-07
     Final TRS4 iteration    9 1.00000000   0.654E-07
     Chemical potential (mu):      -0.07560

 SCF     1       -34.447225286       -34.447225286    1.911633

*********************************************************
 Using MIXING_FRACTION=0.450 to mix KS matrix:  iscf=  2
 KS_nw=0.450*KS + 0.550*KS_old
*********************************************************
     Est. extremal eigenvalues     -0.93465     1.55966  converged:  T
     TRS4 it   1 1.00000000   0.871E+00       0.000       16.128   0.100E-07
     TRS4 it   2 1.00000000   0.624E+00       0.000       32.256   0.100E-07
     TRS4 it   3 1.00000000   0.452E+00       0.000       32.256   0.100E-07
     TRS4 it   4 1.00000000   0.278E+00       0.000       32.256   0.100E-07
     TRS4 it   5 1.00000000   0.136E+00       0.000       32.256   0.100E-07
     TRS4 it   6 1.00000000   0.416E-01       0.000       32.256   0.100E-07
     TRS4 it   7 1.00000000   0.539E-02       0.000       32.256   0.100E-07
     TRS4 it   8 1.00000000   0.121E-03       0.000       32.256   0.100E-07
     TRS4 it   9 1.00000000   0.654E-07       0.000       32.256   0.100E-07
     Final TRS4 iteration    9 1.00000000   0.654E-07
     Chemical potential (mu):      -0.07560

 SCF     2       -34.447225286         0.000000000    1.631607


 SCF run converged in     2 steps.

 PAO| Storing density matrix for ASPC guess in slot:           1

 ENERGY| Total FORCE_EVAL ( QS ) energy [a.u.]:              -34.447225286018359

 -------------------------------------------------------------------------------
 -                                                                             -
 -                                DBCSR STATISTICS                             -
 -                                                                             -
 -------------------------------------------------------------------------------
 COUNTER                                    TOTAL       BLAS       SMM       ACC
 flops     5 x     5 x     4                32000       0.0%    100.0%      0.0%
 flops    13 x     5 x     4                33280       0.0%    100.0%      0.0%
 flops     5 x    13 x     4                33280       0.0%    100.0%      0.0%
 flops    13 x    13 x     4                64896       0.0%    100.0%      0.0%
 flops     4 x     4 x     5              7257600       0.0%    100.0%      0.0%
 flops     5 x     4 x     5              8860800       0.0%    100.0%      0.0%
 flops     4 x     4 x    13              9434880       0.0%    100.0%      0.0%
 flops    13 x     4 x     5             11519040       0.0%    100.0%      0.0%
 flops     5 x     4 x    13             11519040       0.0%    100.0%      0.0%
 flops    13 x     4 x    13             14974752       0.0%    100.0%      0.0%
 flops     5 x     4 x     4             15068640       0.0%    100.0%      0.0%
 flops    13 x     4 x     4             20418112       0.0%    100.0%      0.0%
 flops     4 x     4 x     4            918621568       0.0%    100.0%      0.0%
 flops inhomo. stacks                           0       0.0%      0.0%      0.0%
 flops total                         1.017838E+09       0.0%    100.0%      0.0%
 flops max/rank                      1.017838E+09       0.0%    100.0%      0.0%
 matmuls inhomo. stacks                         0       0.0%      0.0%      0.0%
 matmuls total                            7488052       0.0%    100.0%      0.0%
 number of processed stacks                 60077       0.0%    100.0%      0.0%
 average stack size                                     0.0     124.6       0.0
 marketing flops                     1.657309E+09
 -------------------------------------------------------------------------------
 # multiplications                          49942
 max memory usage/rank             507.244544E+06
 # max total images/rank                        1
 # max 3D layers                                1
 # MPI messages exchanged                       0
 -------------------------------------------------------------------------------

 -------------------------------------------------------------------------------
 -                                                                             -
 -                                DBM STATISTICS                               -
 -                                                                             -
 -------------------------------------------------------------------------------
    M  x    N  x    K                                          COUNT     PERCENT
 -------------------------------------------------------------------------------

 -------------------------------------------------------------------------------
 -                                                                             -
 -                                GRID STATISTICS                              -
 -                                                                             -
 -------------------------------------------------------------------------------
 LP    KERNEL             BACKEND                              COUNT     PERCENT
 2     collocate ortho    REF                                  60880      30.69%
 2     integrate ortho    REF                                  60880      30.69%
 3     collocate ortho    REF                                  31520      15.89%
 3     integrate ortho    REF                                  31520      15.89%
 4     collocate ortho    REF                                   6784       3.42%
 4     integrate ortho    REF                                   6784       3.42%
 0     collocate general  REF                                      6       0.00%
 -------------------------------------------------------------------------------

 MEMORY| Estimated peak process memory [MiB]                                 484

 -------------------------------------------------------------------------------
 -                                                                             -
 -                           R E F E R E N C E S                               -
 -                                                                             -
 -------------------------------------------------------------------------------
 
 CP2K version 2023.1 (Development Version), the CP2K developers group (2023).
 CP2K is freely available from https://www.cp2k.org/ .

 Kuehne,Thomas D.; Iannuzzi,Marcella; Del Ben,Mauro;
 Rybkin,Vladimir V.; Seewald,Patrick; Stein,Frederick; Laino,Teodoro;
 Khaliullin,Rustam Z.; Schuett,Ole; Schiffmann,Florian; Golze,Dorothea;
 Wilhelm,Jan; Chulkov,Sergey; Bani-Hashemian,Mohammad Hossein;
 Weber,Valery; Borstnik,Urban; Taillefumier,Mathieu;
 Jakobovits,Alice Shoshana; Lazzaro,Alfio; Pabst,Hans; Mueller,Tiziano;
 Schade,Robert; Guidon,Manuel; Andermatt,Samuel; Holmberg,Nico;
 Schenter,Gregory K.; Hehn,Anna; Bussy,Augustin; Belleflamme,Fabian;
 Tabacchi,Gloria; Gloess,Andreas; Lass,Michael; Bethune,Iain;
 Mundy,Christopher J.; Plessl,Christian; Watkins,Matt;
 VandeVondele,Joost; Krack,Matthias; Hutter,Juerg. 
 The Journal of Chemical Physics, 152 (19), (2020). 
 CP2K: An electronic structure and molecular dynamics software package -
 Quickstep: Efficient and accurate electronic structure calculations.
 https://doi.org/10.1063/5.0007045

 Schuett, O; VandeVondele, J. 
 Journal of Chemical Theory and Computation, 14, (2018). 
 Machine Learning Adaptive Basis Sets for Efficient Large Scale
 Density Functional Theory Simulation.
 https://doi.org/10.1021/acs.jctc.8b00378

 Schuett, Ole; Messmer, Peter; Hutter, Juerg; VandeVondele, Joost. 
 Electronic Structure Calculations on Graphics Processing Units, John
 Wiley & Sons, Ltd, 173-190 (2016). 
 GPU-Accelerated Sparse Matrix-Matrix Multiplication for
 Linear Scaling Density Functional Theory.
 https://doi.org/10.1002/9781118670712.ch8

 Heinecke, A; Henry, G; Hutchinson, M; Pabst, H. 
 Proceedings of Intl. Supercomputing Conference, 981-991 (2016). 
 LIBXSMM: Accelerating Small Matrix Multiplications
 by Runtime Code Generation.
 https://doi.org/10.1109/SC.2016.83

 Borstnik, U; VandeVondele, J; Weber, V; Hutter, J. 
 PARALLEL COMPUTING, 40 (5-6), 47-58 (2014). 
 Sparse matrix multiplication: The distributed block-compressed sparse
 row library.
 https://doi.org/10.1016/j.parco.2014.03.012

 Hutter, J; Iannuzzi, M; Schiffmann, F; VandeVondele, J. 
 WIREs Comput Mol Sci., 4 (1), 15-25 (2014). 
 CP2K: atomistic simulations of condensed matter systems.
 https://doi.org/10.1002/wcms.1159

 VandeVondele, J; Borstnik, U; Hutter, J. 
 JOURNAL OF CHEMICAL THEORY AND COMPUTATION, 8 (10), 3565-3573 (2012). 
 Linear Scaling Self-Consistent Field Calculations with Millions of Atoms
 in the Condensed Phase.
 https://doi.org/10.1021/ct200897x

 VandeVondele, J; Hutter, J. 
 JOURNAL OF CHEMICAL PHYSICS, 127 (11), 114105 (2007). 
 Gaussian basis sets for accurate calculations on molecular systems in
 gas and condensed phases.
 https://doi.org/10.1063/1.2770708

 Krack, M. 
 THEORETICAL CHEMISTRY ACCOUNTS, 114 (1-3), 145-152 (2005). 
 Pseudopotentials for H to Kr optimized for gradient-corrected
 exchange-correlation functionals.
 https://doi.org/10.1007/s00214-005-0655-y

 VandeVondele, J; Krack, M; Mohamed, F; Parrinello, M; Chassaing, T;
 Hutter, J. COMPUTER PHYSICS COMMUNICATIONS, 167 (2), 103-128 (2005). 
 QUICKSTEP: Fast and accurate density functional calculations using a
 mixed Gaussian and plane waves approach.
 https://doi.org/10.1016/j.cpc.2004.12.014

 Frigo, M; Johnson, SG. 
 PROCEEDINGS OF THE IEEE, 93 (2), 216-231 (2005). 
 The design and implementation of FFTW3.
 https://doi.org/10.1109/JPROC.2004.840301

 Niklasson, AMN; Tymczak, CJ; Challacombe, M. 
 JOURNAL OF CHEMICAL PHYSICS, 118 (19), 8611-8620 (2003). 
 Trace resetting density matrix purification in O(N)
 self-consistent-field theory.
 https://doi.org/10.1063/1.1559913

 Hartwigsen, C; Goedecker, S; Hutter, J. 
 PHYSICAL REVIEW B, 58 (7), 3641-3662 (1998). 
 Relativistic separable dual-space Gaussian pseudopotentials from H to Rn.
 https://doi.org/10.1103/PhysRevB.58.3641

 Lippert, G; Hutter, J; Parrinello, M. 
 MOLECULAR PHYSICS, 92 (3), 477-487 (1997). 
 A hybrid Gaussian and plane wave density functional scheme.
 https://doi.org/10.1080/002689797170220

 Perdew, JP; Burke, K; Ernzerhof, M. 
 PHYSICAL REVIEW LETTERS, 77 (18), 3865-3868 (1996). 
 Generalized gradient approximation made simple.
 https://doi.org/10.1103/PhysRevLett.77.3865

 Goedecker, S; Teter, M; Hutter, J. 
 PHYSICAL REVIEW B, 54 (3), 1703-1710 (1996). 
 Separable dual-space Gaussian pseudopotentials.
 https://doi.org/10.1103/PhysRevB.54.1703


 -------------------------------------------------------------------------------
 -                                                                             -
 -                                T I M I N G                                  -
 -                                                                             -
 -------------------------------------------------------------------------------
 SUBROUTINE                       CALLS  ASD         SELF TIME        TOTAL TIME
                                MAXIMUM       AVERAGE  MAXIMUM  AVERAGE  MAXIMUM
 CP2K                                 1  1.0    0.031    0.031   87.015   87.015
 qs_energies                          1  2.0    0.000    0.000   85.975   85.975
 ls_scf                               1  3.0    0.000    0.000   85.833   85.833
 ls_scf_main                          7  4.0    0.002    0.002   55.884   55.884
 ls_scf_dm_to_ks                     15  5.0    0.001    0.001   55.707   55.707
 qs_ks_update_qs_env                 16  6.0    0.000    0.000   45.797   45.797
 rebuild_ks_matrix                   16  7.0    0.000    0.000   45.796   45.796
 qs_ks_build_kohn_sham_matrix        16  8.0    0.006    0.006   45.796   45.796
 qs_vxc_create                       16  9.0    0.001    0.001   28.161   28.161
 xc_vxc_pw_create                    16 10.0    0.538    0.538   28.161   28.161
 pw_transfer                        305 11.1    0.046    0.046   24.902   24.902
 pao_update                           7  4.0    0.036    0.036   24.522   24.522
 fft_wrap_pw1pw2                    273 12.3    0.007    0.007   24.195   24.195
 fft_wrap_pw1pw2_200                177 13.7    2.463    2.463   23.311   23.311
 pao_calc_energy                    934  5.0    0.023    0.023   22.196   22.196
 dbcsr_multiply_generic           49942  8.4    1.073    1.073   17.325   17.325
 xc_rho_set_and_dset_create          16 11.0    0.652    0.652   16.897   16.897
 xc_pw_derive                        96 12.0    0.003    0.003   16.814   16.814
 qs_rho_update_rho_low               16  6.0    0.000    0.000   15.191   15.191
 calculate_rho_elec                  16  7.0    0.080    0.080   15.190   15.190
 sum_up_and_integrate                16  9.0    0.376    0.376   13.074   13.074
 integrate_v_rspace                  16 10.0    0.002    0.002   12.698   12.698
 pao_dm_trs4                        934  6.0    0.007    0.007   11.403   11.403
 density_matrix_trs4                949  7.0    0.400    0.400   10.922   10.922
 ls_scf_init_matrix_S               941  7.0    0.007    0.007   10.702   10.702
 fft3d_s                            274 14.2   10.525   10.525   10.638   10.638
 pao_rebuild_S                      934  6.0    0.004    0.004   10.599   10.599
 xc_pw_divergence                    16 11.0    0.001    0.001   10.299   10.299
 grid_integrate_task_list            16 11.0    9.877    9.877    9.877    9.877
 matrix_sqrt_Newton_Schulz          941  8.0    0.276    0.276    9.648    9.648
 grid_collocate_task_list            16  8.0    9.525    9.525    9.525    9.525
 multiply_cannon                  49942  9.4    2.961    2.961    6.754    6.754
 xc_functional_eval                  16 12.0    0.000    0.000    6.305    6.305
 pbe_lda_eval                        16 13.0    6.304    6.304    6.304    6.304
 make_m2s                         99884  9.4    0.368    0.368    6.242    6.242
 pw_scatter_s                       144 14.7    5.905    5.905    5.905    5.905
 density_rs2pw                       16  8.0    0.002    0.002    5.586    5.586
 make_images                      99884 10.4    1.563    1.563    5.570    5.570
 pao_guess_initial_P                  1  4.0    0.000    0.000    5.304    5.304
 pao_read_preopt_dm                   1  5.0    0.000    0.000    5.304    5.304
 pw_gather_s                        129 13.8    5.090    5.090    5.090    5.090
 arnoldi_extremal                  1890  8.5    0.020    0.020    3.608    3.608
 arnoldi_normal_ev                 1890  9.5    0.025    0.025    3.588    3.588
 pw_derive                           96 13.0    3.267    3.267    3.267    3.267
 build_subspace                    1890 10.5    0.174    0.174    2.823    2.823
 potential_pw2rs                     16 11.0    0.005    0.005    2.820    2.820
 dbcsr_matrix_vector_mult         45346 11.5    0.319    0.319    2.593    2.593
 pao_calc_AB                       1228  5.8    0.002    0.002    2.325    2.325
 pao_calc_AB_equi                  1228  6.8    0.059    0.059    2.323    2.323
 pw_copy                            192 11.8    2.315    2.315    2.315    2.315
 pao_calc_grad_lnv_wrt_AB           293  7.0    0.020    0.020    2.105    2.105
 dbcsr_finalize                  119384  9.6    0.363    0.363    2.088    2.088
 dbcsr_create_new                383526 10.7    1.060    1.060    1.754    1.754
 -------------------------------------------------------------------------------

 The number of warnings for this run is : 0
 
 -------------------------------------------------------------------------------
  **** **** ******  **  PROGRAM ENDED AT                 2023-02-01 10:49:22.991
 ***** ** ***  *** **   PROGRAM RAN ON                                    moritz
 **    ****   ******    PROGRAM RAN BY                                       ole
 ***** **    ** ** **   PROGRAM PROCESS ID                                148819
  **** **  *******  **  PROGRAM STOPPED IN /home/ole/git/pao_ml_equivar/2H2O_MD/
                                           frame_1875
