       6
 i =      875, time =      175.000, E =       -34.4475058481
  O         2.8947121081        4.6043876112        3.2342730744
  H         2.4752038917        3.7360638537        3.2229898167
  H         2.8966196882        4.7900041421        2.2761205332
  O         5.4881083559        4.4351237463        4.9468021204
  H         5.9713409888        3.5941648374        4.8850585530
  H         4.6242025512        4.2775528760        4.4756256742