 DBCSR| CPU Multiplication driver                                           XSMM (U)
 DBCSR| Multrec recursion limit                                              512 (U)
 DBCSR| Multiplication stack size                                           1000 (D)
 DBCSR| Maximum elements for images                                    UNLIMITED (U)
 DBCSR| Multiplicative factor virtual images                                   1 (U)
 DBCSR| Use multiplication densification                                       T (D)
 DBCSR| Multiplication size stacks                                             3 (U)
 DBCSR| Use memory pool for CPU allocation                                     F (U)
 DBCSR| OMP: Current number of threads                                         1
 DBCSR| OMP: Max number of threads                                             1
 DBCSR| Split modifier for TAS multiplication algorithm                  1.0E+00 (U)


  **** **** ******  **  PROGRAM STARTED AT               2023-02-01 10:47:55.525
 ***** ** ***  *** **   PROGRAM STARTED ON                                moritz
 **    ****   ******    PROGRAM STARTED BY                                   ole
 ***** **    ** ** **   PROGRAM PROCESS ID                                148765
  **** **  *******  **  PROGRAM STARTED IN /home/ole/git/pao_ml_equivar/2H2O_MD/
                                           frame_1175

 CP2K| version string:                 CP2K version 2023.1 (Development Version)
 CP2K| source code revision number:                                  git:03b4147
 CP2K| cp2kflags: omp libint fftw3 libxc quip xsmm spglib libvori libbqb libtorc
 CP2K|            h
 CP2K| is freely available from                            https://www.cp2k.org/
 CP2K| Program compiled at                           Mi 01 Feb 2023 10:36:52 CET
 CP2K| Program compiled on                                                moritz
 CP2K| Program compiled for                                                local
 CP2K| Data directory path                               /home/ole/git/cp2k/data
 CP2K| Input file name                                            2H2O_pao44.inp

 GLOBAL| Force Environment number                                              1
 GLOBAL| Basis set file name                                        BASIS_MOLOPT
 GLOBAL| Potential file name                                      GTH_POTENTIALS
 GLOBAL| MM Potential file name                                     MM_POTENTIAL
 GLOBAL| Coordinate file name                                         coords.xyz
 GLOBAL| Method name                                                        CP2K
 GLOBAL| Project name                                                 2H2O_pao44
 GLOBAL| Run type                                                         ENERGY
 GLOBAL| FFT library                                                       FFTW3
 GLOBAL| Diagonalization library                                       ScaLAPACK
 GLOBAL| DGEMM library                                                      BLAS
 GLOBAL| Orthonormality check for eigenvectors                          DISABLED
 GLOBAL| Matrix multiplication library                                 ScaLAPACK
 GLOBAL| All-to-all communication in single precision                          F
 GLOBAL| FFTs using library dependent lengths                                  F
 GLOBAL| Grid backend                                                       AUTO
 GLOBAL| Global print level                                                  LOW
 GLOBAL| MPI I/O enabled                                                       T
 GLOBAL| Total number of message passing processes                             1
 GLOBAL| Number of threads for this process                                    1
 GLOBAL| This output is from process                                           0
 GLOBAL| Stack size for threads created by OpenMP (OMP_STACKSIZE)        default
 GLOBAL| CPU model name           AMD Ryzen Threadripper 3970X 32-Core Processor
 GLOBAL| CPUID                                                              1002
 GLOBAL| Compiled for CPUID                                                    0

 *** HINT in environment.F:884 :: The compiler target flags (generic) used ***
 *** to build this binary cannot exploit all extensions of this CPU model  ***
 *** (x86_avx2). Consider compiler target flags as part of FCFLAGS and     ***
 *** CFLAGS (ARCH file).                                                   ***


 MEMORY| system memory details [Kb]
 MEMORY|                        rank 0           min           max       average
 MEMORY| MemTotal            131773860     131773860     131773860     131773860
 MEMORY| MemFree             112830140     112830140     112830140     112830140
 MEMORY| Buffers                302624        302624        302624        302624
 MEMORY| Cached                7056636       7056636       7056636       7056636
 MEMORY| Slab                   780228        780228        780228        780228
 MEMORY| SReclaimable           332704        332704        332704        332704
 MEMORY| MemLikelyFree       120522104     120522104     120522104     120522104


 GENERATE|  Preliminary Number of Bonds generated:                             0
 GENERATE|  Achieved consistency in connectivity generation.

 *******************************************************************************
 *******************************************************************************
 **                                                                           **
 **     #####                         ##              ##                      **
 **    ##   ##            ##          ##              ##                      **
 **   ##     ##                       ##            ######                    **
 **   ##     ##  ##   ##  ##   #####  ##  ##   ####   ##    #####    #####    **
 **   ##     ##  ##   ##  ##  ##      ## ##   ##      ##   ##   ##  ##   ##   **
 **   ##  ## ##  ##   ##  ##  ##      ####     ###    ##   ######   ######    **
 **    ##  ###   ##   ##  ##  ##      ## ##      ##   ##   ##       ##        **
 **     #######   #####   ##   #####  ##  ##  ####    ##    #####   ##        **
 **           ##                                                    ##        **
 **                                                                           **
 **                                                ... make the atoms dance   **
 **                                                                           **
 **            Copyright (C) by CP2K developers group (2000-2023)             **
 **                      J. Chem. Phys. 152, 194103 (2020)                    **
 **                                                                           **
 *******************************************************************************


 TOTAL NUMBERS AND MAXIMUM NUMBERS

  Total number of            - Atomic kinds:                                   2
                             - Atoms:                                          6
                             - Shell sets:                                     6
                             - Shells:                                        22
                             - Primitive Cartesian functions:                 42
                             - Cartesian basis functions:                     48
                             - Spherical basis functions:                     46

  Maximum angular momentum of- Orbital basis functions:                        2
                             - Local part of the GTH pseudopotential:          2
                             - Non-local part of the GTH pseudopotential:      0

 ------------------------------ Linear scaling SCF -----------------------------
 eps_scf:                                                              0.100E-07
 eps_filter:                                                           0.100E-07
 mixing_fraction:                                                      0.450E+00
 max_scf:                                                                     25
 fixed chemical potential (mu)                                                 F
 has unit metric:                                                              F
 Computing inv(S):                                                             T
 Computing sqrt(S):                                                            T
 Computing S preconditioner                                                    F
 S sqrt method:                                                     NEWTONSCHULZ
 S sqrt order:                                                                 3
 Extrapolation order:                                                          1
 Use single precision matrices                                                 F
 S preconditioner type                                                      NONE
 Polarized Atomic Orbitals (PAO)                                               T
 Purification method                                   Trace resetting 4th order
 Cluster type                                                             ATOMIC
 Computing Chebyshev                                                       FALSE
 Using PAO                                                                     T
 -------------------------------------------------------------------------------

 
 PAO|                                  EPS_PAO                           0.5E-06
 PAO|                                  MIXING                            0.5E+00
 PAO|                                  MAX_PAO                              1500
 PAO|                                  MAX_CYCLES                           1000
 PAO|                                  PARAMETERIZATION              EQUIVARIANT
 PAO|                                  PRECONDITION                            F
 PAO|                                  REGULARIZATION                    0.0E+00
 PAO|                                  EPS_PGF                           0.1E-09
 PAO|                                  PENALTY_DISTANCE                  0.1E+00
 PAO|                                  PENALTY_STRENGTH                  0.5E-02
 PAO|                                  LINPOT_PRECONDITION_DELTA         0.0E+00
 PAO|                                  LINPOT_INITGUESS_DELT             0.0E+00
 PAO|                                  LINPOT_REGULARIZATION_DELTA       0.0E+00
 PAO|                                  LINPOT_REGULARIZATION_STRENGTH    0.0E+00
 PAO|                                  OPTIMIZER                              CG
 PAO|                                  CG_INIT_STEPS                           2
 PAO|                                  CG_RESET_LIMIT                    0.1E+00
 PAO|                                  CHECK_UNITARY_TOL                -0.1E+01
 PAO|                                  CHECK_GRADIENT_TOL               -0.1E+01
 PAO|                                  NUM_GRADIENT_ORDER                      2
 PAO|                                  NUM_GRADIENT_EPS                  0.1E-07
 PAO|                                  PRINT%RESTART%WRITE_CYCLES            100
 PAO|                                  RESTART_FILE 
 PAO|                                  PREOPT_DM_FILE 2H2O_ref_LS_DM_SPIN_1_RESTART.dm
 PAO|                                  MACHINE_LEARNING%METHOD       GAUSSIAN_PR
 PAO|                                  MACHINE_LEARNING%PRIOR               ZERO
 PAO|                                  MACHINE_LEARNING%DESCRIPTOR     POTENTIAL
 PAO|                                  MACHINE_LEARNING%TOLERANCE        0.1E-01
 PAO|                                  MACHINE_LEARNING%GP_NOISE_VAR     0.1E+00
 PAO|                                  MACHINE_LEARNING%GP_SCALE         0.5E-01
 

 Calculating atomic Fock matrix for atomic kind: O

 Electronic structure
    Total number of core electrons                                          2.00
    Total number of valence electrons                                       6.00
    Total number of electrons                                               8.00
    Multiplicity                                                   not specified
    S   [  2.00] 2.00
    P      4.00


 *******************************************************************************
                  Iteration          Convergence                     Energy [au]
 *******************************************************************************
                          1        0.708315                     -15.576645311500
                          2        0.608879                     -15.587933561584
                          3        0.102828E-01                 -15.656849565404
                          4        0.113889E-02                 -15.656866888140
                          5        0.434197E-03                 -15.656867072159
                          6        0.263771E-03                 -15.656867091904
                          7        0.478536E-06                 -15.656867103452

 Energy components [Hartree]           Total Energy ::          -15.656867103452
                                        Band Energy ::           -3.000198112285
                                     Kinetic Energy ::           11.759971203220
                                   Potential Energy ::          -27.416838306672
                                      Virial (-V/T) ::            2.331369510426
                                        Core Energy ::          -26.140716385623
                                          XC Energy ::           -3.154051012914
                                     Coulomb Energy ::           13.637900295084
                       Total Pseudopotential Energy ::          -37.935781716540
                       Local Pseudopotential Energy ::          -39.218907440693
                    Nonlocal Pseudopotential Energy ::            1.283125724153
                                        Confinement ::            0.350941276976

 Orbital energies  State     L     Occupation   Energy[a.u.]          Energy[eV]

                       1     0          2.000      -0.864471          -23.523463

                       1     1          4.000      -0.317814           -8.648154


 Total Electron Density at R=0:                                         0.000068

 Calculating atomic Fock matrix for atomic kind: H

 Electronic structure
    Total number of core electrons                                          0.00
    Total number of valence electrons                                       1.00
    Total number of electrons                                               1.00
    Multiplicity                                                   not specified
    S      1.00


 *******************************************************************************
                  Iteration          Convergence                     Energy [au]
 *******************************************************************************
                          1        0.437545E-02                  -0.424159432110
                          2        0.531356E-03                  -0.424178438213
                          3        0.259176E-06                  -0.424178722480

 Energy components [Hartree]           Total Energy ::           -0.424178722480
                                        Band Energy ::           -0.199015229016
                                     Kinetic Energy ::            0.464007633961
                                   Potential Energy ::           -0.888186356441
                                      Virial (-V/T) ::            1.914163240935
                                        Core Energy ::           -0.479160803564
                                          XC Energy ::           -0.244352904054
                                     Coulomb Energy ::            0.299334985138
                       Total Pseudopotential Energy ::           -0.962295316385
                       Local Pseudopotential Energy ::           -0.962295316385
                    Nonlocal Pseudopotential Energy ::            0.000000000000
                                        Confinement ::            0.191268788606

 Orbital energies  State     L     Occupation   Energy[a.u.]          Energy[eV]

                       1     0          1.000      -0.199015           -5.415480


 Total Electron Density at R=0:                                         0.242907
 PAO| Made initial guess for matrix_X with norm:   4.8989794855663558     

     Lanczos converged:  T threshold:   0.100E-02
     Est. extremal eigenvalues:    0.312E+01   0.114E+00
     Est. condition number :    0.273E+02

 Order=           3
     NS sqrt iter    1 1.00000000   0.763E+00       0.001       55.173
     NS sqrt iter    2 1.00000000   0.409E+00       0.001      107.390
     NS sqrt iter    3 1.00000000   0.153E+00       0.001      110.592
     NS sqrt iter    4 1.00000000   0.161E-01       0.001      108.604
     NS sqrt iter    5 1.00000000   0.284E-04       0.001       83.968
     Symmetrizing Results
     Final NS sqrt iter    5 1.00000000   0.133E-08

 PAO| Read restart DM 2H2O_ref_LS_DM_SPIN_1_RESTART.dm with checksum:    56.771946431002235     
 PAO| Quickstep energy from restart density:  -34.446736245976027     
 PAO| ======================= Iteration:         1 =============================

     Lanczos converged:  T threshold:   0.100E-02
     Est. extremal eigenvalues:    0.312E+01   0.114E+00
     Est. condition number :    0.273E+02

 Order=           3
     NS sqrt iter    1 1.00000000   0.763E+00       0.001       58.230
     NS sqrt iter    2 1.00000000   0.409E+00       0.001       99.431
     NS sqrt iter    3 1.00000000   0.153E+00       0.001       99.267
     NS sqrt iter    4 1.00000000   0.161E-01       0.001      101.591
     NS sqrt iter    5 1.00000000   0.284E-04       0.001       78.898
     Symmetrizing Results
     Final NS sqrt iter    5 1.00000000   0.133E-08

     Est. extremal eigenvalues     -0.89868     1.76360  converged:  T
     TRS4 it   1 1.00000000   0.870E+00       0.000       16.128   0.100E-07
     TRS4 it   2 1.00000000   0.669E+00       0.001       32.256   0.100E-07
     TRS4 it   3 1.00000000   0.485E+00       0.001       32.256   0.100E-07
     TRS4 it   4 1.00000000   0.302E+00       0.001       32.256   0.100E-07
     TRS4 it   5 1.00000000   0.146E+00       0.001       32.256   0.100E-07
     TRS4 it   6 1.00000000   0.413E-01       0.001       32.256   0.100E-07
     TRS4 it   7 1.00000000   0.425E-02       0.001       32.256   0.100E-07
     TRS4 it   8 1.00000000   0.577E-04       0.001       32.256   0.100E-07
     TRS4 it   9 1.00000000   0.121E-07       0.001       32.256   0.100E-07
     Final TRS4 iteration    9 1.00000000   0.121E-07
     Chemical potential (mu):      -0.06862
 
 PAO| energy:  -7.5657002896733019      penalty:   2.3419308123748788E-033
 PAO|CG| warming up with steepest descent
 PAO|CG| beta:    0.0000000000000000     
 PAO| norm of gradient:  0.79121583055355138     
 PAO|LS| adapt:  T F F
 PAO|LS| adapt: scan_steps:    0.0000000000000000        0.0000000000000000        0.0000000000000000     
 PAO|LS| adapt: energies:   -7.5657002896733019        0.0000000000000000        0.0000000000000000     
 PAO| ======================= Iteration:         2 =============================

     Lanczos converged:  T threshold:   0.100E-02
     Est. extremal eigenvalues:    0.306E+01   0.129E+00
     Est. condition number :    0.238E+02

 Order=           3
     NS sqrt iter    1 1.00000000   0.753E+00       0.001       57.471
     NS sqrt iter    2 1.00000000   0.396E+00       0.001       98.193
     NS sqrt iter    3 1.00000000   0.137E+00       0.001       97.374
     NS sqrt iter    4 1.00000000   0.108E-01       0.001       97.063
     NS sqrt iter    5 1.00000000   0.825E-05       0.001       76.121
     Symmetrizing Results
     Final NS sqrt iter    5 1.00000000   0.111E-09

     Est. extremal eigenvalues     -0.90229     1.70899  converged:  T
     TRS4 it   1 1.00000000   0.865E+00       0.000       16.128   0.100E-07
     TRS4 it   2 1.00000000   0.649E+00       0.001       32.256   0.100E-07
     TRS4 it   3 1.00000000   0.465E+00       0.001       32.256   0.100E-07
     TRS4 it   4 1.00000000   0.279E+00       0.001       32.256   0.100E-07
     TRS4 it   5 1.00000000   0.125E+00       0.001       32.256   0.100E-07
     TRS4 it   6 1.00000000   0.301E-01       0.001       32.256   0.100E-07
     TRS4 it   7 1.00000000   0.227E-02       0.001       32.256   0.100E-07
     TRS4 it   8 1.00000000   0.166E-04       0.001       32.256   0.100E-07
     TRS4 it   9 1.00000000   0.101E-08       0.001       32.256   0.100E-07
     Final TRS4 iteration    9 1.00000000   0.101E-08
     Chemical potential (mu):      -0.05666
 
 PAO| energy:  -7.6221314033190737      penalty:   2.3313688848471751E-008
 PAO|LS| adapt:  T T F
 PAO|LS| adapt: scan_steps:    0.0000000000000000       0.10000000000000001        0.0000000000000000     
 PAO|LS| adapt: energies:   -7.5657002896733019       -7.6221314033190737        0.0000000000000000     
 PAO| ======================= Iteration:         3 =============================

     Lanczos converged:  T threshold:   0.100E-02
     Est. extremal eigenvalues:    0.300E+01   0.142E+00
     Est. condition number :    0.211E+02

 Order=           3
     NS sqrt iter    1 1.00000000   0.742E+00       0.001       58.351
     NS sqrt iter    2 1.00000000   0.382E+00       0.001       98.247
     NS sqrt iter    3 1.00000000   0.122E+00       0.001       97.350
     NS sqrt iter    4 1.00000000   0.730E-02       0.001       98.819
     NS sqrt iter    5 1.00000000   0.248E-05       0.001       75.588
     Symmetrizing Results
     Final NS sqrt iter    5 1.00000000   0.968E-11

     Est. extremal eigenvalues     -0.90563     1.66933  converged:  T
     TRS4 it   1 1.00000000   0.861E+00       0.000       16.128   0.100E-07
     TRS4 it   2 1.00000000   0.632E+00       0.001       32.256   0.100E-07
     TRS4 it   3 1.00000000   0.447E+00       0.001       32.256   0.100E-07
     TRS4 it   4 1.00000000   0.257E+00       0.001       32.256   0.100E-07
     TRS4 it   5 1.00000000   0.105E+00       0.001       32.256   0.100E-07
     TRS4 it   6 1.00000000   0.212E-01       0.001       32.256   0.100E-07
     TRS4 it   7 1.00000000   0.111E-02       0.001       32.256   0.100E-07
     TRS4 it   8 1.00000000   0.400E-05       0.001       32.256   0.100E-07
     TRS4 it   9 1.00000000   0.598E-10       0.001       32.256   0.100E-07
     Final TRS4 iteration    9 1.00000000   0.598E-10
     Chemical potential (mu):      -0.04348
 
 PAO| energy:  -7.6655748247554216      penalty:   3.7301902778357917E-007
 PAO|LS| adapt:  T T F
 PAO|LS| adapt: scan_steps:    0.0000000000000000       0.20000000000000001        0.0000000000000000     
 PAO|LS| adapt: energies:   -7.5657002896733019       -7.6655748247554216        0.0000000000000000     
 PAO| ======================= Iteration:         4 =============================

     Lanczos converged:  T threshold:   0.100E-02
     Est. extremal eigenvalues:    0.285E+01   0.163E+00
     Est. condition number :    0.175E+02

 Order=           3
     NS sqrt iter    1 1.00000000   0.716E+00       0.001       57.494
     NS sqrt iter    2 1.00000000   0.352E+00       0.001       98.286
     NS sqrt iter    3 1.00000000   0.950E-01       0.001      101.417
     NS sqrt iter    4 1.00000000   0.351E-02       0.001       98.001
     NS sqrt iter    5 1.00000000   0.306E-06       0.001       68.306
     Symmetrizing Results
     Final NS sqrt iter    5 1.00000000   0.703E-09

     Est. extremal eigenvalues     -0.91070     1.62122  converged:  T
     TRS4 it   1 1.00000000   0.859E+00       0.000       16.128   0.100E-07
     TRS4 it   2 1.00000000   0.607E+00       0.001       32.256   0.100E-07
     TRS4 it   3 1.00000000   0.415E+00       0.001       32.256   0.100E-07
     TRS4 it   4 1.00000000   0.217E+00       0.001       32.256   0.100E-07
     TRS4 it   5 1.00000000   0.736E-01       0.001       32.256   0.100E-07
     TRS4 it   6 1.00000000   0.987E-02       0.001       32.256   0.100E-07
     TRS4 it   7 1.00000000   0.221E-03       0.001       32.256   0.100E-07
     TRS4 it   8 1.00000000   0.154E-06       0.001       32.256   0.100E-07
     TRS4 it   9 1.00000000   0.926E-13       0.001       32.256   0.100E-07
     Final TRS4 iteration    9 1.00000000   0.926E-13
     Chemical potential (mu):      -0.01425
 
 PAO| energy:  -7.7119784583154596      penalty:   5.9683044942020035E-006
 PAO|LS| Need extra step
 PAO|LS| adapt:  T T F
 PAO|LS| adapt: scan_steps:    0.0000000000000000       0.40000000000000002        0.0000000000000000     
 PAO|LS| adapt: energies:   -7.5657002896733019       -7.7119784583154596        0.0000000000000000     
 PAO| ======================= Iteration:         5 =============================

     Lanczos converged:  T threshold:   0.100E-02
     Est. extremal eigenvalues:    0.255E+01   0.190E+00
     Est. condition number :    0.134E+02

 Order=           3
     NS sqrt iter    1 1.00000000   0.663E+00       0.001       59.034
     NS sqrt iter    2 1.00000000   0.294E+00       0.001       98.764
     NS sqrt iter    3 1.00000000   0.582E-01       0.001       99.295
     NS sqrt iter    4 1.00000000   0.958E-03       0.001       97.816
     NS sqrt iter    5 1.00000000   0.694E-08       0.001       38.917
     Symmetrizing Results
     Final NS sqrt iter    5 1.00000000   0.503E-08

     Est. extremal eigenvalues     -0.91125     1.58300  converged:  T
     TRS4 it   1 1.00000000   0.863E+00       0.000       16.128   0.100E-07
     TRS4 it   2 1.00000000   0.577E+00       0.001       32.256   0.100E-07
     TRS4 it   3 1.00000000   0.369E+00       0.001       32.256   0.100E-07
     TRS4 it   4 1.00000000   0.163E+00       0.001       32.256   0.100E-07
     TRS4 it   5 1.00000000   0.379E-01       0.001       32.256   0.100E-07
     TRS4 it   6 1.00000000   0.232E-02       0.001       32.256   0.100E-07
     TRS4 it   7 1.00000000   0.102E-04       0.001       32.256   0.100E-07
     TRS4 it   8 1.00000000   0.253E-09       0.001       32.256   0.100E-07
     Final TRS4 iteration    8 1.00000000   0.253E-09
     Chemical potential (mu):       0.03571
 
 PAO| energy:  -7.6499118670619035      penalty:   9.5492872304553392E-005
 PAO|LS| Need extra step
 PAO|LS| adapt:  T T T
 PAO|LS| adapt: scan_steps:    0.0000000000000000       0.40000000000000002       0.80000000000000004     
 PAO|LS| adapt: energies:   -7.5657002896733019       -7.7119784583154596       -7.6499118670619035     
 PAO|LS| adapt: suggested step_size:   0.48083868049357575     
 PAO|LS| adapt: predicted energy  -7.7162331788144449     
 PAO| ======================= Iteration:         6 =============================

     Lanczos converged:  T threshold:   0.100E-02
     Est. extremal eigenvalues:    0.279E+01   0.170E+00
     Est. condition number :    0.165E+02

 Order=           3
     NS sqrt iter    1 1.00000000   0.705E+00       0.001       57.709
     NS sqrt iter    2 1.00000000   0.340E+00       0.001       98.137
     NS sqrt iter    3 1.00000000   0.859E-01       0.001       97.834
     NS sqrt iter    4 1.00000000   0.266E-02       0.001       97.207
     NS sqrt iter    5 1.00000000   0.146E-06       0.003       23.172
     Symmetrizing Results
     Final NS sqrt iter    5 1.00000000   0.961E-09

     Est. extremal eigenvalues     -0.91193     1.60939  converged:  T
     TRS4 it   1 1.00000000   0.859E+00       0.000       16.128   0.100E-07
     TRS4 it   2 1.00000000   0.599E+00       0.001       32.256   0.100E-07
     TRS4 it   3 1.00000000   0.404E+00       0.001       32.256   0.100E-07
     TRS4 it   4 1.00000000   0.204E+00       0.001       32.256   0.100E-07
     TRS4 it   5 1.00000000   0.637E-01       0.001       32.256   0.100E-07
     TRS4 it   6 1.00000000   0.718E-02       0.001       32.256   0.100E-07
     TRS4 it   7 1.00000000   0.111E-03       0.001       32.256   0.100E-07
     TRS4 it   8 1.00000000   0.366E-07       0.001       32.256   0.100E-07
     Final TRS4 iteration    8 1.00000000   0.366E-07
     Chemical potential (mu):      -0.00004
 
 PAO| energy:  -7.7155335798578148      penalty:   1.2462598223293831E-005
 PAO|CG| warming up with steepest descent
 PAO|CG| beta:    0.0000000000000000     
 PAO| norm of gradient:  0.41952835885611661     
 PAO| energy improvement: -0.14983329018451297     
 PAO| step      6                   -7.715533580  0.262E-01  0.481E+00     0.095
 PAO|LS| adapt:  T F F
 PAO|LS| adapt: scan_steps:    0.0000000000000000        0.0000000000000000        0.0000000000000000     
 PAO|LS| adapt: energies:   -7.7155335798578148        0.0000000000000000        0.0000000000000000     
 PAO| ======================= Iteration:         7 =============================

     Lanczos converged:  T threshold:   0.100E-02
     Est. extremal eigenvalues:    0.272E+01   0.184E+00
     Est. condition number :    0.148E+02

 Order=           3
     NS sqrt iter    1 1.00000000   0.690E+00       0.001       58.719
     NS sqrt iter    2 1.00000000   0.320E+00       0.001       96.529
     NS sqrt iter    3 1.00000000   0.715E-01       0.001       98.926
     NS sqrt iter    4 1.00000000   0.160E-02       0.001       97.773
     NS sqrt iter    5 1.00000000   0.347E-07       0.001       58.629
     Symmetrizing Results
     Final NS sqrt iter    5 1.00000000   0.436E-09

     Est. extremal eigenvalues     -0.91364     1.61406  converged:  T
     TRS4 it   1 1.00000000   0.864E+00       0.000       16.128   0.100E-07
     TRS4 it   2 1.00000000   0.602E+00       0.001       32.256   0.100E-07
     TRS4 it   3 1.00000000   0.408E+00       0.001       32.256   0.100E-07
     TRS4 it   4 1.00000000   0.208E+00       0.001       32.256   0.100E-07
     TRS4 it   5 1.00000000   0.663E-01       0.001       32.256   0.100E-07
     TRS4 it   6 1.00000000   0.765E-02       0.001       32.256   0.100E-07
     TRS4 it   7 1.00000000   0.121E-03       0.001       32.256   0.100E-07
     TRS4 it   8 1.00000000   0.414E-07       0.001       32.256   0.100E-07
     Final TRS4 iteration    8 1.00000000   0.414E-07
     Chemical potential (mu):      -0.00039
 
 PAO| energy:  -7.7131423913077652      penalty:   1.8744775610115943E-005
 PAO|LS| adapt:  T F T
 PAO|LS| adapt: scan_steps:    0.0000000000000000        0.0000000000000000       0.48083868049357575     
 PAO|LS| adapt: energies:   -7.7155335798578148        0.0000000000000000       -7.7131423913077652     
 PAO| ======================= Iteration:         8 =============================

     Lanczos converged:  T threshold:   0.100E-02
     Est. extremal eigenvalues:    0.276E+01   0.177E+00
     Est. condition number :    0.156E+02

 Order=           3
     NS sqrt iter    1 1.00000000   0.698E+00       0.001       58.636
     NS sqrt iter    2 1.00000000   0.330E+00       0.001       99.811
     NS sqrt iter    3 1.00000000   0.785E-01       0.001       98.768
     NS sqrt iter    4 1.00000000   0.208E-02       0.001       98.316
     NS sqrt iter    5 1.00000000   0.730E-07       0.001       64.200
     Symmetrizing Results
     Final NS sqrt iter    5 1.00000000   0.512E-09

     Est. extremal eigenvalues     -0.91376     1.61129  converged:  T
     TRS4 it   1 1.00000000   0.861E+00       0.000       16.128   0.100E-07
     TRS4 it   2 1.00000000   0.600E+00       0.001       32.256   0.100E-07
     TRS4 it   3 1.00000000   0.406E+00       0.001       32.256   0.100E-07
     TRS4 it   4 1.00000000   0.206E+00       0.001       32.256   0.100E-07
     TRS4 it   5 1.00000000   0.650E-01       0.001       32.256   0.100E-07
     TRS4 it   6 1.00000000   0.752E-02       0.001       32.256   0.100E-07
     TRS4 it   7 1.00000000   0.120E-03       0.001       32.256   0.100E-07
     TRS4 it   8 1.00000000   0.424E-07       0.001       32.256   0.100E-07
     Final TRS4 iteration    8 1.00000000   0.424E-07
     Chemical potential (mu):      -0.00073
 
 PAO| energy:  -7.7358676342166994      penalty:   1.3507571732802848E-005
 PAO|LS| adapt:  T T T
 PAO|LS| adapt: scan_steps:    0.0000000000000000       0.24041934024678788       0.48083868049357575     
 PAO|LS| adapt: energies:   -7.7155335798578148       -7.7358676342166994       -7.7131423913077652     
 PAO|LS| adapt: suggested step_size:   0.23374380197647043     
 PAO|LS| adapt: predicted energy  -7.7358842327884494     
 PAO| ======================= Iteration:         9 =============================

     Lanczos converged:  T threshold:   0.100E-02
     Est. extremal eigenvalues:    0.276E+01   0.177E+00
     Est. condition number :    0.156E+02

 Order=           3
     NS sqrt iter    1 1.00000000   0.698E+00       0.001       58.467
     NS sqrt iter    2 1.00000000   0.330E+00       0.001       98.404
     NS sqrt iter    3 1.00000000   0.787E-01       0.001       99.595
     NS sqrt iter    4 1.00000000   0.209E-02       0.001       98.602
     NS sqrt iter    5 1.00000000   0.744E-07       0.001       65.307
     Symmetrizing Results
     Final NS sqrt iter    5 1.00000000   0.522E-09

     Est. extremal eigenvalues     -0.91374     1.61123  converged:  T
     TRS4 it   1 1.00000000   0.861E+00       0.000       16.128   0.100E-07
     TRS4 it   2 1.00000000   0.600E+00       0.001       32.256   0.100E-07
     TRS4 it   3 1.00000000   0.406E+00       0.001       32.256   0.100E-07
     TRS4 it   4 1.00000000   0.206E+00       0.001       32.256   0.100E-07
     TRS4 it   5 1.00000000   0.650E-01       0.001       32.256   0.100E-07
     TRS4 it   6 1.00000000   0.751E-02       0.001       32.256   0.100E-07
     TRS4 it   7 1.00000000   0.120E-03       0.001       32.256   0.100E-07
     TRS4 it   8 1.00000000   0.423E-07       0.001       32.256   0.100E-07
     Final TRS4 iteration    8 1.00000000   0.423E-07
     Chemical potential (mu):      -0.00072
 
 PAO| energy:  -7.7358939156318742      penalty:   1.3436890634822406E-005
 PAO|CG| trace_G_new    3.8736450156058456E-002
 PAO|CG| trace_G_prev   0.17600404388450655     
 PAO|CG| trace_G_mix   -1.4343687095626921E-003
 PAO|CG| trace_D   0.17600404388450655     
 PAO|CG| trace_D_Gnew   1.4343687095626921E-003
 PAO|CG| beta:   0.22823804487118005     
 PAO| norm of gradient:  0.19681577720309532     
 PAO| energy improvement:  -2.0360335774059379E-002
 PAO| step      9                   -7.735893916  0.123E-01  0.234E+00     0.056
 PAO|LS| adapt:  T F F
 PAO|LS| adapt: scan_steps:    0.0000000000000000        0.0000000000000000        0.0000000000000000     
 PAO|LS| adapt: energies:   -7.7358939156318742        0.0000000000000000        0.0000000000000000     
 PAO| ======================= Iteration:        10 =============================

     Lanczos converged:  T threshold:   0.100E-02
     Est. extremal eigenvalues:    0.272E+01   0.182E+00
     Est. condition number :    0.149E+02

 Order=           3
     NS sqrt iter    1 1.00000000   0.691E+00       0.001       58.625
     NS sqrt iter    2 1.00000000   0.322E+00       0.001       97.541
     NS sqrt iter    3 1.00000000   0.733E-01       0.001       97.348
     NS sqrt iter    4 1.00000000   0.171E-02       0.001       98.697
     NS sqrt iter    5 1.00000000   0.412E-07       0.001       60.031
     Symmetrizing Results
     Final NS sqrt iter    5 1.00000000   0.554E-09

     Est. extremal eigenvalues     -0.91464     1.61637  converged:  T
     TRS4 it   1 1.00000000   0.863E+00       0.000       16.128   0.100E-07
     TRS4 it   2 1.00000000   0.601E+00       0.001       32.256   0.100E-07
     TRS4 it   3 1.00000000   0.406E+00       0.001       32.256   0.100E-07
     TRS4 it   4 1.00000000   0.205E+00       0.001       32.256   0.100E-07
     TRS4 it   5 1.00000000   0.640E-01       0.001       32.256   0.100E-07
     TRS4 it   6 1.00000000   0.722E-02       0.001       32.256   0.100E-07
     TRS4 it   7 1.00000000   0.109E-03       0.001       32.256   0.100E-07
     TRS4 it   8 1.00000000   0.335E-07       0.001       32.256   0.100E-07
     Final TRS4 iteration    8 1.00000000   0.335E-07
     Chemical potential (mu):       0.00209
 
 PAO| energy:  -7.7411808880877793      penalty:   1.4051325047568339E-005
 PAO|LS| adapt:  T T F
 PAO|LS| adapt: scan_steps:    0.0000000000000000       0.23374380197647043        0.0000000000000000     
 PAO|LS| adapt: energies:   -7.7358939156318742       -7.7411808880877793        0.0000000000000000     
 PAO| ======================= Iteration:        11 =============================

     Lanczos converged:  T threshold:   0.100E-02
     Est. extremal eigenvalues:    0.269E+01   0.188E+00
     Est. condition number :    0.143E+02

 Order=           3
     NS sqrt iter    1 1.00000000   0.683E+00       0.001       58.132
     NS sqrt iter    2 1.00000000   0.314E+00       0.001       97.683
     NS sqrt iter    3 1.00000000   0.682E-01       0.001       97.814
     NS sqrt iter    4 1.00000000   0.138E-02       0.001       96.462
     NS sqrt iter    5 1.00000000   0.216E-07       0.001       49.415
     Symmetrizing Results
     Final NS sqrt iter    5 1.00000000   0.461E-08

     Est. extremal eigenvalues     -0.91438     1.62286  converged:  T
     TRS4 it   1 1.00000000   0.865E+00       0.000       16.128   0.100E-07
     TRS4 it   2 1.00000000   0.603E+00       0.001       32.256   0.100E-07
     TRS4 it   3 1.00000000   0.406E+00       0.001       32.256   0.100E-07
     TRS4 it   4 1.00000000   0.204E+00       0.001       32.256   0.100E-07
     TRS4 it   5 1.00000000   0.631E-01       0.001       32.256   0.100E-07
     TRS4 it   6 1.00000000   0.696E-02       0.001       32.256   0.100E-07
     TRS4 it   7 1.00000000   0.986E-04       0.001       32.256   0.100E-07
     TRS4 it   8 1.00000000   0.265E-07       0.001       32.256   0.100E-07
     Final TRS4 iteration    8 1.00000000   0.265E-07
     Chemical potential (mu):       0.00492
 
 PAO| energy:  -7.7393631300879351      penalty:   1.5414342479700932E-005
 PAO|LS| adapt:  T T T
 PAO|LS| adapt: scan_steps:    0.0000000000000000       0.23374380197647043       0.46748760395294087     
 PAO|LS| adapt: energies:   -7.7358939156318742       -7.7411808880877793       -7.7393631300879351     
 PAO|LS| adapt: suggested step_size:   0.29081193298312968     
 PAO|LS| adapt: predicted energy  -7.7413926387132443     
 PAO| ======================= Iteration:        12 =============================

     Lanczos converged:  T threshold:   0.100E-02
     Est. extremal eigenvalues:    0.271E+01   0.184E+00
     Est. condition number :    0.148E+02

 Order=           3
     NS sqrt iter    1 1.00000000   0.689E+00       0.001       58.659
     NS sqrt iter    2 1.00000000   0.320E+00       0.001       97.969
     NS sqrt iter    3 1.00000000   0.721E-01       0.001       98.254
     NS sqrt iter    4 1.00000000   0.162E-02       0.001       97.621
     NS sqrt iter    5 1.00000000   0.353E-07       0.001       57.245
     Symmetrizing Results
     Final NS sqrt iter    5 1.00000000   0.461E-08

     Est. extremal eigenvalues     -0.91468     1.61784  converged:  T
     TRS4 it   1 1.00000000   0.863E+00       0.000       16.128   0.100E-07
     TRS4 it   2 1.00000000   0.602E+00       0.001       32.256   0.100E-07
     TRS4 it   3 1.00000000   0.406E+00       0.001       32.256   0.100E-07
     TRS4 it   4 1.00000000   0.204E+00       0.001       32.256   0.100E-07
     TRS4 it   5 1.00000000   0.637E-01       0.001       32.256   0.100E-07
     TRS4 it   6 1.00000000   0.715E-02       0.001       32.256   0.100E-07
     TRS4 it   7 1.00000000   0.106E-03       0.001       32.256   0.100E-07
     TRS4 it   8 1.00000000   0.316E-07       0.001       32.256   0.100E-07
     Final TRS4 iteration    8 1.00000000   0.316E-07
     Chemical potential (mu):       0.00278
 
 PAO| energy:  -7.7413763744234183      penalty:   1.4306787103907596E-005
 PAO|CG| trace_G_new    1.2808362845849920E-002
 PAO|CG| trace_G_prev    3.8736450156058456E-002
 PAO|CG| trace_G_mix   -5.7218296158870825E-004
 PAO|CG| trace_D    4.7250204295032176E-002
 PAO|CG| trace_D_Gnew   2.4992806673431378E-004
 PAO|CG| beta:   0.34542519393315874     
 PAO| norm of gradient:  0.11317403786138373     
 PAO| energy improvement:  -5.4824587915440759E-003
 PAO| step     12                   -7.741376374  0.707E-02  0.291E+00     0.056
 PAO|LS| adapt:  T F F
 PAO|LS| adapt: scan_steps:    0.0000000000000000        0.0000000000000000        0.0000000000000000     
 PAO|LS| adapt: energies:   -7.7413763744234183        0.0000000000000000        0.0000000000000000     
 PAO| ======================= Iteration:        13 =============================

     Lanczos converged:  T threshold:   0.100E-02
     Est. extremal eigenvalues:    0.268E+01   0.188E+00
     Est. condition number :    0.142E+02

 Order=           3
     NS sqrt iter    1 1.00000000   0.682E+00       0.001       57.775
     NS sqrt iter    2 1.00000000   0.313E+00       0.001       98.191
     NS sqrt iter    3 1.00000000   0.678E-01       0.001       98.150
     NS sqrt iter    4 1.00000000   0.136E-02       0.001       98.419
     NS sqrt iter    5 1.00000000   0.205E-07       0.001       48.848
     Symmetrizing Results
     Final NS sqrt iter    5 1.00000000   0.438E-08

     Est. extremal eigenvalues     -0.91519     1.61224  converged:  T
     TRS4 it   1 1.00000000   0.863E+00       0.000       16.128   0.100E-07
     TRS4 it   2 1.00000000   0.599E+00       0.001       32.256   0.100E-07
     TRS4 it   3 1.00000000   0.401E+00       0.001       32.256   0.100E-07
     TRS4 it   4 1.00000000   0.199E+00       0.001       32.256   0.100E-07
     TRS4 it   5 1.00000000   0.601E-01       0.001       32.256   0.100E-07
     TRS4 it   6 1.00000000   0.632E-02       0.001       32.256   0.100E-07
     TRS4 it   7 1.00000000   0.809E-04       0.001       32.256   0.100E-07
     TRS4 it   8 1.00000000   0.177E-07       0.001       32.256   0.100E-07
     Final TRS4 iteration    8 1.00000000   0.177E-07
     Chemical potential (mu):       0.00719
 
 PAO| energy:  -7.7436016900669786      penalty:   1.4693686669125047E-005
 PAO|LS| adapt:  T T F
 PAO|LS| adapt: scan_steps:    0.0000000000000000       0.29081193298312968        0.0000000000000000     
 PAO|LS| adapt: energies:   -7.7413763744234183       -7.7436016900669786        0.0000000000000000     
 PAO| ======================= Iteration:        14 =============================

     Lanczos converged:  T threshold:   0.100E-02
     Est. extremal eigenvalues:    0.265E+01   0.193E+00
     Est. condition number :    0.137E+02

 Order=           3
     NS sqrt iter    1 1.00000000   0.676E+00       0.001       57.741
     NS sqrt iter    2 1.00000000   0.306E+00       0.001       98.135
     NS sqrt iter    3 1.00000000   0.638E-01       0.001       97.144
     NS sqrt iter    4 1.00000000   0.113E-02       0.001       97.614
     NS sqrt iter    5 1.00000000   0.115E-07       0.001       43.761
     Symmetrizing Results
     Final NS sqrt iter    5 1.00000000   0.342E-08

     Est. extremal eigenvalues     -0.91514     1.60703  converged:  T
     TRS4 it   1 1.00000000   0.862E+00       0.000       16.128   0.100E-07
     TRS4 it   2 1.00000000   0.596E+00       0.001       32.256   0.100E-07
     TRS4 it   3 1.00000000   0.397E+00       0.001       32.256   0.100E-07
     TRS4 it   4 1.00000000   0.194E+00       0.001       32.256   0.100E-07
     TRS4 it   5 1.00000000   0.568E-01       0.001       32.256   0.100E-07
     TRS4 it   6 1.00000000   0.558E-02       0.001       32.256   0.100E-07
     TRS4 it   7 1.00000000   0.618E-04       0.001       32.256   0.100E-07
     TRS4 it   8 1.00000000   0.998E-08       0.001       32.256   0.100E-07
     Final TRS4 iteration    8 1.00000000   0.998E-08
     Chemical potential (mu):       0.01142
 
 PAO| energy:  -7.7429327052187249      penalty:   1.5603512257927641E-005
 PAO|LS| adapt:  T T T
 PAO|LS| adapt: scan_steps:    0.0000000000000000       0.29081193298312968       0.58162386596625937     
 PAO|LS| adapt: energies:   -7.7413763744234183       -7.7436016900669786       -7.7429327052187249     
 PAO|LS| adapt: suggested step_size:   0.36900000782614767     
 PAO|LS| adapt: predicted energy  -7.7437062993478420     
 PAO| ======================= Iteration:        15 =============================

     Lanczos converged:  T threshold:   0.100E-02
     Est. extremal eigenvalues:    0.267E+01   0.189E+00
     Est. condition number :    0.141E+02

 Order=           3
     NS sqrt iter    1 1.00000000   0.681E+00       0.001       58.734
     NS sqrt iter    2 1.00000000   0.311E+00       0.001       97.993
     NS sqrt iter    3 1.00000000   0.667E-01       0.001       96.790
     NS sqrt iter    4 1.00000000   0.129E-02       0.001       97.757
     NS sqrt iter    5 1.00000000   0.176E-07       0.001       46.327
     Symmetrizing Results
     Final NS sqrt iter    5 1.00000000   0.335E-08

     Est. extremal eigenvalues     -0.91523     1.61081  converged:  T
     TRS4 it   1 1.00000000   0.863E+00       0.000       16.128   0.100E-07
     TRS4 it   2 1.00000000   0.598E+00       0.001       32.256   0.100E-07
     TRS4 it   3 1.00000000   0.400E+00       0.001       32.256   0.100E-07
     TRS4 it   4 1.00000000   0.198E+00       0.001       32.256   0.100E-07
     TRS4 it   5 1.00000000   0.592E-01       0.001       32.256   0.100E-07
     TRS4 it   6 1.00000000   0.611E-02       0.001       32.256   0.100E-07
     TRS4 it   7 1.00000000   0.752E-04       0.001       32.256   0.100E-07
     TRS4 it   8 1.00000000   0.152E-07       0.001       32.256   0.100E-07
     Final TRS4 iteration    8 1.00000000   0.152E-07
     Chemical potential (mu):       0.00835
 
 PAO| energy:  -7.7437028611639525      penalty:   1.4883144526727569E-005
 PAO|CG| trace_G_new    2.5720510254783925E-003
 PAO|CG| trace_G_prev    1.2808362845849920E-002
 PAO|CG| trace_G_mix    9.7014397303389938E-005
 PAO|CG| trace_D    1.8273526497725512E-002
 PAO|CG| trace_D_Gnew   3.7131893981579933E-005
 PAO|CG| beta:   0.19323598636003250     
 PAO| norm of gradient:   5.0715392392038067E-002
 PAO| energy improvement:  -2.3264867405341505E-003
 PAO| step     15                   -7.743702861  0.317E-02  0.369E+00     0.057
 PAO|LS| adapt:  T F F
 PAO|LS| adapt: scan_steps:    0.0000000000000000        0.0000000000000000        0.0000000000000000     
 PAO|LS| adapt: energies:   -7.7437028611639525        0.0000000000000000        0.0000000000000000     
 PAO| ======================= Iteration:        16 =============================

     Lanczos converged:  T threshold:   0.100E-02
     Est. extremal eigenvalues:    0.266E+01   0.190E+00
     Est. condition number :    0.140E+02

 Order=           3
     NS sqrt iter    1 1.00000000   0.679E+00       0.001       57.945
     NS sqrt iter    2 1.00000000   0.310E+00       0.001       98.429
     NS sqrt iter    3 1.00000000   0.662E-01       0.001       99.352
     NS sqrt iter    4 1.00000000   0.126E-02       0.001       99.439
     NS sqrt iter    5 1.00000000   0.158E-07       0.001       45.580
     Symmetrizing Results
     Final NS sqrt iter    5 1.00000000   0.426E-08

     Est. extremal eigenvalues     -0.91526     1.61083  converged:  T
     TRS4 it   1 1.00000000   0.863E+00       0.000       16.128   0.100E-07
     TRS4 it   2 1.00000000   0.597E+00       0.001       32.256   0.100E-07
     TRS4 it   3 1.00000000   0.399E+00       0.001       32.256   0.100E-07
     TRS4 it   4 1.00000000   0.196E+00       0.001       32.256   0.100E-07
     TRS4 it   5 1.00000000   0.583E-01       0.001       32.256   0.100E-07
     TRS4 it   6 1.00000000   0.593E-02       0.001       32.256   0.100E-07
     TRS4 it   7 1.00000000   0.713E-04       0.001       32.256   0.100E-07
     TRS4 it   8 1.00000000   0.138E-07       0.001       32.256   0.100E-07
     Final TRS4 iteration    8 1.00000000   0.138E-07
     Chemical potential (mu):       0.00910
 
 PAO| energy:  -7.7438419944184345      penalty:   1.4682596411321259E-005
 PAO|LS| adapt:  T T F
 PAO|LS| adapt: scan_steps:    0.0000000000000000       0.36900000782614767        0.0000000000000000     
 PAO|LS| adapt: energies:   -7.7437028611639525       -7.7438419944184345        0.0000000000000000     
 PAO| ======================= Iteration:        17 =============================

     Lanczos converged:  T threshold:   0.100E-02
     Est. extremal eigenvalues:    0.266E+01   0.191E+00
     Est. condition number :    0.139E+02

 Order=           3
     NS sqrt iter    1 1.00000000   0.677E+00       0.001       58.782
     NS sqrt iter    2 1.00000000   0.309E+00       0.001       99.700
     NS sqrt iter    3 1.00000000   0.657E-01       0.001       99.509
     NS sqrt iter    4 1.00000000   0.123E-02       0.001       98.306
     NS sqrt iter    5 1.00000000   0.144E-07       0.001       45.963
     Symmetrizing Results
     Final NS sqrt iter    5 1.00000000   0.329E-08

     Est. extremal eigenvalues     -0.91515     1.61094  converged:  T
     TRS4 it   1 1.00000000   0.863E+00       0.000       16.128   0.100E-07
     TRS4 it   2 1.00000000   0.597E+00       0.001       32.256   0.100E-07
     TRS4 it   3 1.00000000   0.398E+00       0.001       32.256   0.100E-07
     TRS4 it   4 1.00000000   0.195E+00       0.001       32.256   0.100E-07
     TRS4 it   5 1.00000000   0.574E-01       0.001       32.256   0.100E-07
     TRS4 it   6 1.00000000   0.575E-02       0.001       32.256   0.100E-07
     TRS4 it   7 1.00000000   0.676E-04       0.001       32.256   0.100E-07
     TRS4 it   8 1.00000000   0.126E-07       0.001       32.256   0.100E-07
     Final TRS4 iteration    8 1.00000000   0.126E-07
     Chemical potential (mu):       0.00983
 
 PAO| energy:  -7.7423603889868664      penalty:   1.4598968057835616E-005
 PAO|LS| adapt:  T T T
 PAO|LS| adapt: scan_steps:    0.0000000000000000       0.36900000782614767       0.73800001565229534     
 PAO|LS| adapt: energies:   -7.7437028611639525       -7.7438419944184345       -7.7423603889868664     
 PAO|LS| adapt: suggested step_size:   0.21617702404878697     
 PAO|LS| adapt: predicted energy  -7.7439809921144978     
 PAO| ======================= Iteration:        18 =============================

     Lanczos converged:  T threshold:   0.100E-02
     Est. extremal eigenvalues:    0.267E+01   0.190E+00
     Est. condition number :    0.140E+02

 Order=           3
     NS sqrt iter    1 1.00000000   0.680E+00       0.001       57.982
     NS sqrt iter    2 1.00000000   0.311E+00       0.001       97.961
     NS sqrt iter    3 1.00000000   0.664E-01       0.001       98.048
     NS sqrt iter    4 1.00000000   0.127E-02       0.001       99.144
     NS sqrt iter    5 1.00000000   0.164E-07       0.001       45.895
     Symmetrizing Results
     Final NS sqrt iter    5 1.00000000   0.489E-08

     Est. extremal eigenvalues     -0.91526     1.61081  converged:  T
     TRS4 it   1 1.00000000   0.863E+00       0.000       16.128   0.100E-07
     TRS4 it   2 1.00000000   0.597E+00       0.001       32.256   0.100E-07
     TRS4 it   3 1.00000000   0.400E+00       0.001       32.256   0.100E-07
     TRS4 it   4 1.00000000   0.197E+00       0.001       32.256   0.100E-07
     TRS4 it   5 1.00000000   0.587E-01       0.001       32.256   0.100E-07
     TRS4 it   6 1.00000000   0.600E-02       0.001       32.256   0.100E-07
     TRS4 it   7 1.00000000   0.729E-04       0.001       32.256   0.100E-07
     TRS4 it   8 1.00000000   0.144E-07       0.001       32.256   0.100E-07
     Final TRS4 iteration    8 1.00000000   0.144E-07
     Chemical potential (mu):       0.00879
 
 PAO| energy:  -7.7439804905913654      penalty:   1.4751726912695449E-005
 PAO|CG| trace_G_new    7.9272378805638844E-004
 PAO|CG| trace_G_prev    2.5720510254783925E-003
 PAO|CG| trace_G_mix    2.4158401125393241E-006
 PAO|CG| trace_D    3.2400367442781829E-003
 PAO|CG| trace_D_Gnew  -2.0253097318177338E-006
 PAO|CG| beta:   0.30726760088161725     
 PAO| norm of gradient:   2.8155350966670410E-002
 PAO| energy improvement:  -2.7762942741293983E-004
 PAO| step     18                   -7.743980491  0.176E-02  0.216E+00     0.056
 PAO|LS| adapt:  T F F
 PAO|LS| adapt: scan_steps:    0.0000000000000000        0.0000000000000000        0.0000000000000000     
 PAO|LS| adapt: energies:   -7.7439804905913654        0.0000000000000000        0.0000000000000000     
 PAO| ======================= Iteration:        19 =============================

     Lanczos converged:  T threshold:   0.100E-02
     Est. extremal eigenvalues:    0.267E+01   0.190E+00
     Est. condition number :    0.141E+02

 Order=           3
     NS sqrt iter    1 1.00000000   0.679E+00       0.001       58.186
     NS sqrt iter    2 1.00000000   0.311E+00       0.001       99.618
     NS sqrt iter    3 1.00000000   0.666E-01       0.001      100.014
     NS sqrt iter    4 1.00000000   0.128E-02       0.001       98.789
     NS sqrt iter    5 1.00000000   0.165E-07       0.001       45.208
     Symmetrizing Results
     Final NS sqrt iter    5 1.00000000   0.493E-08

     Est. extremal eigenvalues     -0.91526     1.61094  converged:  T
     TRS4 it   1 1.00000000   0.863E+00       0.000       16.128   0.100E-07
     TRS4 it   2 1.00000000   0.597E+00       0.001       32.256   0.100E-07
     TRS4 it   3 1.00000000   0.399E+00       0.001       32.256   0.100E-07
     TRS4 it   4 1.00000000   0.197E+00       0.001       32.256   0.100E-07
     TRS4 it   5 1.00000000   0.586E-01       0.001       32.256   0.100E-07
     TRS4 it   6 1.00000000   0.600E-02       0.001       32.256   0.100E-07
     TRS4 it   7 1.00000000   0.733E-04       0.001       32.256   0.100E-07
     TRS4 it   8 1.00000000   0.147E-07       0.001       32.256   0.100E-07
     Final TRS4 iteration    8 1.00000000   0.147E-07
     Chemical potential (mu):       0.00857
 
 PAO| energy:  -7.7441090073379453      penalty:   1.4464130678364765E-005
 PAO|LS| adapt:  T T F
 PAO|LS| adapt: scan_steps:    0.0000000000000000       0.21617702404878697        0.0000000000000000     
 PAO|LS| adapt: energies:   -7.7439804905913654       -7.7441090073379453        0.0000000000000000     
 PAO| ======================= Iteration:        20 =============================

     Lanczos converged:  T threshold:   0.100E-02
     Est. extremal eigenvalues:    0.267E+01   0.190E+00
     Est. condition number :    0.141E+02

 Order=           3
     NS sqrt iter    1 1.00000000   0.679E+00       0.001       58.621
     NS sqrt iter    2 1.00000000   0.311E+00       0.001       99.176
     NS sqrt iter    3 1.00000000   0.669E-01       0.001       99.311
     NS sqrt iter    4 1.00000000   0.129E-02       0.001       98.881
     NS sqrt iter    5 1.00000000   0.166E-07       0.001       45.528
     Symmetrizing Results
     Final NS sqrt iter    5 1.00000000   0.496E-08

     Est. extremal eigenvalues     -0.91526     1.61108  converged:  T
     TRS4 it   1 1.00000000   0.863E+00       0.000       16.128   0.100E-07
     TRS4 it   2 1.00000000   0.597E+00       0.001       32.256   0.100E-07
     TRS4 it   3 1.00000000   0.399E+00       0.001       32.256   0.100E-07
     TRS4 it   4 1.00000000   0.197E+00       0.001       32.256   0.100E-07
     TRS4 it   5 1.00000000   0.585E-01       0.001       32.256   0.100E-07
     TRS4 it   6 1.00000000   0.599E-02       0.001       32.256   0.100E-07
     TRS4 it   7 1.00000000   0.737E-04       0.001       32.256   0.100E-07
     TRS4 it   8 1.00000000   0.151E-07       0.001       32.256   0.100E-07
     Final TRS4 iteration    8 1.00000000   0.151E-07
     Chemical potential (mu):       0.00835
 
 PAO| energy:  -7.7441510646034670      penalty:   1.4190228691825847E-005
 PAO|LS| adapt:  T T F
 PAO|LS| adapt: scan_steps:    0.0000000000000000       0.43235404809757394        0.0000000000000000     
 PAO|LS| adapt: energies:   -7.7439804905913654       -7.7441510646034670        0.0000000000000000     
 PAO| ======================= Iteration:        21 =============================

     Lanczos converged:  T threshold:   0.100E-02
     Est. extremal eigenvalues:    0.267E+01   0.189E+00
     Est. condition number :    0.141E+02

 Order=           3
     NS sqrt iter    1 1.00000000   0.679E+00       0.001       58.236
     NS sqrt iter    2 1.00000000   0.312E+00       0.001       98.650
     NS sqrt iter    3 1.00000000   0.673E-01       0.001       97.999
     NS sqrt iter    4 1.00000000   0.130E-02       0.001       98.884
     NS sqrt iter    5 1.00000000   0.169E-07       0.001       45.596
     Symmetrizing Results
     Final NS sqrt iter    5 1.00000000   0.463E-08

     Est. extremal eigenvalues     -0.91525     1.61135  converged:  T
     TRS4 it   1 1.00000000   0.863E+00       0.000       16.128   0.100E-07
     TRS4 it   2 1.00000000   0.597E+00       0.001       32.256   0.100E-07
     TRS4 it   3 1.00000000   0.399E+00       0.001       32.256   0.100E-07
     TRS4 it   4 1.00000000   0.196E+00       0.001       32.256   0.100E-07
     TRS4 it   5 1.00000000   0.583E-01       0.001       32.256   0.100E-07
     TRS4 it   6 1.00000000   0.599E-02       0.001       32.256   0.100E-07
     TRS4 it   7 1.00000000   0.747E-04       0.001       32.256   0.100E-07
     TRS4 it   8 1.00000000   0.158E-07       0.001       32.256   0.100E-07
     Final TRS4 iteration    8 1.00000000   0.158E-07
     Chemical potential (mu):       0.00788
 
 PAO| energy:  -7.7439728733732993      penalty:   1.3682970761224738E-005
 PAO|LS| Need extra step
 PAO|LS| adapt:  T T T
 PAO|LS| adapt: scan_steps:    0.0000000000000000       0.43235404809757394       0.86470809619514788     
 PAO|LS| adapt: energies:   -7.7439804905913654       -7.7441510646034670       -7.7439728733732993     
 PAO|LS| adapt: suggested step_size:   0.42763262711438926     
 PAO|LS| adapt: predicted energy  -7.7441510853989772     
 PAO| ======================= Iteration:        22 =============================

     Lanczos converged:  T threshold:   0.100E-02
     Est. extremal eigenvalues:    0.267E+01   0.190E+00
     Est. condition number :    0.141E+02

 Order=           3
     NS sqrt iter    1 1.00000000   0.679E+00       0.001       58.430
     NS sqrt iter    2 1.00000000   0.311E+00       0.001       97.020
     NS sqrt iter    3 1.00000000   0.668E-01       0.001       98.382
     NS sqrt iter    4 1.00000000   0.129E-02       0.001       98.430
     NS sqrt iter    5 1.00000000   0.166E-07       0.001       45.272
     Symmetrizing Results
     Final NS sqrt iter    5 1.00000000   0.496E-08

     Est. extremal eigenvalues     -0.91526     1.61108  converged:  T
     TRS4 it   1 1.00000000   0.863E+00       0.000       16.128   0.100E-07
     TRS4 it   2 1.00000000   0.597E+00       0.001       32.256   0.100E-07
     TRS4 it   3 1.00000000   0.399E+00       0.001       32.256   0.100E-07
     TRS4 it   4 1.00000000   0.197E+00       0.001       32.256   0.100E-07
     TRS4 it   5 1.00000000   0.585E-01       0.001       32.256   0.100E-07
     TRS4 it   6 1.00000000   0.599E-02       0.001       32.256   0.100E-07
     TRS4 it   7 1.00000000   0.737E-04       0.001       32.256   0.100E-07
     TRS4 it   8 1.00000000   0.151E-07       0.001       32.256   0.100E-07
     Final TRS4 iteration    8 1.00000000   0.151E-07
     Chemical potential (mu):       0.00836
 
 PAO| energy:  -7.7441510747416729      penalty:   1.4196065853121304E-005
 PAO|CG| trace_G_new    2.0576302121174756E-004
 PAO|CG| trace_G_prev    7.9272378805638844E-004
 PAO|CG| trace_G_mix    3.5242062987618539E-006
 PAO|CG| trace_D    1.0998712278395147E-003
 PAO|CG| trace_D_Gnew  -2.2581405296404806E-006
 PAO|CG| beta:   0.25511889255756753     
 PAO| norm of gradient:   1.4344442171508364E-002
 PAO| energy improvement:  -1.7058415030746232E-004
 PAO| step     22                   -7.744151075  0.897E-03  0.428E+00     0.073
 PAO|LS| adapt:  T F F
 PAO|LS| adapt: scan_steps:    0.0000000000000000        0.0000000000000000        0.0000000000000000     
 PAO|LS| adapt: energies:   -7.7441510747416729        0.0000000000000000        0.0000000000000000     
 PAO| ======================= Iteration:        23 =============================

     Lanczos converged:  T threshold:   0.100E-02
     Est. extremal eigenvalues:    0.267E+01   0.190E+00
     Est. condition number :    0.141E+02

 Order=           3
     NS sqrt iter    1 1.00000000   0.679E+00       0.001       58.098
     NS sqrt iter    2 1.00000000   0.311E+00       0.001       98.184
     NS sqrt iter    3 1.00000000   0.668E-01       0.001       99.158
     NS sqrt iter    4 1.00000000   0.128E-02       0.001       97.853
     NS sqrt iter    5 1.00000000   0.165E-07       0.001       45.871
     Symmetrizing Results
     Final NS sqrt iter    5 1.00000000   0.450E-08

     Est. extremal eigenvalues     -0.91526     1.61112  converged:  T
     TRS4 it   1 1.00000000   0.863E+00       0.000       16.128   0.100E-07
     TRS4 it   2 1.00000000   0.597E+00       0.001       32.256   0.100E-07
     TRS4 it   3 1.00000000   0.399E+00       0.001       32.256   0.100E-07
     TRS4 it   4 1.00000000   0.197E+00       0.001       32.256   0.100E-07
     TRS4 it   5 1.00000000   0.587E-01       0.001       32.256   0.100E-07
     TRS4 it   6 1.00000000   0.603E-02       0.001       32.256   0.100E-07
     TRS4 it   7 1.00000000   0.748E-04       0.001       32.256   0.100E-07
     TRS4 it   8 1.00000000   0.156E-07       0.001       32.256   0.100E-07
     Final TRS4 iteration    8 1.00000000   0.156E-07
     Chemical potential (mu):       0.00809
 
 PAO| energy:  -7.7441956068406475      penalty:   1.3577784308250572E-005
 PAO|LS| adapt:  T T F
 PAO|LS| adapt: scan_steps:    0.0000000000000000       0.42763262711438926        0.0000000000000000     
 PAO|LS| adapt: energies:   -7.7441510747416729       -7.7441956068406475        0.0000000000000000     
 PAO| ======================= Iteration:        24 =============================

     Lanczos converged:  T threshold:   0.100E-02
     Est. extremal eigenvalues:    0.267E+01   0.190E+00
     Est. condition number :    0.140E+02

 Order=           3
     NS sqrt iter    1 1.00000000   0.679E+00       0.001       58.753
     NS sqrt iter    2 1.00000000   0.311E+00       0.001       99.292
     NS sqrt iter    3 1.00000000   0.669E-01       0.001       99.360
     NS sqrt iter    4 1.00000000   0.128E-02       0.001       98.493
     NS sqrt iter    5 1.00000000   0.164E-07       0.001       45.493
     Symmetrizing Results
     Final NS sqrt iter    5 1.00000000   0.448E-08

     Est. extremal eigenvalues     -0.91526     1.61116  converged:  T
     TRS4 it   1 1.00000000   0.863E+00       0.000       16.128   0.100E-07
     TRS4 it   2 1.00000000   0.598E+00       0.001       32.256   0.100E-07
     TRS4 it   3 1.00000000   0.400E+00       0.001       32.256   0.100E-07
     TRS4 it   4 1.00000000   0.197E+00       0.001       32.256   0.100E-07
     TRS4 it   5 1.00000000   0.588E-01       0.001       32.256   0.100E-07
     TRS4 it   6 1.00000000   0.607E-02       0.001       32.256   0.100E-07
     TRS4 it   7 1.00000000   0.759E-04       0.001       32.256   0.100E-07
     TRS4 it   8 1.00000000   0.161E-07       0.001       32.256   0.100E-07
     Final TRS4 iteration    8 1.00000000   0.161E-07
     Chemical potential (mu):       0.00782
 
 PAO| energy:  -7.7441522626564243      penalty:   1.2982648531145592E-005
 PAO|LS| adapt:  T T T
 PAO|LS| adapt: scan_steps:    0.0000000000000000       0.42763262711438926       0.85526525422877853     
 PAO|LS| adapt: energies:   -7.7441510747416729       -7.7441956068406475       -7.7441522626564243     
 PAO|LS| adapt: suggested step_size:   0.43052300371810581     
 PAO|LS| adapt: predicted energy  -7.7441956088479316     
 PAO| ======================= Iteration:        25 =============================

     Lanczos converged:  T threshold:   0.100E-02
     Est. extremal eigenvalues:    0.267E+01   0.190E+00
     Est. condition number :    0.141E+02

 Order=           3
     NS sqrt iter    1 1.00000000   0.679E+00       0.001       57.919
     NS sqrt iter    2 1.00000000   0.311E+00       0.001       97.137
     NS sqrt iter    3 1.00000000   0.668E-01       0.001       98.455
     NS sqrt iter    4 1.00000000   0.128E-02       0.001       98.941
     NS sqrt iter    5 1.00000000   0.165E-07       0.001       45.163
     Symmetrizing Results
     Final NS sqrt iter    5 1.00000000   0.450E-08

     Est. extremal eigenvalues     -0.91526     1.61112  converged:  T
     TRS4 it   1 1.00000000   0.863E+00       0.000       16.128   0.100E-07
     TRS4 it   2 1.00000000   0.597E+00       0.001       32.256   0.100E-07
     TRS4 it   3 1.00000000   0.399E+00       0.001       32.256   0.100E-07
     TRS4 it   4 1.00000000   0.197E+00       0.001       32.256   0.100E-07
     TRS4 it   5 1.00000000   0.587E-01       0.001       32.256   0.100E-07
     TRS4 it   6 1.00000000   0.603E-02       0.001       32.256   0.100E-07
     TRS4 it   7 1.00000000   0.748E-04       0.001       32.256   0.100E-07
     TRS4 it   8 1.00000000   0.156E-07       0.001       32.256   0.100E-07
     Final TRS4 iteration    8 1.00000000   0.156E-07
     Chemical potential (mu):       0.00809
 
 PAO| energy:  -7.7441956096365328      penalty:   1.3573684581931072E-005
 PAO|CG| trace_G_new    4.6982510949551331E-005
 PAO|CG| trace_G_prev    2.0576302121174756E-004
 PAO|CG| trace_G_mix    3.2798291145093750E-007
 PAO|CG| trace_D    2.7850104288816764E-004
 PAO|CG| trace_D_Gnew  -2.7454465362371881E-007
 PAO|CG| beta:   0.22673912816476841     
 PAO| norm of gradient:   6.8543789616238270E-003
 PAO| energy improvement:  -4.4534894859893370E-005
 PAO| step     25                   -7.744195610  0.428E-03  0.431E+00     0.056
 PAO|LS| adapt:  T F F
 PAO|LS| adapt: scan_steps:    0.0000000000000000        0.0000000000000000        0.0000000000000000     
 PAO|LS| adapt: energies:   -7.7441956096365328        0.0000000000000000        0.0000000000000000     
 PAO| ======================= Iteration:        26 =============================

     Lanczos converged:  T threshold:   0.100E-02
     Est. extremal eigenvalues:    0.267E+01   0.190E+00
     Est. condition number :    0.140E+02

 Order=           3
     NS sqrt iter    1 1.00000000   0.679E+00       0.001       57.925
     NS sqrt iter    2 1.00000000   0.311E+00       0.001       98.613
     NS sqrt iter    3 1.00000000   0.667E-01       0.001       96.860
     NS sqrt iter    4 1.00000000   0.128E-02       0.001       98.391
     NS sqrt iter    5 1.00000000   0.163E-07       0.001       45.103
     Symmetrizing Results
     Final NS sqrt iter    5 1.00000000   0.444E-08

     Est. extremal eigenvalues     -0.91526     1.61079  converged:  T
     TRS4 it   1 1.00000000   0.863E+00       0.000       16.128   0.100E-07
     TRS4 it   2 1.00000000   0.597E+00       0.001       32.256   0.100E-07
     TRS4 it   3 1.00000000   0.399E+00       0.001       32.256   0.100E-07
     TRS4 it   4 1.00000000   0.197E+00       0.001       32.256   0.100E-07
     TRS4 it   5 1.00000000   0.586E-01       0.001       32.256   0.100E-07
     TRS4 it   6 1.00000000   0.601E-02       0.001       32.256   0.100E-07
     TRS4 it   7 1.00000000   0.743E-04       0.001       32.256   0.100E-07
     TRS4 it   8 1.00000000   0.153E-07       0.001       32.256   0.100E-07
     Final TRS4 iteration    8 1.00000000   0.153E-07
     Chemical potential (mu):       0.00820
 
 PAO| energy:  -7.7441981967498812      penalty:   1.2966761967212851E-005
 PAO|LS| adapt:  T T F
 PAO|LS| adapt: scan_steps:    0.0000000000000000       0.43052300371810581        0.0000000000000000     
 PAO|LS| adapt: energies:   -7.7441956096365328       -7.7441981967498812        0.0000000000000000     
 PAO| ======================= Iteration:        27 =============================

     Lanczos converged:  T threshold:   0.100E-02
     Est. extremal eigenvalues:    0.267E+01   0.190E+00
     Est. condition number :    0.140E+02

 Order=           3
     NS sqrt iter    1 1.00000000   0.679E+00       0.001       59.208
     NS sqrt iter    2 1.00000000   0.311E+00       0.001       98.723
     NS sqrt iter    3 1.00000000   0.666E-01       0.001       99.170
     NS sqrt iter    4 1.00000000   0.127E-02       0.001       98.969
     NS sqrt iter    5 1.00000000   0.162E-07       0.001       44.732
     Symmetrizing Results
     Final NS sqrt iter    5 1.00000000   0.439E-08

     Est. extremal eigenvalues     -0.91526     1.61047  converged:  T
     TRS4 it   1 1.00000000   0.863E+00       0.000       16.128   0.100E-07
     TRS4 it   2 1.00000000   0.597E+00       0.001       32.256   0.100E-07
     TRS4 it   3 1.00000000   0.399E+00       0.001       32.256   0.100E-07
     TRS4 it   4 1.00000000   0.197E+00       0.001       32.256   0.100E-07
     TRS4 it   5 1.00000000   0.585E-01       0.001       32.256   0.100E-07
     TRS4 it   6 1.00000000   0.600E-02       0.001       32.256   0.100E-07
     TRS4 it   7 1.00000000   0.737E-04       0.001       32.256   0.100E-07
     TRS4 it   8 1.00000000   0.151E-07       0.001       32.256   0.100E-07
     Final TRS4 iteration    8 1.00000000   0.151E-07
     Chemical potential (mu):       0.00831
 
 PAO| energy:  -7.7441654134736400      penalty:   1.2375480581008343E-005
 PAO|LS| adapt:  T T T
 PAO|LS| adapt: scan_steps:    0.0000000000000000       0.43052300371810581       0.86104600743621162     
 PAO|LS| adapt: energies:   -7.7441956096365328       -7.7441981967498812       -7.7441654134736400     
 PAO|LS| adapt: suggested step_size:   0.24675145214376309     
 PAO|LS| adapt: predicted energy  -7.7442014191071413     
 PAO| ======================= Iteration:        28 =============================

     Lanczos converged:  T threshold:   0.100E-02
     Est. extremal eigenvalues:    0.267E+01   0.190E+00
     Est. condition number :    0.140E+02

 Order=           3
     NS sqrt iter    1 1.00000000   0.679E+00       0.001       58.019
     NS sqrt iter    2 1.00000000   0.311E+00       0.001       95.216
     NS sqrt iter    3 1.00000000   0.668E-01       0.001       97.654
     NS sqrt iter    4 1.00000000   0.128E-02       0.001       98.280
     NS sqrt iter    5 1.00000000   0.164E-07       0.001       45.052
     Symmetrizing Results
     Final NS sqrt iter    5 1.00000000   0.446E-08

     Est. extremal eigenvalues     -0.91526     1.61093  converged:  T
     TRS4 it   1 1.00000000   0.863E+00       0.000       16.128   0.100E-07
     TRS4 it   2 1.00000000   0.597E+00       0.001       32.256   0.100E-07
     TRS4 it   3 1.00000000   0.399E+00       0.001       32.256   0.100E-07
     TRS4 it   4 1.00000000   0.197E+00       0.001       32.256   0.100E-07
     TRS4 it   5 1.00000000   0.586E-01       0.001       32.256   0.100E-07
     TRS4 it   6 1.00000000   0.602E-02       0.001       32.256   0.100E-07
     TRS4 it   7 1.00000000   0.745E-04       0.001       32.256   0.100E-07
     TRS4 it   8 1.00000000   0.154E-07       0.001       32.256   0.100E-07
     Final TRS4 iteration    8 1.00000000   0.154E-07
     Chemical potential (mu):       0.00815
 
 PAO| energy:  -7.7442014159455086      penalty:   1.3223910714552538E-005
 PAO|CG| trace_G_new    1.8208802464914917E-005
 PAO|CG| trace_G_prev    4.6982510949551331E-005
 PAO|CG| trace_G_mix    2.3175022903825098E-009
 PAO|CG| trace_D    6.1424925674997280E-005
 PAO|CG| trace_D_Gnew  -8.8955125628981330E-009
 PAO|CG| beta:   0.38751621815560711     
 PAO| norm of gradient:   4.2671773416293485E-003
 PAO| energy improvement:  -5.8063089758420006E-006
 PAO| step     28                   -7.744201416  0.267E-03  0.247E+00     0.056
 PAO|LS| adapt:  T F F
 PAO|LS| adapt: scan_steps:    0.0000000000000000        0.0000000000000000        0.0000000000000000     
 PAO|LS| adapt: energies:   -7.7442014159455086        0.0000000000000000        0.0000000000000000     
 PAO| ======================= Iteration:        29 =============================

     Lanczos converged:  T threshold:   0.100E-02
     Est. extremal eigenvalues:    0.267E+01   0.190E+00
     Est. condition number :    0.140E+02

 Order=           3
     NS sqrt iter    1 1.00000000   0.679E+00       0.001       58.610
     NS sqrt iter    2 1.00000000   0.311E+00       0.001      100.388
     NS sqrt iter    3 1.00000000   0.667E-01       0.001       98.286
     NS sqrt iter    4 1.00000000   0.128E-02       0.001       98.063
     NS sqrt iter    5 1.00000000   0.164E-07       0.001       45.237
     Symmetrizing Results
     Final NS sqrt iter    5 1.00000000   0.445E-08

     Est. extremal eigenvalues     -0.91526     1.61094  converged:  T
     TRS4 it   1 1.00000000   0.863E+00       0.000       16.128   0.100E-07
     TRS4 it   2 1.00000000   0.597E+00       0.001       32.256   0.100E-07
     TRS4 it   3 1.00000000   0.399E+00       0.001       32.256   0.100E-07
     TRS4 it   4 1.00000000   0.197E+00       0.001       32.256   0.100E-07
     TRS4 it   5 1.00000000   0.586E-01       0.001       32.256   0.100E-07
     TRS4 it   6 1.00000000   0.601E-02       0.001       32.256   0.100E-07
     TRS4 it   7 1.00000000   0.741E-04       0.001       32.256   0.100E-07
     TRS4 it   8 1.00000000   0.153E-07       0.001       32.256   0.100E-07
     Final TRS4 iteration    8 1.00000000   0.153E-07
     Chemical potential (mu):       0.00824
 
 PAO| energy:  -7.7442052788012106      penalty:   1.2826679909549310E-005
 PAO|LS| adapt:  T T F
 PAO|LS| adapt: scan_steps:    0.0000000000000000       0.24675145214376309        0.0000000000000000     
 PAO|LS| adapt: energies:   -7.7442014159455086       -7.7442052788012106        0.0000000000000000     
 PAO| ======================= Iteration:        30 =============================

     Lanczos converged:  T threshold:   0.100E-02
     Est. extremal eigenvalues:    0.267E+01   0.190E+00
     Est. condition number :    0.140E+02

 Order=           3
     NS sqrt iter    1 1.00000000   0.679E+00       0.001       58.185
     NS sqrt iter    2 1.00000000   0.311E+00       0.001      101.117
     NS sqrt iter    3 1.00000000   0.667E-01       0.001       96.212
     NS sqrt iter    4 1.00000000   0.128E-02       0.001       98.788
     NS sqrt iter    5 1.00000000   0.163E-07       0.001       45.614
     Symmetrizing Results
     Final NS sqrt iter    5 1.00000000   0.443E-08

     Est. extremal eigenvalues     -0.91526     1.61095  converged:  T
     TRS4 it   1 1.00000000   0.863E+00       0.000       16.128   0.100E-07
     TRS4 it   2 1.00000000   0.597E+00       0.001       32.256   0.100E-07
     TRS4 it   3 1.00000000   0.399E+00       0.001       32.256   0.100E-07
     TRS4 it   4 1.00000000   0.197E+00       0.001       32.256   0.100E-07
     TRS4 it   5 1.00000000   0.585E-01       0.001       32.256   0.100E-07
     TRS4 it   6 1.00000000   0.600E-02       0.001       32.256   0.100E-07
     TRS4 it   7 1.00000000   0.738E-04       0.001       32.256   0.100E-07
     TRS4 it   8 1.00000000   0.151E-07       0.001       32.256   0.100E-07
     Final TRS4 iteration    8 1.00000000   0.151E-07
     Chemical potential (mu):       0.00834
 
 PAO| energy:  -7.7442078791810349      penalty:   1.2435884344048370E-005
 PAO|LS| adapt:  T T F
 PAO|LS| adapt: scan_steps:    0.0000000000000000       0.49350290428752619        0.0000000000000000     
 PAO|LS| adapt: energies:   -7.7442014159455086       -7.7442078791810349        0.0000000000000000     
 PAO| ======================= Iteration:        31 =============================

     Lanczos converged:  T threshold:   0.100E-02
     Est. extremal eigenvalues:    0.267E+01   0.190E+00
     Est. condition number :    0.140E+02

 Order=           3
     NS sqrt iter    1 1.00000000   0.679E+00       0.001       58.382
     NS sqrt iter    2 1.00000000   0.310E+00       0.001       96.731
     NS sqrt iter    3 1.00000000   0.666E-01       0.001       98.522
     NS sqrt iter    4 1.00000000   0.127E-02       0.001       97.979
     NS sqrt iter    5 1.00000000   0.163E-07       0.001       45.138
     Symmetrizing Results
     Final NS sqrt iter    5 1.00000000   0.440E-08

     Est. extremal eigenvalues     -0.91527     1.61096  converged:  T
     TRS4 it   1 1.00000000   0.863E+00       0.000       16.128   0.100E-07
     TRS4 it   2 1.00000000   0.597E+00       0.001       32.256   0.100E-07
     TRS4 it   3 1.00000000   0.399E+00       0.001       32.256   0.100E-07
     TRS4 it   4 1.00000000   0.196E+00       0.001       32.256   0.100E-07
     TRS4 it   5 1.00000000   0.584E-01       0.001       32.256   0.100E-07
     TRS4 it   6 1.00000000   0.597E-02       0.001       32.256   0.100E-07
     TRS4 it   7 1.00000000   0.731E-04       0.001       32.256   0.100E-07
     TRS4 it   8 1.00000000   0.148E-07       0.001       32.256   0.100E-07
     Final TRS4 iteration    8 1.00000000   0.148E-07
     Chemical potential (mu):       0.00853
 
 PAO| energy:  -7.7442092919219050      penalty:   1.1673528739332431E-005
 PAO|LS| Need extra step
 PAO|LS| adapt:  T T F
 PAO|LS| adapt: scan_steps:    0.0000000000000000       0.98700580857505238        0.0000000000000000     
 PAO|LS| adapt: energies:   -7.7442014159455086       -7.7442092919219050        0.0000000000000000     
 PAO| ======================= Iteration:        32 =============================

     Lanczos converged:  T threshold:   0.100E-02
     Est. extremal eigenvalues:    0.266E+01   0.190E+00
     Est. condition number :    0.140E+02

 Order=           3
     NS sqrt iter    1 1.00000000   0.678E+00       0.001       57.095
     NS sqrt iter    2 1.00000000   0.310E+00       0.001       98.074
     NS sqrt iter    3 1.00000000   0.663E-01       0.001       97.453
     NS sqrt iter    4 1.00000000   0.126E-02       0.001       97.879
     NS sqrt iter    5 1.00000000   0.161E-07       0.001       45.827
     Symmetrizing Results
     Final NS sqrt iter    5 1.00000000   0.480E-08

     Est. extremal eigenvalues     -0.91528     1.61098  converged:  T
     TRS4 it   1 1.00000000   0.863E+00       0.000       16.128   0.100E-07
     TRS4 it   2 1.00000000   0.597E+00       0.001       32.256   0.100E-07
     TRS4 it   3 1.00000000   0.399E+00       0.001       32.256   0.100E-07
     TRS4 it   4 1.00000000   0.196E+00       0.001       32.256   0.100E-07
     TRS4 it   5 1.00000000   0.582E-01       0.001       32.256   0.100E-07
     TRS4 it   6 1.00000000   0.592E-02       0.001       32.256   0.100E-07
     TRS4 it   7 1.00000000   0.717E-04       0.001       32.256   0.100E-07
     TRS4 it   8 1.00000000   0.141E-07       0.001       32.256   0.100E-07
     Final TRS4 iteration    8 1.00000000   0.141E-07
     Chemical potential (mu):       0.00891
 
 PAO| energy:  -7.7441969608191474      penalty:   1.0225270030250602E-005
 PAO|LS| Need extra step
 PAO|LS| adapt:  T T T
 PAO|LS| adapt: scan_steps:    0.0000000000000000       0.98700580857505238        1.9740116171501048     
 PAO|LS| adapt: energies:   -7.7442014159455086       -7.7442092919219050       -7.7441969608191474     
 PAO|LS| adapt: suggested step_size:   0.87820147414114380     
 PAO|LS| adapt: predicted energy  -7.7442094147015927     
 PAO| ======================= Iteration:        33 =============================

     Lanczos converged:  T threshold:   0.100E-02
     Est. extremal eigenvalues:    0.267E+01   0.190E+00
     Est. condition number :    0.140E+02

 Order=           3
     NS sqrt iter    1 1.00000000   0.679E+00       0.001       58.436
     NS sqrt iter    2 1.00000000   0.311E+00       0.001       99.686
[...]
     NS sqrt iter    5 1.00000000   0.143E-09       0.001       31.874
     Symmetrizing Results
     Final NS sqrt iter    5 1.00000000   0.840E-10

     Est. extremal eigenvalues     -0.91523     1.36113  converged:  T
     TRS4 it   1 1.00000000   0.794E+00       0.002        6.577   0.100E-07
     TRS4 it   2 1.00000000   0.565E+00       0.001       32.256   0.100E-07
     TRS4 it   3 1.00000000   0.393E+00       0.001       32.256   0.100E-07
     TRS4 it   4 1.00000000   0.230E+00       0.001       32.256   0.100E-07
     TRS4 it   5 1.00000000   0.956E-01       0.001       32.256   0.100E-07
     TRS4 it   6 1.00000000   0.203E-01       0.001       32.256   0.100E-07
     TRS4 it   7 1.00000000   0.120E-02       0.001       32.256   0.100E-07
     TRS4 it   8 1.00000000   0.500E-05       0.001       32.256   0.100E-07
     TRS4 it   9 1.00000000   0.958E-10       0.001       32.256   0.100E-07
     Final TRS4 iteration    9 1.00000000   0.958E-10
     Chemical potential (mu):      -0.07582
 
 PAO| energy:  -7.7447144637288341      penalty:   1.4554513299594868E-011
 PAO|CG| warming up with steepest descent
 PAO|CG| beta:    0.0000000000000000     
 PAO| norm of gradient:   7.6461119502236081E-006
 PAO| energy improvement:  -2.8929747486472479E-011
 PAO| step    788                   -7.744714464  0.478E-06  0.245E+00     0.184
 PAO| converged after          788  steps :-)
 PAO| Recalculating energy after mixing.

     Lanczos converged:  T threshold:   0.100E-02
     Est. extremal eigenvalues:    0.240E+01   0.234E+00
     Est. condition number :    0.102E+02

 Order=           3
     NS sqrt iter    1 1.00000000   0.611E+00       0.002       42.237
     NS sqrt iter    2 1.00000000   0.256E+00       0.001       77.563
     NS sqrt iter    3 1.00000000   0.391E-01       0.001       76.206
     NS sqrt iter    4 1.00000000   0.240E-03       0.001       82.358
     NS sqrt iter    5 1.00000000   0.143E-09       0.001       30.510
     Symmetrizing Results
     Final NS sqrt iter    5 1.00000000   0.840E-10

     Est. extremal eigenvalues     -0.91523     1.36113  converged:  T
     TRS4 it   1 1.00000000   0.794E+00       0.001       16.128   0.100E-07
     TRS4 it   2 1.00000000   0.565E+00       0.001       32.256   0.100E-07
     TRS4 it   3 1.00000000   0.393E+00       0.001       32.256   0.100E-07
     TRS4 it   4 1.00000000   0.230E+00       0.001       32.256   0.100E-07
     TRS4 it   5 1.00000000   0.956E-01       0.001       32.256   0.100E-07
     TRS4 it   6 1.00000000   0.203E-01       0.001       32.256   0.100E-07
     TRS4 it   7 1.00000000   0.120E-02       0.001       32.256   0.100E-07
     TRS4 it   8 1.00000000   0.500E-05       0.001       32.256   0.100E-07
     TRS4 it   9 1.00000000   0.958E-10       0.001       32.256   0.100E-07
     Final TRS4 iteration    9 1.00000000   0.958E-10
     Chemical potential (mu):      -0.07582
 
 PAO| energy:  -7.7447144637216052      penalty:   1.4698385781553908E-011
 PAO| Writing restart file.
     Est. extremal eigenvalues     -0.91523     1.36113  converged:  T
     TRS4 it   1 1.00000000   0.794E+00       0.001       16.128   0.100E-07
     TRS4 it   2 1.00000000   0.565E+00       0.001       32.256   0.100E-07
     TRS4 it   3 1.00000000   0.393E+00       0.001       32.256   0.100E-07
     TRS4 it   4 1.00000000   0.230E+00       0.001       32.256   0.100E-07
     TRS4 it   5 1.00000000   0.956E-01       0.001       32.256   0.100E-07
     TRS4 it   6 1.00000000   0.203E-01       0.001       32.256   0.100E-07
     TRS4 it   7 1.00000000   0.120E-02       0.001       32.256   0.100E-07
     TRS4 it   8 1.00000000   0.500E-05       0.001       32.256   0.100E-07
     TRS4 it   9 1.00000000   0.958E-10       0.002       14.257   0.100E-07
     Final TRS4 iteration    9 1.00000000   0.958E-10
     Chemical potential (mu):      -0.07582

 SCF     1       -34.446593951       -34.446593951    4.197587

*********************************************************
 Using MIXING_FRACTION=0.450 to mix KS matrix:  iscf=  2
 KS_nw=0.450*KS + 0.550*KS_old
*********************************************************
     Est. extremal eigenvalues     -0.91523     1.36113  converged:  T
     TRS4 it   1 1.00000000   0.794E+00       0.001       16.128   0.100E-07
     TRS4 it   2 1.00000000   0.565E+00       0.001       32.256   0.100E-07
     TRS4 it   3 1.00000000   0.393E+00       0.001       32.256   0.100E-07
     TRS4 it   4 1.00000000   0.230E+00       0.001       32.256   0.100E-07
     TRS4 it   5 1.00000000   0.956E-01       0.001       32.256   0.100E-07
     TRS4 it   6 1.00000000   0.203E-01       0.001       32.256   0.100E-07
     TRS4 it   7 1.00000000   0.120E-02       0.001       32.256   0.100E-07
     TRS4 it   8 1.00000000   0.500E-05       0.001       32.256   0.100E-07
     TRS4 it   9 1.00000000   0.958E-10       0.001       32.256   0.100E-07
     Final TRS4 iteration    9 1.00000000   0.958E-10
     Chemical potential (mu):      -0.07582

 SCF     2       -34.446593951        -0.000000000    4.355649


 SCF run converged in     2 steps.

 PAO| Storing density matrix for ASPC guess in slot:           1

 ENERGY| Total FORCE_EVAL ( QS ) energy [a.u.]:              -34.446593950732023

 -------------------------------------------------------------------------------
 -                                                                             -
 -                                DBCSR STATISTICS                             -
 -                                                                             -
 -------------------------------------------------------------------------------
 COUNTER                                    TOTAL       BLAS       SMM       ACC
 flops     5 x     5 x     4                22000       0.0%    100.0%      0.0%
 flops    13 x     5 x     4                22880       0.0%    100.0%      0.0%
 flops     5 x    13 x     4                22880       0.0%    100.0%      0.0%
 flops    13 x    13 x     4                44616       0.0%    100.0%      0.0%
 flops     4 x     4 x     5              6140160       0.0%    100.0%      0.0%
 flops     5 x     4 x     5              7516800       0.0%    100.0%      0.0%
 flops     4 x     4 x    13              7982208       0.0%    100.0%      0.0%
 flops    13 x     4 x     5              9771840       0.0%    100.0%      0.0%
 flops     5 x     4 x    13              9771840       0.0%    100.0%      0.0%
 flops     5 x     4 x     4             11704320       0.0%    100.0%      0.0%
 flops    13 x     4 x    13             12703392       0.0%    100.0%      0.0%
 flops    13 x     4 x     4             15280096       0.0%    100.0%      0.0%
 flops     4 x     4 x     4            777091712       0.0%    100.0%      0.0%
 flops inhomo. stacks                           0       0.0%      0.0%      0.0%
 flops total                       858.074744E+06       0.0%    100.0%      0.0%
 flops max/rank                    858.074744E+06       0.0%    100.0%      0.0%
 matmuls inhomo. stacks                         0       0.0%      0.0%      0.0%
 matmuls total                            6323271       0.0%    100.0%      0.0%
 number of processed stacks                 50441       0.0%    100.0%      0.0%
 average stack size                                     0.0     125.4       0.0
 marketing flops                     1.402371E+09
 -------------------------------------------------------------------------------
 # multiplications                          42248
 max memory usage/rank             506.617856E+06
 # max total images/rank                        1
 # max 3D layers                                1
 # MPI messages exchanged                       0
 -------------------------------------------------------------------------------

 -------------------------------------------------------------------------------
 -                                                                             -
 -                                DBM STATISTICS                               -
 -                                                                             -
 -------------------------------------------------------------------------------
    M  x    N  x    K                                          COUNT     PERCENT
 -------------------------------------------------------------------------------

 -------------------------------------------------------------------------------
 -                                                                             -
 -                                GRID STATISTICS                              -
 -                                                                             -
 -------------------------------------------------------------------------------
 LP    KERNEL             BACKEND                              COUNT     PERCENT
 2     collocate ortho    REF                                  41844      30.74%
 2     integrate ortho    REF                                  41844      30.74%
 3     collocate ortho    REF                                  21483      15.78%
 3     integrate ortho    REF                                  21483      15.78%
 4     collocate ortho    REF                                   4730       3.47%
 4     integrate ortho    REF                                   4730       3.47%
 0     collocate general  REF                                      6       0.00%
 -------------------------------------------------------------------------------

 MEMORY| Estimated peak process memory [MiB]                                 484

 -------------------------------------------------------------------------------
 -                                                                             -
 -                           R E F E R E N C E S                               -
 -                                                                             -
 -------------------------------------------------------------------------------
 
 CP2K version 2023.1 (Development Version), the CP2K developers group (2023).
 CP2K is freely available from https://www.cp2k.org/ .

 Kuehne,Thomas D.; Iannuzzi,Marcella; Del Ben,Mauro;
 Rybkin,Vladimir V.; Seewald,Patrick; Stein,Frederick; Laino,Teodoro;
 Khaliullin,Rustam Z.; Schuett,Ole; Schiffmann,Florian; Golze,Dorothea;
 Wilhelm,Jan; Chulkov,Sergey; Bani-Hashemian,Mohammad Hossein;
 Weber,Valery; Borstnik,Urban; Taillefumier,Mathieu;
 Jakobovits,Alice Shoshana; Lazzaro,Alfio; Pabst,Hans; Mueller,Tiziano;
 Schade,Robert; Guidon,Manuel; Andermatt,Samuel; Holmberg,Nico;
 Schenter,Gregory K.; Hehn,Anna; Bussy,Augustin; Belleflamme,Fabian;
 Tabacchi,Gloria; Gloess,Andreas; Lass,Michael; Bethune,Iain;
 Mundy,Christopher J.; Plessl,Christian; Watkins,Matt;
 VandeVondele,Joost; Krack,Matthias; Hutter,Juerg. 
 The Journal of Chemical Physics, 152 (19), (2020). 
 CP2K: An electronic structure and molecular dynamics software package -
 Quickstep: Efficient and accurate electronic structure calculations.
 https://doi.org/10.1063/5.0007045

 Schuett, O; VandeVondele, J. 
 Journal of Chemical Theory and Computation, 14, (2018). 
 Machine Learning Adaptive Basis Sets for Efficient Large Scale
 Density Functional Theory Simulation.
 https://doi.org/10.1021/acs.jctc.8b00378

 Schuett, Ole; Messmer, Peter; Hutter, Juerg; VandeVondele, Joost. 
 Electronic Structure Calculations on Graphics Processing Units, John
 Wiley & Sons, Ltd, 173-190 (2016). 
 GPU-Accelerated Sparse Matrix-Matrix Multiplication for
 Linear Scaling Density Functional Theory.
 https://doi.org/10.1002/9781118670712.ch8

 Heinecke, A; Henry, G; Hutchinson, M; Pabst, H. 
 Proceedings of Intl. Supercomputing Conference, 981-991 (2016). 
 LIBXSMM: Accelerating Small Matrix Multiplications
 by Runtime Code Generation.
 https://doi.org/10.1109/SC.2016.83

 Borstnik, U; VandeVondele, J; Weber, V; Hutter, J. 
 PARALLEL COMPUTING, 40 (5-6), 47-58 (2014). 
 Sparse matrix multiplication: The distributed block-compressed sparse
 row library.
 https://doi.org/10.1016/j.parco.2014.03.012

 Hutter, J; Iannuzzi, M; Schiffmann, F; VandeVondele, J. 
 WIREs Comput Mol Sci., 4 (1), 15-25 (2014). 
 CP2K: atomistic simulations of condensed matter systems.
 https://doi.org/10.1002/wcms.1159

 VandeVondele, J; Borstnik, U; Hutter, J. 
 JOURNAL OF CHEMICAL THEORY AND COMPUTATION, 8 (10), 3565-3573 (2012). 
 Linear Scaling Self-Consistent Field Calculations with Millions of Atoms
 in the Condensed Phase.
 https://doi.org/10.1021/ct200897x

 VandeVondele, J; Hutter, J. 
 JOURNAL OF CHEMICAL PHYSICS, 127 (11), 114105 (2007). 
 Gaussian basis sets for accurate calculations on molecular systems in
 gas and condensed phases.
 https://doi.org/10.1063/1.2770708

 Krack, M. 
 THEORETICAL CHEMISTRY ACCOUNTS, 114 (1-3), 145-152 (2005). 
 Pseudopotentials for H to Kr optimized for gradient-corrected
 exchange-correlation functionals.
 https://doi.org/10.1007/s00214-005-0655-y

 VandeVondele, J; Krack, M; Mohamed, F; Parrinello, M; Chassaing, T;
 Hutter, J. COMPUTER PHYSICS COMMUNICATIONS, 167 (2), 103-128 (2005). 
 QUICKSTEP: Fast and accurate density functional calculations using a
 mixed Gaussian and plane waves approach.
 https://doi.org/10.1016/j.cpc.2004.12.014

 Frigo, M; Johnson, SG. 
 PROCEEDINGS OF THE IEEE, 93 (2), 216-231 (2005). 
 The design and implementation of FFTW3.
 https://doi.org/10.1109/JPROC.2004.840301

 Niklasson, AMN; Tymczak, CJ; Challacombe, M. 
 JOURNAL OF CHEMICAL PHYSICS, 118 (19), 8611-8620 (2003). 
 Trace resetting density matrix purification in O(N)
 self-consistent-field theory.
 https://doi.org/10.1063/1.1559913

 Hartwigsen, C; Goedecker, S; Hutter, J. 
 PHYSICAL REVIEW B, 58 (7), 3641-3662 (1998). 
 Relativistic separable dual-space Gaussian pseudopotentials from H to Rn.
 https://doi.org/10.1103/PhysRevB.58.3641

 Lippert, G; Hutter, J; Parrinello, M. 
 MOLECULAR PHYSICS, 92 (3), 477-487 (1997). 
 A hybrid Gaussian and plane wave density functional scheme.
 https://doi.org/10.1080/002689797170220

 Perdew, JP; Burke, K; Ernzerhof, M. 
 PHYSICAL REVIEW LETTERS, 77 (18), 3865-3868 (1996). 
 Generalized gradient approximation made simple.
 https://doi.org/10.1103/PhysRevLett.77.3865

 Goedecker, S; Teter, M; Hutter, J. 
 PHYSICAL REVIEW B, 54 (3), 1703-1710 (1996). 
 Separable dual-space Gaussian pseudopotentials.
 https://doi.org/10.1103/PhysRevB.54.1703


 -------------------------------------------------------------------------------
 -                                                                             -
 -                                T I M I N G                                  -
 -                                                                             -
 -------------------------------------------------------------------------------
 SUBROUTINE                       CALLS  ASD         SELF TIME        TOTAL TIME
                                MAXIMUM       AVERAGE  MAXIMUM  AVERAGE  MAXIMUM
 CP2K                                 1  1.0    0.020    0.020   67.898   67.898
 qs_energies                          1  2.0    0.000    0.000   67.136   67.136
 ls_scf                               1  3.0    0.000    0.000   66.947   66.947
 ls_scf_main                          5  4.0    0.001    0.001   42.569   42.569
 ls_scf_dm_to_ks                     10  5.0    0.000    0.000   42.461   42.461
 qs_ks_update_qs_env                 11  6.0    0.000    0.000   34.712   34.712
 rebuild_ks_matrix                   11  7.0    0.000    0.000   34.711   34.711
 qs_ks_build_kohn_sham_matrix        11  8.0    0.004    0.004   34.711   34.711
 qs_vxc_create                       11  9.0    0.000    0.000   20.419   20.419
 xc_vxc_pw_create                    11 10.0    0.333    0.333   20.419   20.419
 pao_update                           5  4.0    0.016    0.016   19.131   19.131
 pw_transfer                        210 11.1    0.031    0.031   18.784   18.784
 fft_wrap_pw1pw2                    188 12.3    0.004    0.004   18.327   18.327
 fft_wrap_pw1pw2_200                122 13.7    1.676    1.676   17.619   17.619
 pao_calc_energy                    792  5.0    0.006    0.006   17.321   17.321
 dbcsr_multiply_generic           42248  8.4    0.905    0.905   13.733   13.733
 qs_rho_update_rho_low               11  6.0    0.000    0.000   12.878   12.878
 calculate_rho_elec                  11  7.0    0.090    0.090   12.878   12.878
 xc_rho_set_and_dset_create          11 11.0    0.429    0.429   12.585   12.585
 xc_pw_derive                        66 12.0    0.002    0.002   12.199   12.199
 sum_up_and_integrate                11  9.0    0.329    0.329   11.107   11.107
 integrate_v_rspace                  11 10.0    0.001    0.001   10.777   10.777
 pao_dm_trs4                        792  6.0    0.005    0.005    8.899    8.899
 grid_integrate_task_list            11 11.0    8.447    8.447    8.447    8.447
 density_matrix_trs4                802  7.0    0.337    0.337    8.390    8.390
 ls_scf_init_matrix_S               797  7.0    0.005    0.005    8.361    8.361
 pao_rebuild_S                      792  6.0    0.003    0.003    8.272    8.272
 grid_collocate_task_list            11  8.0    8.257    8.257    8.257    8.257
 fft3d_s                            189 14.2    7.842    7.842    7.899    7.899
 matrix_sqrt_Newton_Schulz          797  8.0    0.156    0.156    7.520    7.520
 xc_pw_divergence                    11 11.0    0.001    0.001    7.246    7.246
 make_m2s                         84496  9.4    0.361    0.361    5.249    5.249
 pao_guess_initial_P                  1  4.0    0.000    0.000    5.139    5.139
 pao_read_preopt_dm                   1  5.0    0.000    0.000    5.139    5.139
 multiply_cannon                  42248  9.4    2.131    2.131    4.935    4.935
 xc_functional_eval                  11 12.0    0.000    0.000    4.618    4.618
 pbe_lda_eval                        11 13.0    4.618    4.618    4.618    4.618
 make_images                      84496 10.4    1.227    1.227    4.591    4.591
 density_rs2pw                       11  8.0    0.001    0.001    4.531    4.531
 pw_scatter_s                        99 14.7    4.414    4.414    4.414    4.414
 pw_gather_s                         89 13.8    4.243    4.243    4.243    4.243
 arnoldi_extremal                  1599  8.5    0.006    0.006    2.777    2.777
 arnoldi_normal_ev                 1599  9.5    0.019    0.019    2.771    2.771
 potential_pw2rs                     11 11.0    0.006    0.006    2.328    2.328
 pw_derive                           66 13.0    2.259    2.259    2.259    2.259
 build_subspace                    1599 10.5    0.108    0.108    2.173    2.173
 dbcsr_matrix_vector_mult         38372 11.5    0.204    0.204    1.987    1.987
 pao_calc_AB                       1043  5.8    0.001    0.001    1.831    1.831
 pao_calc_AB_equi                  1043  6.8    0.076    0.076    1.830    1.830
 pw_copy                            132 11.8    1.756    1.756    1.756    1.756
 pao_calc_grad_lnv_wrt_AB           250  7.0    0.011    0.011    1.622    1.622
 dbcsr_create_new                324423 10.7    0.941    0.941    1.447    1.447
 dbcsr_finalize                  100889  9.6    0.285    0.285    1.439    1.439
 -------------------------------------------------------------------------------

 The number of warnings for this run is : 0
 
 -------------------------------------------------------------------------------
  **** **** ******  **  PROGRAM ENDED AT                 2023-02-01 10:49:03.646
 ***** ** ***  *** **   PROGRAM RAN ON                                    moritz
 **    ****   ******    PROGRAM RAN BY                                       ole
 ***** **    ** ** **   PROGRAM PROCESS ID                                148765
  **** **  *******  **  PROGRAM STOPPED IN /home/ole/git/pao_ml_equivar/2H2O_MD/
                                           frame_1175
