 DBCSR| CPU Multiplication driver                                           XSMM (U)
 DBCSR| Multrec recursion limit                                              512 (U)
 DBCSR| Multiplication stack size                                           1000 (D)
 DBCSR| Maximum elements for images                                    UNLIMITED (U)
 DBCSR| Multiplicative factor virtual images                                   1 (U)
 DBCSR| Use multiplication densification                                       T (D)
 DBCSR| Multiplication size stacks                                             3 (U)
 DBCSR| Use memory pool for CPU allocation                                     F (U)
 DBCSR| Number of 3D layers                                               SINGLE (U)
 DBCSR| Use MPI memory allocation                                              F (U)
 DBCSR| Use RMA algorithm                                                      F (U)
 DBCSR| Use Communication thread                                               T (U)
 DBCSR| Communication thread load                                             87 (D)
 DBCSR| MPI: My process id                                                     0
 DBCSR| MPI: Number of processes                                              32
 DBCSR| OMP: Current number of threads                                         1
 DBCSR| OMP: Max number of threads                                             1
 DBCSR| Split modifier for TAS multiplication algorithm                  1.0E+00 (U)


  **** **** ******  **  PROGRAM STARTED AT               2024-09-24 02:29:42.582
 ***** ** ***  *** **   PROGRAM STARTED ON                                moritz
 **    ****   ******    PROGRAM STARTED BY                                   ole
 ***** **    ** ** **   PROGRAM PROCESS ID                                166973
  **** **  *******  **  PROGRAM STARTED IN /home/ole/git/pao_ml_equivar/64H2O_MD
                                           /Frame3400

 CP2K| version string:                 CP2K version 2024.3 (Development Version)
 CP2K| source code revision number:                                  git:3f890bb
 CP2K| cp2kflags: omp libint fftw3 libxc libgrpp pexsi elpa parallel scalapack c
 CP2K|            osma quip deepmd xsmm plumed2 spglib libdftd4 sirius libvori l
 CP2K|            libbqb libvdwxc hdf5
 CP2K| is freely available from                            https://www.cp2k.org/
 CP2K| Program compiled at                          Mo 23 Sep 2024 17:17:04 CEST
 CP2K| Program compiled on                                                moritz
 CP2K| Program compiled for                                                local
 CP2K| Data directory path                               /home/ole/git/cp2k/data
 CP2K| Input file name                                           64H2O_pao44.inp

 GLOBAL| Force Environment number                                              1
 GLOBAL| Basis set file name                                        BASIS_MOLOPT
 GLOBAL| Potential file name                                      GTH_POTENTIALS
 GLOBAL| MM Potential file name                                     MM_POTENTIAL
 GLOBAL| Coordinate file name                                         coords.xyz
 GLOBAL| Method name                                                        CP2K
 GLOBAL| Project name                                                64H2O_pao44
 GLOBAL| Run type                                                         ENERGY
 GLOBAL| FFT library                                                       FFTW3
 GLOBAL| Diagonalization library                                            ELPA
 GLOBAL| DGEMM library                                                      BLAS
 GLOBAL| Minimum number of eigenvectors for ELPA usage                        16
 GLOBAL| Orthonormality check for eigenvectors                          DISABLED
 GLOBAL| Matrix multiplication library                                     COSMA
 GLOBAL| All-to-all communication in single precision                          F
 GLOBAL| FFTs using library dependent lengths                                  F
 GLOBAL| Grid backend                                                       AUTO
 GLOBAL| Global print level                                                  LOW
 GLOBAL| MPI I/O enabled                                                       T
 GLOBAL| Total number of message passing processes                            32
 GLOBAL| Number of threads for this process                                    1
 GLOBAL| This output is from process                                           0
 GLOBAL| Stack size for threads created by OpenMP (OMP_STACKSIZE)        default
 GLOBAL| CPU model name           AMD Ryzen Threadripper 3970X 32-Core Processor
 GLOBAL| CPUID                                                              1002

 MEMORY| system memory details [Kb]
 MEMORY|                        rank 0           min           max       average
 MEMORY| MemTotal            131752136     131752136     131752136     131752136
 MEMORY| MemFree             114357020     114357020     114357020     114357020
 MEMORY| Buffers               2006792       2006792       2006792       2006792
 MEMORY| Cached                8663524       8663520       8663524       8663520
 MEMORY| Slab                  1642736       1642736       1642736       1642736
 MEMORY| SReclaimable          1144272       1144272       1144272       1144272
 MEMORY| MemLikelyFree       126171608     126171604     126171608     126171604


 GENERATE|  Preliminary Number of Bonds generated:                             0
 GENERATE|  Achieved consistency in connectivity generation.

 *******************************************************************************
 *******************************************************************************
 **                                                                           **
 **     #####                         ##              ##                      **
 **    ##   ##            ##          ##              ##                      **
 **   ##     ##                       ##            ######                    **
 **   ##     ##  ##   ##  ##   #####  ##  ##   ####   ##    #####    #####    **
 **   ##     ##  ##   ##  ##  ##      ## ##   ##      ##   ##   ##  ##   ##   **
 **   ##  ## ##  ##   ##  ##  ##      ####     ###    ##   ######   ######    **
 **    ##  ###   ##   ##  ##  ##      ## ##      ##   ##   ##       ##        **
 **     #######   #####   ##   #####  ##  ##  ####    ##    #####   ##        **
 **           ##                                                    ##        **
 **                                                                           **
 **                                                ... make the atoms dance   **
 **                                                                           **
 **            Copyright (C) by CP2K developers group (2000-2024)             **
 **                      J. Chem. Phys. 152, 194103 (2020)                    **
 **                                                                           **
 *******************************************************************************


 TOTAL NUMBERS AND MAXIMUM NUMBERS

  Total number of            - Atomic kinds:                                   2
                             - Atoms:                                        192
                             - Shell sets:                                   192
                             - Shells:                                       704
                             - Primitive Cartesian functions:               1344
                             - Cartesian basis functions:                   1536
                             - Spherical basis functions:                   1472

  Maximum angular momentum of- Orbital basis functions:                        2
                             - Local part of the GTH pseudopotential:          2
                             - Non-local part of the GTH pseudopotential:      0

 ------------------------------ Linear scaling SCF -----------------------------
 eps_scf:                                                              0.100E-07
 eps_filter:                                                           0.100E-11
 mixing_fraction:                                                      0.450E+00
 max_scf:                                                                     25
 fixed chemical potential (mu)                                                 F
 has unit metric:                                                              F
 Computing inv(S):                                                             T
 Computing sqrt(S):                                                            T
 Computing S preconditioner                                                    F
 S sqrt method:                                                     NEWTONSCHULZ
 S sqrt order:                                                                 3
 Extrapolation order:                                                          1
 S preconditioner type                                                      NONE
 Polarized Atomic Orbitals (PAO)                                               T
 Purification method                                   Trace resetting 4th order
 Cluster type                                                             ATOMIC
 Computing Chebyshev                                                       FALSE
 Using PAO                                                                     T
 -------------------------------------------------------------------------------

 
 PAO|                                  EPS_PAO                           0.5E-06
 PAO|                                  MIXING                            0.5E+00
 PAO|                                  MAX_PAO                              1500
 PAO|                                  MAX_CYCLES                           1000
 PAO|                                  PARAMETERIZATION              EQUIVARIANT
 PAO|                                  PRECONDITION                            F
 PAO|                                  REGULARIZATION                    0.0E+00
 PAO|                                  EPS_PGF                           0.1E-09
 PAO|                                  PENALTY_DISTANCE                  0.1E+00
 PAO|                                  PENALTY_STRENGTH                  0.5E-02
 PAO|                                  LINPOT_PRECONDITION_DELTA         0.0E+00
 PAO|                                  LINPOT_INITGUESS_DELT             0.0E+00
 PAO|                                  LINPOT_REGULARIZATION_DELTA       0.0E+00
 PAO|                                  LINPOT_REGULARIZATION_STRENGTH    0.0E+00
 PAO|                                  OPTIMIZER                              CG
 PAO|                                  CG_INIT_STEPS                           2
 PAO|                                  CG_RESET_LIMIT                    0.1E+00
 PAO|                                  CHECK_UNITARY_TOL                -0.1E+01
 PAO|                                  CHECK_GRADIENT_TOL               -0.1E+01
 PAO|                                  NUM_GRADIENT_ORDER                      2
 PAO|                                  NUM_GRADIENT_EPS                  0.1E-07
 PAO|                                  PRINT%RESTART%WRITE_CYCLES            100
 PAO|                                  RESTART_FILE 
 PAO|                                  PREOPT_DM_FILE 64H2O_ref_LS_DM_SPIN_1_RESTART.dm
 PAO|                                  MACHINE_LEARNING%METHOD       GAUSSIAN_PR
 PAO|                                  MACHINE_LEARNING%PRIOR               ZERO
 PAO|                                  MACHINE_LEARNING%DESCRIPTOR     POTENTIAL
 PAO|                                  MACHINE_LEARNING%TOLERANCE        0.1E-01
 PAO|                                  MACHINE_LEARNING%GP_NOISE_VAR     0.1E+00
 PAO|                                  MACHINE_LEARNING%GP_SCALE         0.5E-01
 

 Calculating atomic Fock matrix for atomic kind: O

 Electronic structure
    Total number of core electrons                                          2.00
    Total number of valence electrons                                       6.00
    Total number of electrons                                               8.00
    Multiplicity                                                   not specified
    S   [  2.00] 2.00
    P      4.00


 *******************************************************************************
                  Iteration          Convergence                     Energy [au]
 *******************************************************************************
                          1        0.708315                     -15.576645311500
                          2        0.608879                     -15.587933561584
                          3        0.102828E-01                 -15.656849565404
                          4        0.113889E-02                 -15.656866888140
                          5        0.434197E-03                 -15.656867072159
                          6        0.263771E-03                 -15.656867091904
                          7        0.478536E-06                 -15.656867103452

 Energy components [Hartree]           Total Energy ::          -15.656867103452
                                        Band Energy ::           -3.000198112285
                                     Kinetic Energy ::           11.759971203220
                                   Potential Energy ::          -27.416838306672
                                      Virial (-V/T) ::            2.331369510426
                                        Core Energy ::          -26.140716385623
                                          XC Energy ::           -3.154051012914
                                     Coulomb Energy ::           13.637900295084
                       Total Pseudopotential Energy ::          -37.935781716540
                       Local Pseudopotential Energy ::          -39.218907440693
                    Nonlocal Pseudopotential Energy ::            1.283125724153
                                        Confinement ::            0.350941276976

 Orbital energies  State     L     Occupation   Energy[a.u.]          Energy[eV]

                       1     0          2.000      -0.864471          -23.523463

                       1     1          4.000      -0.317814           -8.648154


 Total Electron Density at R=0:                                         0.000068

 Calculating atomic Fock matrix for atomic kind: H

 Electronic structure
    Total number of core electrons                                          0.00
    Total number of valence electrons                                       1.00
    Total number of electrons                                               1.00
    Multiplicity                                                   not specified
    S      1.00


 *******************************************************************************
                  Iteration          Convergence                     Energy [au]
 *******************************************************************************
                          1        0.437545E-02                  -0.424159432110
                          2        0.531356E-03                  -0.424178438213
                          3        0.259176E-06                  -0.424178722480

 Energy components [Hartree]           Total Energy ::           -0.424178722480
                                        Band Energy ::           -0.199015229016
                                     Kinetic Energy ::            0.464007633961
                                   Potential Energy ::           -0.888186356441
                                      Virial (-V/T) ::            1.914163240935
                                        Core Energy ::           -0.479160803564
                                          XC Energy ::           -0.244352904054
                                     Coulomb Energy ::            0.299334985138
                       Total Pseudopotential Energy ::           -0.962295316385
                       Local Pseudopotential Energy ::           -0.962295316385
                    Nonlocal Pseudopotential Energy ::            0.000000000000
                                        Confinement ::            0.191268788606

 Orbital energies  State     L     Occupation   Energy[a.u.]          Energy[eV]

                       1     0          1.000      -0.199015           -5.415480


 Total Electron Density at R=0:                                         0.242907
 PAO| Made initial guess for matrix_X with norm:   27.712812921102035     

     Lanczos converged:  F threshold:   0.100E-02
     Est. extremal eigenvalues:    0.623E+01   0.947E-01
     Est. condition number :    0.658E+02

 Order=           3
     NS sqrt iter    1 1.00000000   0.153E+01       0.021     2669.730
     NS sqrt iter    2 1.00000000   0.824E+00       0.034     3362.945
     NS sqrt iter    3 1.00000000   0.331E+00       0.034     3319.773
     NS sqrt iter    4 1.00000000   0.931E-01       0.034     3342.981
     NS sqrt iter    5 1.00000000   0.344E-02       0.034     3350.458
     NS sqrt iter    6 1.00000000   0.321E-06       0.029     2920.002
     Symmetrizing Results
     Final NS sqrt iter    6 1.00000000   0.183E-12

 PAO| Read restart DM 64H2O_ref_LS_DM_SPIN_1_RESTART.dm with checksum:    6075.7499278727673     
 PAO| Quickstep energy from restart density:  -1103.0843593312720     
 PAO| ======================= Iteration:         1 =============================

     Lanczos converged:  F threshold:   0.100E-02
     Est. extremal eigenvalues:    0.623E+01   0.947E-01
     Est. condition number :    0.658E+02

 Order=           3
     NS sqrt iter    1 1.00000000   0.153E+01       0.021     2700.308
     NS sqrt iter    2 1.00000000   0.824E+00       0.034     3363.365
     NS sqrt iter    3 1.00000000   0.331E+00       0.034     3364.498
     NS sqrt iter    4 1.00000000   0.931E-01       0.033     3383.059
     NS sqrt iter    5 1.00000000   0.344E-02       0.034     3377.437
     NS sqrt iter    6 1.00000000   0.321E-06       0.029     2942.510
     Symmetrizing Results
     Final NS sqrt iter    6 1.00000000   0.183E-12

     Est. extremal eigenvalues     -0.81530     2.64567  converged:  T
     TRS4 it   1 1.00000000   0.274E+02       0.007     2116.166   0.100E-11
     TRS4 it   2 1.00000000   0.238E+02       0.013     2174.490   0.100E-11
     TRS4 it   3 1.00000000   0.160E+02       0.013     2186.678   0.100E-11
     TRS4 it   4 1.00000000   0.999E+01       0.013     2162.231   0.100E-11
     TRS4 it   5 1.00000000   0.484E+01       0.013     2191.976   0.100E-11
     TRS4 it   6 1.00000000   0.163E+01       0.013     2172.652   0.100E-11
     TRS4 it   7 1.00000000   0.326E+00       0.013     2169.198   0.100E-11
     TRS4 it   8 1.00000000   0.232E-01       0.013     2197.961   0.100E-11
     TRS4 it   9 1.00000000   0.213E-03       0.013     2201.160   0.100E-11
     TRS4 it  10 1.00000000   0.211E-07       0.013     2193.896   0.100E-11
     TRS4 it  11 1.00000000   0.355E-14       0.013     2171.338   0.100E-11
     Final TRS4 iteration   11 1.00000000   0.355E-14
     Chemical potential (mu):       0.01002
 
 PAO| energy:  -185.85019979114955      penalty:   1.3835880720477904E-031
 PAO|CG| warming up with steepest descent
 PAO|CG| beta:    0.0000000000000000     
 PAO| norm of gradient:   4.0065468975522132     
 PAO|LS| adapt:  T F F
 PAO|LS| adapt: scan_steps:    0.0000000000000000        0.0000000000000000        0.0000000000000000     
 PAO|LS| adapt: energies:   -185.85019979114955        0.0000000000000000        0.0000000000000000     
 PAO| ======================= Iteration:         2 =============================

     Lanczos converged:  F threshold:   0.100E-02
     Est. extremal eigenvalues:    0.600E+01   0.100E+00
     Est. condition number :    0.600E+02

 Order=           3
     NS sqrt iter    1 1.00000000   0.148E+01       0.021     2683.701
     NS sqrt iter    2 1.00000000   0.794E+00       0.034     3364.857
     NS sqrt iter    3 1.00000000   0.310E+00       0.034     3363.802
     NS sqrt iter    4 1.00000000   0.781E-01       0.034     3346.706
     NS sqrt iter    5 1.00000000   0.213E-02       0.034     3342.996
     NS sqrt iter    6 1.00000000   0.916E-07       0.030     2865.900
     Symmetrizing Results
     Final NS sqrt iter    6 1.00000000   0.206E-13

     Est. extremal eigenvalues     -0.81882     2.64572  converged:  T
     TRS4 it   1 1.00000000   0.276E+02       0.007     2135.279   0.100E-11
     TRS4 it   2 1.00000000   0.238E+02       0.013     2217.966   0.100E-11
     TRS4 it   3 1.00000000   0.159E+02       0.013     2180.716   0.100E-11
     TRS4 it   4 1.00000000   0.979E+01       0.013     2168.532   0.100E-11
     TRS4 it   5 1.00000000   0.463E+01       0.013     2188.453   0.100E-11
     TRS4 it   6 1.00000000   0.150E+01       0.013     2205.867   0.100E-11
     TRS4 it   7 1.00000000   0.278E+00       0.013     2196.424   0.100E-11
     TRS4 it   8 1.00000000   0.165E-01       0.013     2179.988   0.100E-11
     TRS4 it   9 1.00000000   0.974E-04       0.013     2185.818   0.100E-11
     TRS4 it  10 1.00000000   0.509E-08       0.013     2173.661   0.100E-11
     TRS4 it  11 1.00000000   0.160E-13       0.013     2189.331   0.100E-11
     Final TRS4 iteration   11 1.00000000   0.160E-13
     Chemical potential (mu):       0.01598
 
 PAO| energy:  -187.32300653654374      penalty:   4.8241511108634982E-007
 PAO|LS| adapt:  T T F
 PAO|LS| adapt: scan_steps:    0.0000000000000000       0.10000000000000001        0.0000000000000000     
 PAO|LS| adapt: energies:   -185.85019979114955       -187.32300653654374        0.0000000000000000     
 PAO| ======================= Iteration:         3 =============================

     Lanczos converged:  F threshold:   0.100E-02
     Est. extremal eigenvalues:    0.578E+01   0.104E+00
     Est. condition number :    0.553E+02

 Order=           3
     NS sqrt iter    1 1.00000000   0.143E+01       0.021     2678.218
     NS sqrt iter    2 1.00000000   0.763E+00       0.034     3352.285
     NS sqrt iter    3 1.00000000   0.290E+00       0.034     3352.748
     NS sqrt iter    4 1.00000000   0.653E-01       0.034     3356.589
     NS sqrt iter    5 1.00000000   0.133E-02       0.034     3357.468
     NS sqrt iter    6 1.00000000   0.278E-07       0.029     2910.064
     Symmetrizing Results
     Final NS sqrt iter    6 1.00000000   0.370E-14

     Est. extremal eigenvalues     -0.82211     2.64621  converged:  T
     TRS4 it   1 1.00000000   0.279E+02       0.007     2106.250   0.100E-11
     TRS4 it   2 1.00000000   0.238E+02       0.013     2196.858   0.100E-11
     TRS4 it   3 1.00000000   0.158E+02       0.013     2205.882   0.100E-11
     TRS4 it   4 1.00000000   0.961E+01       0.013     2218.863   0.100E-11
     TRS4 it   5 1.00000000   0.443E+01       0.013     2172.204   0.100E-11
     TRS4 it   6 1.00000000   0.137E+01       0.013     2190.879   0.100E-11
     TRS4 it   7 1.00000000   0.236E+00       0.013     2184.171   0.100E-11
     TRS4 it   8 1.00000000   0.114E-01       0.013     2172.392   0.100E-11
     TRS4 it   9 1.00000000   0.410E-04       0.013     2194.107   0.100E-11
     TRS4 it  10 1.00000000   0.105E-08       0.013     2167.075   0.100E-11
     TRS4 it  11 1.00000000   0.888E-14       0.013     2218.507   0.100E-11
     Final TRS4 iteration   11 1.00000000   0.888E-14
     Chemical potential (mu):       0.02285
 
 PAO| energy:  -188.51409748393988      penalty:   7.7186417773922274E-006
 PAO|LS| adapt:  T T F
 PAO|LS| adapt: scan_steps:    0.0000000000000000       0.20000000000000001        0.0000000000000000     
 PAO|LS| adapt: energies:   -185.85019979114955       -188.51409748393988        0.0000000000000000     
 PAO| ======================= Iteration:         4 =============================

     Lanczos converged:  T threshold:   0.100E-02
     Est. extremal eigenvalues:    0.535E+01   0.113E+00
     Est. condition number :    0.474E+02

 Order=           3
     NS sqrt iter    1 1.00000000   0.134E+01       0.021     2693.632
     NS sqrt iter    2 1.00000000   0.705E+00       0.034     3357.050
     NS sqrt iter    3 1.00000000   0.251E+00       0.033     3381.975
     NS sqrt iter    4 1.00000000   0.455E-01       0.034     3357.260
     NS sqrt iter    5 1.00000000   0.540E-03       0.034     3344.975
     NS sqrt iter    6 1.00000000   0.261E-08       0.029     2856.588
     Symmetrizing Results
     Final NS sqrt iter    6 1.00000000   0.140E-13

     Est. extremal eigenvalues     -0.82741     2.64750  converged:  T
     TRS4 it   1 1.00000000   0.283E+02       0.007     2095.296   0.100E-11
     TRS4 it   2 1.00000000   0.238E+02       0.013     2193.221   0.100E-11
     TRS4 it   3 1.00000000   0.156E+02       0.013     2210.843   0.100E-11
     TRS4 it   4 1.00000000   0.928E+01       0.013     2173.087   0.100E-11
     TRS4 it   5 1.00000000   0.407E+01       0.013     2183.770   0.100E-11
     TRS4 it   6 1.00000000   0.115E+01       0.013     2202.652   0.100E-11
     TRS4 it   7 1.00000000   0.167E+00       0.013     2187.105   0.100E-11
     TRS4 it   8 1.00000000   0.521E-02       0.013     2214.862   0.100E-11
     TRS4 it   9 1.00000000   0.672E-05       0.013     2149.628   0.100E-11
     TRS4 it  10 1.00000000   0.309E-10       0.013     2203.063   0.100E-11
     Final TRS4 iteration   10 1.00000000   0.309E-10
     Chemical potential (mu):       0.04249
 
 PAO| energy:  -190.00772507270250      penalty:   1.2349826843836316E-004
 PAO|LS| Need extra step
 PAO|LS| adapt:  T T F
 PAO|LS| adapt: scan_steps:    0.0000000000000000       0.40000000000000002        0.0000000000000000     
 PAO|LS| adapt: energies:   -185.85019979114955       -190.00772507270250        0.0000000000000000     
 PAO| ======================= Iteration:         5 =============================

     Lanczos converged:  T threshold:   0.100E-02
     Est. extremal eigenvalues:    0.467E+01   0.127E+00
     Est. condition number :    0.367E+02

 Order=           3
     NS sqrt iter    1 1.00000000   0.121E+01       0.021     2687.029
     NS sqrt iter    2 1.00000000   0.614E+00       0.034     3369.550
     NS sqrt iter    3 1.00000000   0.193E+00       0.034     3335.836
     NS sqrt iter    4 1.00000000   0.236E-01       0.034     3374.669
     NS sqrt iter    5 1.00000000   0.102E-03       0.034     3344.701
     NS sqrt iter    6 1.00000000   0.269E-10       0.018     2215.194
     Symmetrizing Results
     Final NS sqrt iter    6 1.00000000   0.209E-11

     Est. extremal eigenvalues     -0.83043     2.64775  converged:  T
     TRS4 it   1 1.00000000   0.289E+02       0.007     2098.837   0.100E-11
     TRS4 it   2 1.00000000   0.238E+02       0.013     2187.991   0.100E-11
     TRS4 it   3 1.00000000   0.154E+02       0.013     2173.203   0.100E-11
     TRS4 it   4 1.00000000   0.879E+01       0.013     2194.327   0.100E-11
     TRS4 it   5 1.00000000   0.355E+01       0.013     2174.000   0.100E-11
     TRS4 it   6 1.00000000   0.854E+00       0.013     2180.736   0.100E-11
     TRS4 it   7 1.00000000   0.900E-01       0.013     2203.302   0.100E-11
     TRS4 it   8 1.00000000   0.140E-02       0.013     2194.847   0.100E-11
     TRS4 it   9 1.00000000   0.466E-06       0.013     2166.630   0.100E-11
     TRS4 it  10 1.00000000   0.130E-12       0.013     2169.661   0.100E-11
     Final TRS4 iteration   10 1.00000000   0.130E-12
     Chemical potential (mu):       0.06540
 
 PAO| energy:  -189.57190799697605      penalty:   1.9759722950145019E-003
 PAO|LS| Need extra step
 PAO|LS| adapt:  T T T
 PAO|LS| adapt: scan_steps:    0.0000000000000000       0.40000000000000002       0.80000000000000004     
 PAO|LS| adapt: energies:   -185.85019979114955       -190.00772507270250       -189.57190799697605     
 PAO|LS| adapt: suggested step_size:   0.56204793443834833     
 PAO|LS| adapt: predicted energy  -190.38465952728777     
 PAO| ======================= Iteration:         6 =============================

     Lanczos converged:  F threshold:   0.100E-02
     Est. extremal eigenvalues:    0.504E+01   0.119E+00
     Est. condition number :    0.423E+02

 Order=           3
     NS sqrt iter    1 1.00000000   0.128E+01       0.021     2700.780
     NS sqrt iter    2 1.00000000   0.663E+00       0.034     3373.392
     NS sqrt iter    3 1.00000000   0.225E+00       0.034     3335.796
     NS sqrt iter    4 1.00000000   0.343E-01       0.034     3335.277
     NS sqrt iter    5 1.00000000   0.267E-03       0.034     3346.278
     NS sqrt iter    6 1.00000000   0.385E-09       0.028     2658.929
     Symmetrizing Results
     Final NS sqrt iter    6 1.00000000   0.519E-12

     Est. extremal eigenvalues     -0.83000     2.64798  converged:  T
     TRS4 it   1 1.00000000   0.285E+02       0.007     2091.348   0.100E-11
     TRS4 it   2 1.00000000   0.238E+02       0.013     2198.840   0.100E-11
     TRS4 it   3 1.00000000   0.155E+02       0.013     2169.896   0.100E-11
     TRS4 it   4 1.00000000   0.906E+01       0.013     2197.696   0.100E-11
     TRS4 it   5 1.00000000   0.383E+01       0.013     2203.607   0.100E-11
     TRS4 it   6 1.00000000   0.101E+01       0.013     2174.314   0.100E-11
     TRS4 it   7 1.00000000   0.127E+00       0.013     2175.818   0.100E-11
     TRS4 it   8 1.00000000   0.287E-02       0.013     2168.252   0.100E-11
     TRS4 it   9 1.00000000   0.189E-05       0.013     2185.021   0.100E-11
     TRS4 it  10 1.00000000   0.228E-11       0.013     2156.299   0.100E-11
     Final TRS4 iteration   10 1.00000000   0.228E-11
     Chemical potential (mu):       0.05327
 
 PAO| energy:  -190.35783747034327      penalty:   4.8140913554356593E-004
 PAO|CG| warming up with steepest descent
 PAO|CG| beta:    0.0000000000000000     
 PAO| norm of gradient:   2.1216866125065570     
 PAO| energy improvement:  -4.5076376791937207     
 PAO| step      6                 -190.357837470  0.414E-02  0.562E+00     2.492
 PAO|LS| adapt:  T F F
 PAO|LS| adapt: scan_steps:    0.0000000000000000        0.0000000000000000        0.0000000000000000     
 PAO|LS| adapt: energies:   -190.35783747034327        0.0000000000000000        0.0000000000000000     
 PAO| ======================= Iteration:         7 =============================

     Lanczos converged:  F threshold:   0.100E-02
     Est. extremal eigenvalues:    0.488E+01   0.127E+00
     Est. condition number :    0.385E+02

 Order=           3
     NS sqrt iter    1 1.00000000   0.125E+01       0.021     2694.394
     NS sqrt iter    2 1.00000000   0.639E+00       0.034     3366.114
     NS sqrt iter    3 1.00000000   0.208E+00       0.034     3344.560
     NS sqrt iter    4 1.00000000   0.278E-01       0.034     3338.076
     NS sqrt iter    5 1.00000000   0.149E-03       0.034     3368.874
     NS sqrt iter    6 1.00000000   0.710E-10       0.023     2387.219
     Symmetrizing Results
     Final NS sqrt iter    6 1.00000000   0.209E-11

     Est. extremal eigenvalues     -0.83018     2.63321  converged:  T
     TRS4 it   1 1.00000000   0.286E+02       0.007     2096.818   0.100E-11
     TRS4 it   2 1.00000000   0.238E+02       0.013     2185.101   0.100E-11
     TRS4 it   3 1.00000000   0.156E+02       0.013     2170.448   0.100E-11
     TRS4 it   4 1.00000000   0.918E+01       0.013     2214.171   0.100E-11
     TRS4 it   5 1.00000000   0.393E+01       0.013     2173.372   0.100E-11
     TRS4 it   6 1.00000000   0.104E+01       0.013     2183.954   0.100E-11
     TRS4 it   7 1.00000000   0.131E+00       0.013     2184.779   0.100E-11
     TRS4 it   8 1.00000000   0.300E-02       0.013     2184.095   0.100E-11
     TRS4 it   9 1.00000000   0.216E-05       0.013     2198.670   0.100E-11
     TRS4 it  10 1.00000000   0.336E-11       0.013     2178.965   0.100E-11
     Final TRS4 iteration   10 1.00000000   0.336E-11
     Chemical potential (mu):       0.05501
 
 PAO| energy:  -189.49921288751977      penalty:   6.8227043720196648E-004
 PAO|LS| adapt:  T F T
 PAO|LS| adapt: scan_steps:    0.0000000000000000        0.0000000000000000       0.56204793443834833     
 PAO|LS| adapt: energies:   -190.35783747034327        0.0000000000000000       -189.49921288751977     
 PAO| ======================= Iteration:         8 =============================

     Lanczos converged:  F threshold:   0.100E-02
     Est. extremal eigenvalues:    0.496E+01   0.123E+00
     Est. condition number :    0.404E+02

 Order=           3
     NS sqrt iter    1 1.00000000   0.127E+01       0.021     2670.329
     NS sqrt iter    2 1.00000000   0.651E+00       0.034     3360.545
     NS sqrt iter    3 1.00000000   0.216E+00       0.034     3355.262
     NS sqrt iter    4 1.00000000   0.309E-01       0.034     3362.036
     NS sqrt iter    5 1.00000000   0.201E-03       0.034     3350.425
     NS sqrt iter    6 1.00000000   0.168E-09       0.026     2536.030
     Symmetrizing Results
     Final NS sqrt iter    6 1.00000000   0.135E-11

     Est. extremal eigenvalues     -0.83140     2.64097  converged:  T
     TRS4 it   1 1.00000000   0.286E+02       0.007     2121.992   0.100E-11
     TRS4 it   2 1.00000000   0.238E+02       0.013     2197.504   0.100E-11
     TRS4 it   3 1.00000000   0.155E+02       0.013     2181.020   0.100E-11
     TRS4 it   4 1.00000000   0.909E+01       0.013     2188.746   0.100E-11
     TRS4 it   5 1.00000000   0.385E+01       0.013     2194.261   0.100E-11
     TRS4 it   6 1.00000000   0.102E+01       0.013     2194.315   0.100E-11
     TRS4 it   7 1.00000000   0.128E+00       0.013     2180.665   0.100E-11
     TRS4 it   8 1.00000000   0.293E-02       0.013     2195.861   0.100E-11
     TRS4 it   9 1.00000000   0.202E-05       0.013     2167.663   0.100E-11
     TRS4 it  10 1.00000000   0.262E-11       0.013     2205.390   0.100E-11
     Final TRS4 iteration   10 1.00000000   0.262E-11
     Chemical potential (mu):       0.05295
 
 PAO| energy:  -190.76294500855141      penalty:   5.1149352885164034E-004
 PAO|LS| adapt:  T T T
 PAO|LS| adapt: scan_steps:    0.0000000000000000       0.28102396721917416       0.56204793443834833     
 PAO|LS| adapt: energies:   -190.35783747034327       -190.76294500855141       -189.49921288751977     
 PAO|LS| adapt: suggested step_size:   0.20872999778927531     
 PAO|LS| adapt: predicted energy  -190.81816572509442     
 PAO| ======================= Iteration:         9 =============================

     Lanczos converged:  F threshold:   0.100E-02
     Est. extremal eigenvalues:    0.498E+01   0.122E+00
     Est. condition number :    0.409E+02

 Order=           3
     NS sqrt iter    1 1.00000000   0.127E+01       0.021     2682.796
     NS sqrt iter    2 1.00000000   0.654E+00       0.034     3351.734
     NS sqrt iter    3 1.00000000   0.218E+00       0.034     3359.925
     NS sqrt iter    4 1.00000000   0.318E-01       0.034     3370.395
     NS sqrt iter    5 1.00000000   0.216E-03       0.034     3344.802
     NS sqrt iter    6 1.00000000   0.209E-09       0.027     2580.890
     Symmetrizing Results
     Final NS sqrt iter    6 1.00000000   0.109E-11

     Est. extremal eigenvalues     -0.83130     2.64285  converged:  T
     TRS4 it   1 1.00000000   0.286E+02       0.007     2127.785   0.100E-11
     TRS4 it   2 1.00000000   0.238E+02       0.013     2196.976   0.100E-11
     TRS4 it   3 1.00000000   0.155E+02       0.013     2183.132   0.100E-11
     TRS4 it   4 1.00000000   0.908E+01       0.013     2175.713   0.100E-11
     TRS4 it   5 1.00000000   0.384E+01       0.013     2181.024   0.100E-11
     TRS4 it   6 1.00000000   0.101E+01       0.013     2155.563   0.100E-11
     TRS4 it   7 1.00000000   0.128E+00       0.013     2192.392   0.100E-11
     TRS4 it   8 1.00000000   0.291E-02       0.013     2174.953   0.100E-11
     TRS4 it   9 1.00000000   0.199E-05       0.013     2195.565   0.100E-11
     TRS4 it  10 1.00000000   0.252E-11       0.013     2202.163   0.100E-11
     Final TRS4 iteration   10 1.00000000   0.252E-11
     Chemical potential (mu):       0.05281
 
 PAO| energy:  -190.82210183068227      penalty:   4.9471285491974027E-004
 PAO|CG| trace_G_new   0.73121250964302553     
 PAO|CG| trace_G_prev    4.5015540816895498     
 PAO|CG| trace_G_mix   -4.2717654183241666E-002
 PAO|CG| trace_D    4.5015540816895498     
 PAO|CG| trace_D_Gnew   4.2717654183241666E-002
 PAO|CG| beta:   0.17192510625925683     
 PAO| norm of gradient:  0.85510964773122844     
 PAO| energy improvement: -0.46426436033900131     
 PAO| step      9                 -190.822101831  0.167E-02  0.209E+00     1.538
 PAO|LS| adapt:  T F F
 PAO|LS| adapt: scan_steps:    0.0000000000000000        0.0000000000000000        0.0000000000000000     
 PAO|LS| adapt: energies:   -190.82210183068227        0.0000000000000000        0.0000000000000000     
 PAO| ======================= Iteration:        10 =============================

     Lanczos converged:  T threshold:   0.100E-02
     Est. extremal eigenvalues:    0.493E+01   0.125E+00
     Est. condition number :    0.394E+02

 Order=           3
     NS sqrt iter    1 1.00000000   0.126E+01       0.021     2695.594
     NS sqrt iter    2 1.00000000   0.645E+00       0.034     3371.287
     NS sqrt iter    3 1.00000000   0.213E+00       0.034     3364.146
     NS sqrt iter    4 1.00000000   0.295E-01       0.034     3356.424
     NS sqrt iter    5 1.00000000   0.173E-03       0.034     3358.520
     NS sqrt iter    6 1.00000000   0.107E-09       0.025     2429.852
     Symmetrizing Results
     Final NS sqrt iter    6 1.00000000   0.181E-11

     Est. extremal eigenvalues     -0.83188     2.62940  converged:  T
     TRS4 it   1 1.00000000   0.285E+02       0.007     2125.856   0.100E-11
     TRS4 it   2 1.00000000   0.237E+02       0.013     2228.703   0.100E-11
     TRS4 it   3 1.00000000   0.155E+02       0.013     2191.978   0.100E-11
     TRS4 it   4 1.00000000   0.906E+01       0.013     2190.409   0.100E-11
     TRS4 it   5 1.00000000   0.382E+01       0.013     2178.980   0.100E-11
     TRS4 it   6 1.00000000   0.100E+01       0.013     2202.257   0.100E-11
     TRS4 it   7 1.00000000   0.125E+00       0.013     2188.347   0.100E-11
     TRS4 it   8 1.00000000   0.277E-02       0.013     2191.475   0.100E-11
     TRS4 it   9 1.00000000   0.181E-05       0.013     2197.017   0.100E-11
     TRS4 it  10 1.00000000   0.208E-11       0.013     2192.699   0.100E-11
     Final TRS4 iteration   10 1.00000000   0.208E-11
     Chemical potential (mu):       0.05354
 
 PAO| energy:  -190.92319782492746      penalty:   4.9752414137755783E-004
 PAO|LS| adapt:  T T F
 PAO|LS| adapt: scan_steps:    0.0000000000000000       0.20872999778927531        0.0000000000000000     
 PAO|LS| adapt: energies:   -190.82210183068227       -190.92319782492746        0.0000000000000000     
 PAO| ======================= Iteration:        11 =============================

     Lanczos converged:  T threshold:   0.100E-02
     Est. extremal eigenvalues:    0.487E+01   0.129E+00
     Est. condition number :    0.379E+02

 Order=           3
     NS sqrt iter    1 1.00000000   0.125E+01       0.021     2695.163
     NS sqrt iter    2 1.00000000   0.637E+00       0.034     3354.471
     NS sqrt iter    3 1.00000000   0.207E+00       0.034     3348.730
     NS sqrt iter    4 1.00000000   0.273E-01       0.034     3347.153
     NS sqrt iter    5 1.00000000   0.138E-03       0.034     3368.256
     NS sqrt iter    6 1.00000000   0.540E-10       0.021     2315.759
     Symmetrizing Results
     Final NS sqrt iter    6 1.00000000   0.228E-11

     Est. extremal eigenvalues     -0.83201     2.61585  converged:  T
     TRS4 it   1 1.00000000   0.285E+02       0.007     2100.225   0.100E-11
     TRS4 it   2 1.00000000   0.236E+02       0.013     2221.290   0.100E-11
     TRS4 it   3 1.00000000   0.155E+02       0.013     2187.917   0.100E-11
     TRS4 it   4 1.00000000   0.904E+01       0.013     2181.361   0.100E-11
     TRS4 it   5 1.00000000   0.380E+01       0.013     2199.491   0.100E-11
     TRS4 it   6 1.00000000   0.989E+00       0.013     2186.918   0.100E-11
     TRS4 it   7 1.00000000   0.121E+00       0.013     2186.110   0.100E-11
     TRS4 it   8 1.00000000   0.261E-02       0.013     2186.848   0.100E-11
     TRS4 it   9 1.00000000   0.162E-05       0.013     2188.861   0.100E-11
     TRS4 it  10 1.00000000   0.170E-11       0.013     2177.608   0.100E-11
     Final TRS4 iteration   10 1.00000000   0.170E-11
     Chemical potential (mu):       0.05436
 
 PAO| energy:  -190.92703336688342      penalty:   5.1053393047003086E-004
 PAO|LS| adapt:  T T F
 PAO|LS| adapt: scan_steps:    0.0000000000000000       0.41745999557855062        0.0000000000000000     
 PAO|LS| adapt: energies:   -190.82210183068227       -190.92703336688342        0.0000000000000000     
 PAO| ======================= Iteration:        12 =============================

     Lanczos converged:  T threshold:   0.100E-02
     Est. extremal eigenvalues:    0.477E+01   0.135E+00
     Est. condition number :    0.352E+02

 Order=           3
     NS sqrt iter    1 1.00000000   0.123E+01       0.021     2694.576
     NS sqrt iter    2 1.00000000   0.621E+00       0.034     3335.745
     NS sqrt iter    3 1.00000000   0.196E+00       0.034     3343.609
     NS sqrt iter    4 1.00000000   0.235E-01       0.034     3361.914
     NS sqrt iter    5 1.00000000   0.876E-04       0.034     3370.394
     NS sqrt iter    6 1.00000000   0.133E-10       0.015     2140.794
     Symmetrizing Results
     Final NS sqrt iter    6 1.00000000   0.173E-11

     Est. extremal eigenvalues     -0.83100     2.58911  converged:  T
     TRS4 it   1 1.00000000   0.285E+02       0.007     2119.230   0.100E-11
     TRS4 it   2 1.00000000   0.235E+02       0.013     2176.083   0.100E-11
     TRS4 it   3 1.00000000   0.155E+02       0.013     2199.447   0.100E-11
     TRS4 it   4 1.00000000   0.898E+01       0.013     2178.329   0.100E-11
     TRS4 it   5 1.00000000   0.374E+01       0.013     2181.614   0.100E-11
     TRS4 it   6 1.00000000   0.957E+00       0.013     2192.865   0.100E-11
     TRS4 it   7 1.00000000   0.113E+00       0.013     2164.745   0.100E-11
     TRS4 it   8 1.00000000   0.228E-02       0.013     2182.014   0.100E-11
     TRS4 it   9 1.00000000   0.126E-05       0.013     2180.302   0.100E-11
     TRS4 it  10 1.00000000   0.101E-11       0.013     2189.314   0.100E-11
     Final TRS4 iteration   10 1.00000000   0.101E-11
     Chemical potential (mu):       0.05620
 
 PAO| energy:  -190.66021570070978      penalty:   5.7456036507817125E-004
 PAO|LS| Need extra step
 PAO|LS| adapt:  T T T
 PAO|LS| adapt: scan_steps:    0.0000000000000000       0.41745999557855062       0.83491999115710125     
 PAO|LS| adapt: energies:   -190.82210183068227       -190.92703336688342       -190.66021570070978     
 PAO|LS| adapt: suggested step_size:   0.32656405999775290     
 PAO|LS| adapt: predicted energy  -190.93584546348984     
 PAO| ======================= Iteration:        13 =============================

     Lanczos converged:  T threshold:   0.100E-02
     Est. extremal eigenvalues:    0.490E+01   0.127E+00
     Est. condition number :    0.385E+02

 Order=           3
     NS sqrt iter    1 1.00000000   0.125E+01       0.021     2704.547
     NS sqrt iter    2 1.00000000   0.641E+00       0.033     3394.461
     NS sqrt iter    3 1.00000000   0.209E+00       0.034     3370.819
     NS sqrt iter    4 1.00000000   0.283E-01       0.034     3353.601
     NS sqrt iter    5 1.00000000   0.152E-03       0.034     3380.429
     NS sqrt iter    6 1.00000000   0.727E-10       0.023     2376.064
     Symmetrizing Results
     Final NS sqrt iter    6 1.00000000   0.212E-11

     Est. extremal eigenvalues     -0.83201     2.62175  converged:  T
     TRS4 it   1 1.00000000   0.285E+02       0.007     2102.816   0.100E-11
     TRS4 it   2 1.00000000   0.237E+02       0.013     2173.835   0.100E-11
     TRS4 it   3 1.00000000   0.155E+02       0.013     2177.048   0.100E-11
     TRS4 it   4 1.00000000   0.905E+01       0.013     2172.836   0.100E-11
     TRS4 it   5 1.00000000   0.381E+01       0.013     2180.566   0.100E-11
     TRS4 it   6 1.00000000   0.996E+00       0.013     2184.112   0.100E-11
     TRS4 it   7 1.00000000   0.123E+00       0.013     2183.909   0.100E-11
     TRS4 it   8 1.00000000   0.268E-02       0.013     2194.266   0.100E-11
     TRS4 it   9 1.00000000   0.170E-05       0.013     2206.310   0.100E-11
     TRS4 it  10 1.00000000   0.185E-11       0.013     2194.772   0.100E-11
     Final TRS4 iteration   10 1.00000000   0.185E-11
     Chemical potential (mu):       0.05400
 
 PAO| energy:  -190.93704845427686      penalty:   5.0353025310584290E-004
 PAO|CG| trace_G_new   0.27111522672398591     
 PAO|CG| trace_G_prev   0.73121250964302553     
 PAO|CG| trace_G_mix   -1.2379829619214480E-002
 PAO|CG| trace_D   0.84958206082690069     
 PAO|CG| trace_D_Gnew   1.1858279925763823E-002
 PAO|CG| beta:   0.38770542435276623     
 PAO| norm of gradient:  0.52068726383884778     
 PAO| energy improvement: -0.11494662359459085     
 PAO| step     13                 -190.937048454  0.102E-02  0.327E+00     1.969
 PAO|LS| adapt:  T F F
 PAO|LS| adapt: scan_steps:    0.0000000000000000        0.0000000000000000        0.0000000000000000     
 PAO|LS| adapt: energies:   -190.93704845427686        0.0000000000000000        0.0000000000000000     
 PAO| ======================= Iteration:        14 =============================

     Lanczos converged:  T threshold:   0.100E-02
     Est. extremal eigenvalues:    0.483E+01   0.130E+00
     Est. condition number :    0.372E+02

 Order=           3
     NS sqrt iter    1 1.00000000   0.124E+01       0.021     2686.079
     NS sqrt iter    2 1.00000000   0.630E+00       0.034     3360.631
     NS sqrt iter    3 1.00000000   0.203E+00       0.034     3362.691
     NS sqrt iter    4 1.00000000   0.261E-01       0.034     3364.024
     NS sqrt iter    5 1.00000000   0.122E-03       0.033     3382.246
     NS sqrt iter    6 1.00000000   0.379E-10       0.019     2251.572
     Symmetrizing Results
     Final NS sqrt iter    6 1.00000000   0.224E-11

     Est. extremal eigenvalues     -0.83248     2.61696  converged:  T
     TRS4 it   1 1.00000000   0.286E+02       0.007     2125.205   0.100E-11
     TRS4 it   2 1.00000000   0.237E+02       0.013     2197.022   0.100E-11
     TRS4 it   3 1.00000000   0.155E+02       0.013     2208.467   0.100E-11
     TRS4 it   4 1.00000000   0.900E+01       0.013     2194.994   0.100E-11
     TRS4 it   5 1.00000000   0.376E+01       0.013     2192.348   0.100E-11
     TRS4 it   6 1.00000000   0.967E+00       0.013     2187.733   0.100E-11
     TRS4 it   7 1.00000000   0.116E+00       0.013     2180.392   0.100E-11
     TRS4 it   8 1.00000000   0.238E-02       0.013     2194.434   0.100E-11
     TRS4 it   9 1.00000000   0.135E-05       0.013     2193.882   0.100E-11
     TRS4 it  10 1.00000000   0.117E-11       0.013     2188.299   0.100E-11
     Final TRS4 iteration   10 1.00000000   0.117E-11
     Chemical potential (mu):       0.05579
 
 PAO| energy:  -190.98796975994566      penalty:   5.0518362649916112E-004
 PAO|LS| adapt:  T T F
 PAO|LS| adapt: scan_steps:    0.0000000000000000       0.32656405999775290        0.0000000000000000     
 PAO|LS| adapt: energies:   -190.93704845427686       -190.98796975994566        0.0000000000000000     
 PAO| ======================= Iteration:        15 =============================

     Lanczos converged:  T threshold:   0.100E-02
     Est. extremal eigenvalues:    0.476E+01   0.132E+00
     Est. condition number :    0.360E+02

 Order=           3
     NS sqrt iter    1 1.00000000   0.123E+01       0.021     2686.418
     NS sqrt iter    2 1.00000000   0.619E+00       0.034     3360.261
     NS sqrt iter    3 1.00000000   0.197E+00       0.034     3367.768
     NS sqrt iter    4 1.00000000   0.241E-01       0.034     3338.443
     NS sqrt iter    5 1.00000000   0.978E-04       0.034     3354.330
     NS sqrt iter    6 1.00000000   0.199E-10       0.017     2175.077
     Symmetrizing Results
     Final NS sqrt iter    6 1.00000000   0.196E-11

     Est. extremal eigenvalues     -0.83255     2.61203  converged:  T
     TRS4 it   1 1.00000000   0.286E+02       0.007     2148.617   0.100E-11
     TRS4 it   2 1.00000000   0.236E+02       0.013     2187.725   0.100E-11
     TRS4 it   3 1.00000000   0.154E+02       0.013     2192.351   0.100E-11
     TRS4 it   4 1.00000000   0.894E+01       0.013     2168.454   0.100E-11
     TRS4 it   5 1.00000000   0.370E+01       0.013     2195.505   0.100E-11
     TRS4 it   6 1.00000000   0.938E+00       0.013     2197.021   0.100E-11
     TRS4 it   7 1.00000000   0.109E+00       0.013     2172.758   0.100E-11
     TRS4 it   8 1.00000000   0.212E-02       0.013     2167.820   0.100E-11
     TRS4 it   9 1.00000000   0.108E-05       0.013     2191.004   0.100E-11
     TRS4 it  10 1.00000000   0.753E-12       0.013     2211.974   0.100E-11
     Final TRS4 iteration   10 1.00000000   0.753E-12
     Chemical potential (mu):       0.05748
 
 PAO| energy:  -190.96776805811899      penalty:   5.2118298621405977E-004
 PAO|LS| adapt:  T T T
 PAO|LS| adapt: scan_steps:    0.0000000000000000       0.32656405999775290       0.65312811999550580     
 PAO|LS| adapt: energies:   -190.93704845427686       -190.98796975994566       -190.96776805811899     
 PAO|LS| adapt: suggested step_size:   0.39708918896427603     
 PAO|LS| adapt: predicted energy  -190.98962831969561     
 PAO| ======================= Iteration:        16 =============================

     Lanczos converged:  T threshold:   0.100E-02
     Est. extremal eigenvalues:    0.481E+01   0.130E+00
     Est. condition number :    0.369E+02

 Order=           3
     NS sqrt iter    1 1.00000000   0.124E+01       0.021     2683.200
     NS sqrt iter    2 1.00000000   0.628E+00       0.034     3353.045
     NS sqrt iter    3 1.00000000   0.202E+00       0.034     3350.670
     NS sqrt iter    4 1.00000000   0.256E-01       0.034     3350.594
     NS sqrt iter    5 1.00000000   0.116E-03       0.034     3348.576
     NS sqrt iter    6 1.00000000   0.329E-10       0.019     2208.196
     Symmetrizing Results
     Final NS sqrt iter    6 1.00000000   0.224E-11

     Est. extremal eigenvalues     -0.83253     2.61590  converged:  T
     TRS4 it   1 1.00000000   0.286E+02       0.007     2119.558   0.100E-11
     TRS4 it   2 1.00000000   0.237E+02       0.013     2208.755   0.100E-11
     TRS4 it   3 1.00000000   0.155E+02       0.013     2176.574   0.100E-11
     TRS4 it   4 1.00000000   0.899E+01       0.013     2184.065   0.100E-11
     TRS4 it   5 1.00000000   0.375E+01       0.013     2164.730   0.100E-11
     TRS4 it   6 1.00000000   0.961E+00       0.013     2200.995   0.100E-11
     TRS4 it   7 1.00000000   0.114E+00       0.013     2181.223   0.100E-11
     TRS4 it   8 1.00000000   0.232E-02       0.013     2187.315   0.100E-11
     TRS4 it   9 1.00000000   0.129E-05       0.013     2180.954   0.100E-11
     TRS4 it  10 1.00000000   0.107E-11       0.013     2186.809   0.100E-11
     Final TRS4 iteration   10 1.00000000   0.107E-11
     Chemical potential (mu):       0.05616
 
 PAO| energy:  -190.98957048462000      penalty:   5.0737810520649462E-004
 PAO|CG| trace_G_new    9.7770607199263365E-002
 PAO|CG| trace_G_prev   0.27111522672398591     
 PAO|CG| trace_G_mix    4.4809879532350981E-003
 PAO|CG| trace_D   0.38962553675010381     
 PAO|CG| trace_D_Gnew   7.4224595479203807E-004
 PAO|CG| beta:   0.34409583103572255     
 PAO| norm of gradient:  0.31268291798443892     
 PAO| energy improvement:  -5.2522030343141068E-002
 PAO| step     16                 -190.989570485  0.611E-03  0.397E+00     1.517
 PAO|LS| adapt:  T F F
 PAO|LS| adapt: scan_steps:    0.0000000000000000        0.0000000000000000        0.0000000000000000     
 PAO|LS| adapt: energies:   -190.98957048462000        0.0000000000000000        0.0000000000000000     
 PAO| ======================= Iteration:        17 =============================

     Lanczos converged:  T threshold:   0.100E-02
     Est. extremal eigenvalues:    0.477E+01   0.131E+00
     Est. condition number :    0.364E+02

 Order=           3
     NS sqrt iter    1 1.00000000   0.123E+01       0.021     2688.650
     NS sqrt iter    2 1.00000000   0.623E+00       0.034     3372.573
     NS sqrt iter    3 1.00000000   0.199E+00       0.034     3373.668
     NS sqrt iter    4 1.00000000   0.248E-01       0.034     3324.631
     NS sqrt iter    5 1.00000000   0.106E-03       0.034     3370.440
     NS sqrt iter    6 1.00000000   0.253E-10       0.018     2192.678
     Symmetrizing Results
     Final NS sqrt iter    6 1.00000000   0.209E-11

     Est. extremal eigenvalues     -0.83259     2.61498  converged:  T
     TRS4 it   1 1.00000000   0.286E+02       0.007     2117.306   0.100E-11
     TRS4 it   2 1.00000000   0.236E+02       0.013     2191.338   0.100E-11
     TRS4 it   3 1.00000000   0.154E+02       0.013     2165.576   0.100E-11
     TRS4 it   4 1.00000000   0.894E+01       0.013     2181.198   0.100E-11
     TRS4 it   5 1.00000000   0.371E+01       0.013     2189.600   0.100E-11
     TRS4 it   6 1.00000000   0.942E+00       0.013     2192.751   0.100E-11
     TRS4 it   7 1.00000000   0.110E+00       0.013     2194.969   0.100E-11
     TRS4 it   8 1.00000000   0.216E-02       0.013     2196.744   0.100E-11
     TRS4 it   9 1.00000000   0.111E-05       0.013     2192.485   0.100E-11
     TRS4 it  10 1.00000000   0.817E-12       0.013     2195.942   0.100E-11
     Final TRS4 iteration   10 1.00000000   0.817E-12
     Chemical potential (mu):       0.05721
 
 PAO| energy:  -190.99311531005716      penalty:   4.9923956443889000E-004
 PAO|LS| adapt:  T T F
 PAO|LS| adapt: scan_steps:    0.0000000000000000       0.39708918896427603        0.0000000000000000     
 PAO|LS| adapt: energies:   -190.98957048462000       -190.99311531005716        0.0000000000000000     
 PAO| ======================= Iteration:        18 =============================

     Lanczos converged:  T threshold:   0.100E-02
     Est. extremal eigenvalues:    0.474E+01   0.132E+00
     Est. condition number :    0.359E+02

 Order=           3
     NS sqrt iter    1 1.00000000   0.122E+01       0.021     2679.832
     NS sqrt iter    2 1.00000000   0.618E+00       0.034     3362.805
     NS sqrt iter    3 1.00000000   0.197E+00       0.034     3351.318
     NS sqrt iter    4 1.00000000   0.241E-01       0.034     3372.736
     NS sqrt iter    5 1.00000000   0.974E-04       0.034     3358.920
     NS sqrt iter    6 1.00000000   0.196E-10       0.017     2144.051
     Symmetrizing Results
     Final NS sqrt iter    6 1.00000000   0.192E-11

     Est. extremal eigenvalues     -0.83247     2.61403  converged:  T
     TRS4 it   1 1.00000000   0.287E+02       0.007     2099.549   0.100E-11
     TRS4 it   2 1.00000000   0.236E+02       0.013     2185.660   0.100E-11
     TRS4 it   3 1.00000000   0.154E+02       0.013     2209.834   0.100E-11
     TRS4 it   4 1.00000000   0.890E+01       0.013     2184.328   0.100E-11
     TRS4 it   5 1.00000000   0.367E+01       0.013     2186.674   0.100E-11
     TRS4 it   6 1.00000000   0.924E+00       0.013     2203.648   0.100E-11
     TRS4 it   7 1.00000000   0.106E+00       0.013     2192.143   0.100E-11
     TRS4 it   8 1.00000000   0.201E-02       0.013     2194.332   0.100E-11
     TRS4 it   9 1.00000000   0.962E-06       0.013     2179.516   0.100E-11
     TRS4 it  10 1.00000000   0.570E-12       0.013     2191.230   0.100E-11
     Final TRS4 iteration   10 1.00000000   0.570E-12
     Chemical potential (mu):       0.05830
 
 PAO| energy:  -190.92616301413779      penalty:   4.9805736195149600E-004
 PAO|LS| adapt:  T T T
 PAO|LS| adapt: scan_steps:    0.0000000000000000       0.39708918896427603       0.79417837792855206     
 PAO|LS| adapt: energies:   -190.98957048462000       -190.99311531005716       -190.92616301413779     
 PAO|LS| adapt: suggested step_size:   0.21851153541214963     
 PAO|LS| adapt: predicted energy  -191.00024416020662     
 PAO| ======================= Iteration:        19 =============================

     Lanczos converged:  T threshold:   0.100E-02
     Est. extremal eigenvalues:    0.479E+01   0.131E+00
     Est. condition number :    0.366E+02

 Order=           3
     NS sqrt iter    1 1.00000000   0.123E+01       0.021     2661.206
     NS sqrt iter    2 1.00000000   0.625E+00       0.034     3370.907
     NS sqrt iter    3 1.00000000   0.200E+00       0.034     3369.847
     NS sqrt iter    4 1.00000000   0.252E-01       0.034     3354.203
     NS sqrt iter    5 1.00000000   0.111E-03       0.034     3368.970
     NS sqrt iter    6 1.00000000   0.285E-10       0.018     2192.875
     Symmetrizing Results
     Final NS sqrt iter    6 1.00000000   0.218E-11

     Est. extremal eigenvalues     -0.83258     2.61540  converged:  T
     TRS4 it   1 1.00000000   0.286E+02       0.007     2132.834   0.100E-11
     TRS4 it   2 1.00000000   0.236E+02       0.013     2196.361   0.100E-11
     TRS4 it   3 1.00000000   0.155E+02       0.013     2194.965   0.100E-11
     TRS4 it   4 1.00000000   0.896E+01       0.013     2181.688   0.100E-11
     TRS4 it   5 1.00000000   0.373E+01       0.013     2194.402   0.100E-11
     TRS4 it   6 1.00000000   0.950E+00       0.013     2194.566   0.100E-11
     TRS4 it   7 1.00000000   0.112E+00       0.013     2188.740   0.100E-11
     TRS4 it   8 1.00000000   0.223E-02       0.013     2189.807   0.100E-11
     TRS4 it   9 1.00000000   0.119E-05       0.013     2172.221   0.100E-11
     TRS4 it  10 1.00000000   0.915E-12       0.013     2157.167   0.100E-11
     Final TRS4 iteration   10 1.00000000   0.915E-12
     Chemical potential (mu):       0.05673
 
 PAO| energy:  -191.00023289321925      penalty:   5.0205117223493724E-004
 PAO|CG| trace_G_new    2.1198551681965227E-002
 PAO|CG| trace_G_prev    9.7770607199263365E-002
 PAO|CG| trace_G_mix   -2.9922113390270372E-004
 PAO|CG| trace_D   0.14339221951147640     
 PAO|CG| trace_D_Gnew  -3.7965500553199062E-005
 PAO|CG| beta:   0.21987971059700959     
 PAO| norm of gradient:  0.14559722415611234     
 PAO| energy improvement:  -1.0662408599245055E-002
 PAO| step     19                 -191.000232893  0.284E-03  0.219E+00     1.513
 PAO|LS| adapt:  T F F
 PAO|LS| adapt: scan_steps:    0.0000000000000000        0.0000000000000000        0.0000000000000000     
 PAO|LS| adapt: energies:   -191.00023289321925        0.0000000000000000        0.0000000000000000     
 PAO| ======================= Iteration:        20 =============================

     Lanczos converged:  T threshold:   0.100E-02
     Est. extremal eigenvalues:    0.478E+01   0.131E+00
     Est. condition number :    0.366E+02

 Order=           3
     NS sqrt iter    1 1.00000000   0.123E+01       0.021     2677.097
     NS sqrt iter    2 1.00000000   0.624E+00       0.034     3363.726
     NS sqrt iter    3 1.00000000   0.200E+00       0.033     3380.639
     NS sqrt iter    4 1.00000000   0.252E-01       0.034     3374.801
     NS sqrt iter    5 1.00000000   0.110E-03       0.034     3367.814
     NS sqrt iter    6 1.00000000   0.280E-10       0.018     2199.980
     Symmetrizing Results
     Final NS sqrt iter    6 1.00000000   0.216E-11

     Est. extremal eigenvalues     -0.83259     2.61436  converged:  T
     TRS4 it   1 1.00000000   0.286E+02       0.007     2096.302   0.100E-11
     TRS4 it   2 1.00000000   0.236E+02       0.013     2200.973   0.100E-11
     TRS4 it   3 1.00000000   0.154E+02       0.013     2187.029   0.100E-11
     TRS4 it   4 1.00000000   0.895E+01       0.013     2202.109   0.100E-11
     TRS4 it   5 1.00000000   0.372E+01       0.013     2191.380   0.100E-11
     TRS4 it   6 1.00000000   0.947E+00       0.013     2172.566   0.100E-11
     TRS4 it   7 1.00000000   0.111E+00       0.013     2193.458   0.100E-11
     TRS4 it   8 1.00000000   0.220E-02       0.013     2189.105   0.100E-11
     TRS4 it   9 1.00000000   0.115E-05       0.013     2194.748   0.100E-11
     TRS4 it  10 1.00000000   0.833E-12       0.013     2183.336   0.100E-11
     Final TRS4 iteration   10 1.00000000   0.833E-12
     Chemical potential (mu):       0.05690
 
 PAO| energy:  -191.00395704210581      penalty:   4.9235765597791642E-004
 PAO|LS| adapt:  T T F
 PAO|LS| adapt: scan_steps:    0.0000000000000000       0.21851153541214963        0.0000000000000000     
 PAO|LS| adapt: energies:   -191.00023289321925       -191.00395704210581        0.0000000000000000     
 PAO| ======================= Iteration:        21 =============================

     Lanczos converged:  T threshold:   0.100E-02
     Est. extremal eigenvalues:    0.478E+01   0.131E+00
     Est. condition number :    0.366E+02

 Order=           3
     NS sqrt iter    1 1.00000000   0.123E+01       0.021     2661.462
     NS sqrt iter    2 1.00000000   0.624E+00       0.034     3372.530
     NS sqrt iter    3 1.00000000   0.200E+00       0.034     3369.048
     NS sqrt iter    4 1.00000000   0.252E-01       0.034     3358.571
     NS sqrt iter    5 1.00000000   0.110E-03       0.034     3361.434
     NS sqrt iter    6 1.00000000   0.275E-10       0.018     2188.886
     Symmetrizing Results
     Final NS sqrt iter    6 1.00000000   0.216E-11

     Est. extremal eigenvalues     -0.83260     2.61332  converged:  T
     TRS4 it   1 1.00000000   0.286E+02       0.007     2118.280   0.100E-11
     TRS4 it   2 1.00000000   0.236E+02       0.013     2172.670   0.100E-11
     TRS4 it   3 1.00000000   0.154E+02       0.013     2178.520   0.100E-11
     TRS4 it   4 1.00000000   0.894E+01       0.013     2171.122   0.100E-11
     TRS4 it   5 1.00000000   0.371E+01       0.013     2204.181   0.100E-11
     TRS4 it   6 1.00000000   0.943E+00       0.013     2174.382   0.100E-11
     TRS4 it   7 1.00000000   0.110E+00       0.013     2209.449   0.100E-11
     TRS4 it   8 1.00000000   0.217E-02       0.013     2204.582   0.100E-11
     TRS4 it   9 1.00000000   0.112E-05       0.013     2215.928   0.100E-11
     TRS4 it  10 1.00000000   0.828E-12       0.013     2184.838   0.100E-11
     Final TRS4 iteration   10 1.00000000   0.828E-12
     Chemical potential (mu):       0.05707
 
 PAO| energy:  -191.00584910874869      penalty:   4.8308516403329895E-004
 PAO|LS| adapt:  T T F
 PAO|LS| adapt: scan_steps:    0.0000000000000000       0.43702307082429925        0.0000000000000000     
 PAO|LS| adapt: energies:   -191.00023289321925       -191.00584910874869        0.0000000000000000     
 PAO| ======================= Iteration:        22 =============================

     Lanczos converged:  T threshold:   0.100E-02
     Est. extremal eigenvalues:    0.477E+01   0.131E+00
     Est. condition number :    0.365E+02

 Order=           3
     NS sqrt iter    1 1.00000000   0.123E+01       0.021     2679.083
     NS sqrt iter    2 1.00000000   0.623E+00       0.033     3396.470
     NS sqrt iter    3 1.00000000   0.200E+00       0.034     3367.318
     NS sqrt iter    4 1.00000000   0.251E-01       0.034     3378.268
     NS sqrt iter    5 1.00000000   0.109E-03       0.034     3370.659
     NS sqrt iter    6 1.00000000   0.265E-10       0.018     2191.100
     Symmetrizing Results
     Final NS sqrt iter    6 1.00000000   0.212E-11

     Est. extremal eigenvalues     -0.83260     2.61122  converged:  T
     TRS4 it   1 1.00000000   0.286E+02       0.007     2094.225   0.100E-11
     TRS4 it   2 1.00000000   0.236E+02       0.013     2173.010   0.100E-11
     TRS4 it   3 1.00000000   0.154E+02       0.013     2186.295   0.100E-11
     TRS4 it   4 1.00000000   0.892E+01       0.013     2199.906   0.100E-11
     TRS4 it   5 1.00000000   0.369E+01       0.013     2179.400   0.100E-11
     TRS4 it   6 1.00000000   0.935E+00       0.013     2166.516   0.100E-11
     TRS4 it   7 1.00000000   0.109E+00       0.013     2188.114   0.100E-11
     TRS4 it   8 1.00000000   0.211E-02       0.013     2198.845   0.100E-11
     TRS4 it   9 1.00000000   0.106E-05       0.013     2177.853   0.100E-11
     TRS4 it  10 1.00000000   0.734E-12       0.013     2179.432   0.100E-11
     Final TRS4 iteration   10 1.00000000   0.734E-12
     Chemical potential (mu):       0.05742
 
 PAO| energy:  -191.00406160058364      penalty:   4.6577600858038623E-004
 PAO|LS| Need extra step
 PAO|LS| adapt:  T T T
 PAO|LS| adapt: scan_steps:    0.0000000000000000       0.43702307082429925       0.87404614164859851     
 PAO|LS| adapt: energies:   -191.00023289321925       -191.00584910874869       -191.00406160058364     
 PAO|LS| adapt: suggested step_size:   0.55002252344556424     
 PAO|LS| adapt: predicted energy  -191.00609660245399     
 PAO| ======================= Iteration:        23 =============================

     Lanczos converged:  T threshold:   0.100E-02
     Est. extremal eigenvalues:    0.478E+01   0.131E+00
     Est. condition number :    0.365E+02

 Order=           3
     NS sqrt iter    1 1.00000000   0.123E+01       0.021     2690.924
     NS sqrt iter    2 1.00000000   0.624E+00       0.034     3371.539
     NS sqrt iter    3 1.00000000   0.200E+00       0.034     3353.336
     NS sqrt iter    4 1.00000000   0.252E-01       0.033     3383.867
     NS sqrt iter    5 1.00000000   0.109E-03       0.034     3360.054
     NS sqrt iter    6 1.00000000   0.272E-10       0.018     2187.995
     Symmetrizing Results
     Final NS sqrt iter    6 1.00000000   0.215E-11

     Est. extremal eigenvalues     -0.83260     2.61278  converged:  T
     TRS4 it   1 1.00000000   0.286E+02       0.007     2095.024   0.100E-11
     TRS4 it   2 1.00000000   0.236E+02       0.013     2185.690   0.100E-11
     TRS4 it   3 1.00000000   0.154E+02       0.013     2202.296   0.100E-11
     TRS4 it   4 1.00000000   0.894E+01       0.013     2189.144   0.100E-11
     TRS4 it   5 1.00000000   0.370E+01       0.013     2196.193   0.100E-11
     TRS4 it   6 1.00000000   0.941E+00       0.013     2181.783   0.100E-11
     TRS4 it   7 1.00000000   0.110E+00       0.013     2175.022   0.100E-11
     TRS4 it   8 1.00000000   0.215E-02       0.013     2169.079   0.100E-11
     TRS4 it   9 1.00000000   0.111E-05       0.013     2186.256   0.100E-11
     TRS4 it  10 1.00000000   0.842E-12       0.013     2181.087   0.100E-11
     Final TRS4 iteration   10 1.00000000   0.842E-12
     Chemical potential (mu):       0.05716
 
 PAO| energy:  -191.00610268222474      penalty:   4.7845279791213402E-004
 PAO|CG| trace_G_new    1.5590919082642166E-002
 PAO|CG| trace_G_prev    2.1198551681965227E-002
 PAO|CG| trace_G_mix    9.8723354769938222E-005
 PAO|CG| trace_D    2.8147843499318280E-002
 PAO|CG| trace_D_Gnew  -4.6141397922211543E-005
 PAO|CG| beta:   0.73081387635799155     
 PAO| norm of gradient:  0.12486360191281591     
 PAO| energy improvement:  -5.8697890054872914E-003
 PAO| step     23                 -191.006102682  0.244E-03  0.550E+00     1.966
 PAO|LS| adapt:  T F F
 PAO|LS| adapt: scan_steps:    0.0000000000000000        0.0000000000000000        0.0000000000000000     
 PAO|LS| adapt: energies:   -191.00610268222474        0.0000000000000000        0.0000000000000000     
 PAO| ======================= Iteration:        24 =============================

     Lanczos converged:  T threshold:   0.100E-02
     Est. extremal eigenvalues:    0.476E+01   0.131E+00
     Est. condition number :    0.365E+02

 Order=           3
     NS sqrt iter    1 1.00000000   0.122E+01       0.021     2681.505
     NS sqrt iter    2 1.00000000   0.622E+00       0.034     3360.717
     NS sqrt iter    3 1.00000000   0.200E+00       0.034     3355.415
     NS sqrt iter    4 1.00000000   0.251E-01       0.034     3359.973
     NS sqrt iter    5 1.00000000   0.109E-03       0.034     3334.749
     NS sqrt iter    6 1.00000000   0.265E-10       0.018     2184.995
     Symmetrizing Results
     Final NS sqrt iter    6 1.00000000   0.213E-11

     Est. extremal eigenvalues     -0.83260     2.60937  converged:  T
     TRS4 it   1 1.00000000   0.286E+02       0.007     2122.748   0.100E-11
     TRS4 it   2 1.00000000   0.236E+02       0.013     2192.809   0.100E-11
     TRS4 it   3 1.00000000   0.154E+02       0.013     2162.940   0.100E-11
     TRS4 it   4 1.00000000   0.891E+01       0.013     2202.625   0.100E-11
     TRS4 it   5 1.00000000   0.368E+01       0.013     2202.368   0.100E-11
     TRS4 it   6 1.00000000   0.933E+00       0.013     2189.076   0.100E-11
     TRS4 it   7 1.00000000   0.108E+00       0.013     2189.285   0.100E-11
     TRS4 it   8 1.00000000   0.210E-02       0.013     2187.871   0.100E-11
     TRS4 it   9 1.00000000   0.105E-05       0.013     2192.866   0.100E-11
     TRS4 it  10 1.00000000   0.737E-12       0.013     2173.547   0.100E-11
     Final TRS4 iteration   10 1.00000000   0.737E-12
     Chemical potential (mu):       0.05746
 
 PAO| energy:  -191.00938072242889      penalty:   4.4252267862206923E-004
 PAO|LS| adapt:  T T F
 PAO|LS| adapt: scan_steps:    0.0000000000000000       0.55002252344556424        0.0000000000000000     
 PAO|LS| adapt: energies:   -191.00610268222474       -191.00938072242889        0.0000000000000000     
 PAO| ======================= Iteration:        25 =============================

     Lanczos converged:  T threshold:   0.100E-02
     Est. extremal eigenvalues:    0.475E+01   0.130E+00
     Est. condition number :    0.364E+02

 Order=           3
     NS sqrt iter    1 1.00000000   0.122E+01       0.021     2703.649
     NS sqrt iter    2 1.00000000   0.621E+00       0.034     3366.240
     NS sqrt iter    3 1.00000000   0.199E+00       0.034     3351.873
     NS sqrt iter    4 1.00000000   0.251E-01       0.034     3359.496
     NS sqrt iter    5 1.00000000   0.109E-03       0.034     3350.782
     NS sqrt iter    6 1.00000000   0.259E-10       0.018     2194.949
     Symmetrizing Results
     Final NS sqrt iter    6 1.00000000   0.213E-11

     Est. extremal eigenvalues     -0.83260     2.60587  converged:  T
     TRS4 it   1 1.00000000   0.286E+02       0.007     2100.135   0.100E-11
     TRS4 it   2 1.00000000   0.236E+02       0.013     2205.638   0.100E-11
     TRS4 it   3 1.00000000   0.154E+02       0.013     2187.269   0.100E-11
     TRS4 it   4 1.00000000   0.889E+01       0.013     2188.960   0.100E-11
     TRS4 it   5 1.00000000   0.366E+01       0.013     2175.956   0.100E-11
     TRS4 it   6 1.00000000   0.925E+00       0.013     2184.739   0.100E-11
     TRS4 it   7 1.00000000   0.107E+00       0.013     2180.848   0.100E-11
     TRS4 it   8 1.00000000   0.204E-02       0.013     2190.325   0.100E-11
     TRS4 it   9 1.00000000   0.999E-06       0.013     2192.643   0.100E-11
     TRS4 it  10 1.00000000   0.647E-12       0.013     2188.191   0.100E-11
     Final TRS4 iteration   10 1.00000000   0.647E-12
     Chemical potential (mu):       0.05775
 
 PAO| energy:  -191.00185083877159      penalty:   4.1015910649399917E-004
 PAO|LS| adapt:  T T T
 PAO|LS| adapt: scan_steps:    0.0000000000000000       0.55002252344556424        1.1000450468911285     
 PAO|LS| adapt: energies:   -191.00610268222474       -191.00938072242889       -191.00185083877159     
 PAO|LS| adapt: suggested step_size:   0.44183293516870970     
 PAO|LS| adapt: predicted energy  -191.00958980713588     
 PAO| ======================= Iteration:        26 =============================

     Lanczos converged:  T threshold:   0.100E-02
     Est. extremal eigenvalues:    0.477E+01   0.131E+00
     Est. condition number :    0.365E+02

 Order=           3
     NS sqrt iter    1 1.00000000   0.123E+01       0.021     2676.819
     NS sqrt iter    2 1.00000000   0.623E+00       0.034     3346.821
     NS sqrt iter    3 1.00000000   0.200E+00       0.034     3361.228
     NS sqrt iter    4 1.00000000   0.251E-01       0.034     3359.673
     NS sqrt iter    5 1.00000000   0.109E-03       0.034     3353.165
     NS sqrt iter    6 1.00000000   0.266E-10       0.018     2210.245
     Symmetrizing Results
     Final NS sqrt iter    6 1.00000000   0.214E-11

     Est. extremal eigenvalues     -0.83260     2.61005  converged:  T
     TRS4 it   1 1.00000000   0.286E+02       0.007     2131.438   0.100E-11
     TRS4 it   2 1.00000000   0.236E+02       0.013     2186.120   0.100E-11
     TRS4 it   3 1.00000000   0.154E+02       0.013     2186.155   0.100E-11
     TRS4 it   4 1.00000000   0.892E+01       0.013     2192.731   0.100E-11
     TRS4 it   5 1.00000000   0.369E+01       0.013     2164.040   0.100E-11
     TRS4 it   6 1.00000000   0.935E+00       0.013     2186.422   0.100E-11
     TRS4 it   7 1.00000000   0.109E+00       0.013     2205.799   0.100E-11
     TRS4 it   8 1.00000000   0.211E-02       0.013     2200.598   0.100E-11
     TRS4 it   9 1.00000000   0.106E-05       0.013     2210.174   0.100E-11
     TRS4 it  10 1.00000000   0.739E-12       0.013     2216.857   0.100E-11
     Final TRS4 iteration   10 1.00000000   0.739E-12
     Chemical potential (mu):       0.05740
 
 PAO| energy:  -191.00958142213145      penalty:   4.4930332514278500E-004
 PAO|CG| trace_G_new    1.2992104229212900E-002
 PAO|CG| trace_G_prev    1.5590919082642166E-002
 PAO|CG| trace_G_mix    2.2801546772101654E-004
 PAO|CG| trace_D    3.0691812018118891E-002
 PAO|CG| trace_D_Gnew  -7.1139914388841009E-005
 PAO|CG| beta:   0.81868738422884402     
 PAO| norm of gradient:  0.11398291200532165     
 PAO| energy improvement:  -3.4787399067113256E-003
 PAO| step     26                 -191.009581422  0.223E-03  0.442E+00     1.515
 PAO|LS| adapt:  T F F
 PAO|LS| adapt: scan_steps:    0.0000000000000000        0.0000000000000000        0.0000000000000000     
 PAO|LS| adapt: energies:   -191.00958142213145        0.0000000000000000        0.0000000000000000     
 PAO| ======================= Iteration:        27 =============================

     Lanczos converged:  T threshold:   0.100E-02
     Est. extremal eigenvalues:    0.475E+01   0.130E+00
     Est. condition number :    0.365E+02

 Order=           3
     NS sqrt iter    1 1.00000000   0.122E+01       0.021     2687.105
     NS sqrt iter    2 1.00000000   0.621E+00       0.034     3362.776
     NS sqrt iter    3 1.00000000   0.199E+00       0.034     3341.220
     NS sqrt iter    4 1.00000000   0.250E-01       0.034     3364.214
     NS sqrt iter    5 1.00000000   0.109E-03       0.034     3361.360
     NS sqrt iter    6 1.00000000   0.264E-10       0.018     2192.062
     Symmetrizing Results
     Final NS sqrt iter    6 1.00000000   0.213E-11

     Est. extremal eigenvalues     -0.83261     2.60776  converged:  T
     TRS4 it   1 1.00000000   0.286E+02       0.007     2115.767   0.100E-11
     TRS4 it   2 1.00000000   0.236E+02       0.013     2183.001   0.100E-11
     TRS4 it   3 1.00000000   0.154E+02       0.013     2185.657   0.100E-11
     TRS4 it   4 1.00000000   0.890E+01       0.013     2170.934   0.100E-11
     TRS4 it   5 1.00000000   0.367E+01       0.013     2188.820   0.100E-11
     TRS4 it   6 1.00000000   0.927E+00       0.013     2190.858   0.100E-11
     TRS4 it   7 1.00000000   0.107E+00       0.013     2172.914   0.100E-11
     TRS4 it   8 1.00000000   0.205E-02       0.013     2192.314   0.100E-11
     TRS4 it   9 1.00000000   0.101E-05       0.013     2191.612   0.100E-11
     TRS4 it  10 1.00000000   0.666E-12       0.013     2189.888   0.100E-11
     Final TRS4 iteration   10 1.00000000   0.666E-12
     Chemical potential (mu):       0.05773
 
 PAO| energy:  -191.01200539218377      penalty:   4.1191069798001345E-004
 PAO|LS| adapt:  T T F
 PAO|LS| adapt: scan_steps:    0.0000000000000000       0.44183293516870970        0.0000000000000000     
 PAO|LS| adapt: energies:   -191.00958142213145       -191.01200539218377        0.0000000000000000     
 PAO| ======================= Iteration:        28 =============================

     Lanczos converged:  T threshold:   0.100E-02
     Est. extremal eigenvalues:    0.474E+01   0.130E+00
     Est. condition number :    0.365E+02

 Order=           3
     NS sqrt iter    1 1.00000000   0.122E+01       0.021     2689.959
     NS sqrt iter    2 1.00000000   0.619E+00       0.034     3369.237
     NS sqrt iter    3 1.00000000   0.198E+00       0.034     3365.364
     NS sqrt iter    4 1.00000000   0.249E-01       0.034     3362.271
     NS sqrt iter    5 1.00000000   0.108E-03       0.034     3363.063
     NS sqrt iter    6 1.00000000   0.262E-10       0.018     2184.399
     Symmetrizing Results
     Final NS sqrt iter    6 1.00000000   0.215E-11

     Est. extremal eigenvalues     -0.83261     2.60536  converged:  T
     TRS4 it   1 1.00000000   0.286E+02       0.007     2116.198   0.100E-11
     TRS4 it   2 1.00000000   0.236E+02       0.013     2207.090   0.100E-11
     TRS4 it   3 1.00000000   0.154E+02       0.013     2191.973   0.100E-11
     TRS4 it   4 1.00000000   0.888E+01       0.013     2215.495   0.100E-11
     TRS4 it   5 1.00000000   0.365E+01       0.013     2207.518   0.100E-11
     TRS4 it   6 1.00000000   0.919E+00       0.013     2194.155   0.100E-11
     TRS4 it   7 1.00000000   0.106E+00       0.013     2195.350   0.100E-11
     TRS4 it   8 1.00000000   0.199E-02       0.013     2183.673   0.100E-11
     TRS4 it   9 1.00000000   0.955E-06       0.013     2212.273   0.100E-11
     TRS4 it  10 1.00000000   0.584E-12       0.013     2171.162   0.100E-11
     Final TRS4 iteration   10 1.00000000   0.584E-12
     Chemical potential (mu):       0.05806
 
 PAO| energy:  -191.00768291669834      penalty:   3.7781404462600859E-004
 PAO|LS| adapt:  T T T
 PAO|LS| adapt: scan_steps:    0.0000000000000000       0.44183293516870970       0.88366587033741939     
 PAO|LS| adapt: energies:   -191.00958142213145       -191.01200539218377       -191.00768291669834     
 PAO|LS| adapt: suggested step_size:   0.37966521860972680     
 PAO|LS| adapt: predicted energy  -191.01207217407023     
 PAO| ======================= Iteration:        29 =============================

     Lanczos converged:  T threshold:   0.100E-02
     Est. extremal eigenvalues:    0.475E+01   0.130E+00
     Est. condition number :    0.365E+02

 Order=           3
     NS sqrt iter    1 1.00000000   0.122E+01       0.021     2693.528
     NS sqrt iter    2 1.00000000   0.621E+00       0.034     3358.892
     NS sqrt iter    3 1.00000000   0.199E+00       0.034     3371.118
     NS sqrt iter    4 1.00000000   0.250E-01       0.034     3375.743
     NS sqrt iter    5 1.00000000   0.109E-03       0.034     3369.643
     NS sqrt iter    6 1.00000000   0.264E-10       0.018     2214.361
     Symmetrizing Results
     Final NS sqrt iter    6 1.00000000   0.212E-11

     Est. extremal eigenvalues     -0.83261     2.60809  converged:  T
     TRS4 it   1 1.00000000   0.286E+02       0.007     2120.155   0.100E-11
     TRS4 it   2 1.00000000   0.236E+02       0.013     2203.807   0.100E-11
     TRS4 it   3 1.00000000   0.154E+02       0.013     2200.471   0.100E-11
     TRS4 it   4 1.00000000   0.890E+01       0.013     2183.358   0.100E-11
     TRS4 it   5 1.00000000   0.367E+01       0.013     2190.438   0.100E-11
     TRS4 it   6 1.00000000   0.928E+00       0.013     2176.618   0.100E-11
     TRS4 it   7 1.00000000   0.107E+00       0.013     2206.286   0.100E-11
     TRS4 it   8 1.00000000   0.206E-02       0.013     2182.676   0.100E-11
     TRS4 it   9 1.00000000   0.101E-05       0.013     2193.111   0.100E-11
[...]
     TRS4 it   3 1.00000000   0.156E+02       0.013     2184.883   0.100E-11
     TRS4 it   4 1.00000000   0.922E+01       0.013     2182.035   0.100E-11
     TRS4 it   5 1.00000000   0.417E+01       0.013     2166.603   0.100E-11
     TRS4 it   6 1.00000000   0.134E+01       0.013     2171.028   0.100E-11
     TRS4 it   7 1.00000000   0.249E+00       0.013     2191.207   0.100E-11
     TRS4 it   8 1.00000000   0.129E-01       0.013     2174.485   0.100E-11
     TRS4 it   9 1.00000000   0.480E-04       0.013     2191.036   0.100E-11
     TRS4 it  10 1.00000000   0.142E-08       0.013     2188.485   0.100E-11
     TRS4 it  11 1.00000000   0.266E-13       0.013     2183.882   0.100E-11
     Final TRS4 iteration   11 1.00000000   0.266E-13
     Chemical potential (mu):       0.02191
 
 PAO| energy:  -190.64427792346453      penalty:   1.3427526778727966E-008
 PAO| Writing restart file.
     Est. extremal eigenvalues     -0.83262     2.59967  converged:  T
     TRS4 it   1 1.00000000   0.289E+02       0.007     2125.675   0.100E-11
     TRS4 it   2 1.00000000   0.238E+02       0.013     2183.460   0.100E-11
     TRS4 it   3 1.00000000   0.156E+02       0.013     2182.650   0.100E-11
     TRS4 it   4 1.00000000   0.922E+01       0.013     2187.414   0.100E-11
     TRS4 it   5 1.00000000   0.417E+01       0.013     2195.356   0.100E-11
     TRS4 it   6 1.00000000   0.134E+01       0.013     2185.873   0.100E-11
     TRS4 it   7 1.00000000   0.249E+00       0.013     2178.606   0.100E-11
     TRS4 it   8 1.00000000   0.129E-01       0.013     2178.860   0.100E-11
     TRS4 it   9 1.00000000   0.480E-04       0.013     2201.357   0.100E-11
     TRS4 it  10 1.00000000   0.142E-08       0.013     2175.555   0.100E-11
     TRS4 it  11 1.00000000   0.266E-13       0.013     2168.028   0.100E-11
     Final TRS4 iteration   11 1.00000000   0.266E-13
     Chemical potential (mu):       0.02191

 SCF     1     -1102.995355932     -1102.995355932    1.769914

*********************************************************
 Using MIXING_FRACTION=0.450 to mix KS matrix:  iscf=  2
 KS_nw=0.450*KS + 0.550*KS_old
*********************************************************
     Est. extremal eigenvalues     -0.83262     2.59967  converged:  T
     TRS4 it   1 1.00000000   0.289E+02       0.007     2087.277   0.100E-11
     TRS4 it   2 1.00000000   0.238E+02       0.013     2203.611   0.100E-11
     TRS4 it   3 1.00000000   0.156E+02       0.013     2199.335   0.100E-11
     TRS4 it   4 1.00000000   0.922E+01       0.013     2193.387   0.100E-11
     TRS4 it   5 1.00000000   0.417E+01       0.013     2183.063   0.100E-11
     TRS4 it   6 1.00000000   0.134E+01       0.013     2224.632   0.100E-11
     TRS4 it   7 1.00000000   0.249E+00       0.013     2179.829   0.100E-11
     TRS4 it   8 1.00000000   0.129E-01       0.013     2184.776   0.100E-11
     TRS4 it   9 1.00000000   0.480E-04       0.013     2197.246   0.100E-11
     TRS4 it  10 1.00000000   0.142E-08       0.013     2194.128   0.100E-11
     TRS4 it  11 1.00000000   0.107E-13       0.013     2184.109   0.100E-11
     Final TRS4 iteration   11 1.00000000   0.107E-13
     Chemical potential (mu):       0.02191

 SCF     2     -1102.995355932        -0.000000000    1.769352


 SCF run converged in     2 steps.

 PAO| Storing density matrix for ASPC guess in slot:           1

 ENERGY| Total FORCE_EVAL ( QS ) energy [a.u.]:            -1102.995355932070652

 -------------------------------------------------------------------------------
 -                                                                             -
 -                                DBCSR STATISTICS                             -
 -                                                                             -
 -------------------------------------------------------------------------------
 COUNTER                                    TOTAL       BLAS       SMM       ACC
 flops     5 x     5 x     4             26419200       0.0%    100.0%      0.0%     
 flops    13 x     5 x     4             34078720       0.0%    100.0%      0.0%     
 flops     5 x    13 x     4             34078720       0.0%    100.0%      0.0%     
 flops    13 x    13 x     4             44994560       0.0%    100.0%      0.0%     
 flops     4 x     4 x     5           6550978560       0.0%    100.0%      0.0%     
 flops     5 x     4 x     5           8103526400       0.0%    100.0%      0.0%     
 flops     4 x     4 x    13           8516272128       0.0%    100.0%      0.0%     
 flops    13 x     4 x     5          10534584320       0.0%    100.0%      0.0%     
 flops     5 x     4 x    13          10534584320       0.0%    100.0%      0.0%     
 flops    13 x     4 x    13          13694959616       0.0%    100.0%      0.0%     
 flops     5 x     4 x     4         408873868640       0.0%    100.0%      0.0%     
 flops    13 x     4 x     4         536943120480       0.0%    100.0%      0.0%     
 flops     4 x     4 x     4       30242729670784       0.0%    100.0%      0.0%     
 flops inhomo. stacks                           0       0.0%      0.0%      0.0%
 flops total                        31.246621E+12       0.0%    100.0%      0.0%
 flops max/rank                    986.481449E+09       0.0%    100.0%      0.0%
 matmuls inhomo. stacks                         0       0.0%      0.0%      0.0%
 matmuls total                       240270392431       0.0%    100.0%      0.0%
 number of processed stacks             245454393       0.0%    100.0%      0.0%
 average stack size                                     0.0     978.9       0.0
 marketing flops                    53.945225E+12
 -------------------------------------------------------------------------------
 # multiplications                          50606
 max memory usage/rank             619.810816E+06
 # max total images/rank                        2
 # max 3D layers                                1
 # MPI messages exchanged                21052096
 MPI messages size (bytes):
  total size                         2.503084E+12
  min size                           0.000000E+00
  max size                         541.696000E+03
  average size                     118.899516E+03
 MPI breakdown and total messages size (bytes):
             size <=      128              899880                    16896
       128 < size <=     8192              344541               1242791936
      8192 < size <=    32768               37310                907422848
     32768 < size <=   131072             8974321             669074650112
    131072 < size <=  4194304            10796044            1832280871680
   4194304 < size <= 16777216                   0                        0
  16777216 < size                               0                        0
 -------------------------------------------------------------------------------

 *** WARNING in dbcsr_mm.F:301 :: Using a non-square number of MPI ranks ***
 *** might lead to poor performance. Used ranks: 32 Suggested: 36 64     ***

 -------------------------------------------------------------------------------
 -                                                                             -
 -                      DBCSR MESSAGE PASSING PERFORMANCE                      -
 -                                                                             -
 -------------------------------------------------------------------------------
 ROUTINE             CALLS      AVE VOLUME [Bytes]
 MP_Bcast               14                     12.
 MP_Allreduce       304574                     37.
 MP_Alltoall        130631                  14559.
 MP_ISend          1693688                  55289.
 MP_IRecv          1656540                  56623.
 -------------------------------------------------------------------------------

 -------------------------------------------------------------------------------
 -                                                                             -
 -                                DBM STATISTICS                               -
 -                                                                             -
 -------------------------------------------------------------------------------
    M  x    N  x    K                                          COUNT     PERCENT
 -------------------------------------------------------------------------------

 -------------------------------------------------------------------------------
 -                                                                             -
 -                                GRID STATISTICS                              -
 -                                                                             -
 -------------------------------------------------------------------------------
 LP    KERNEL             BACKEND                              COUNT     PERCENT
 2     collocate ortho    CPU                               13116688      28.83%
 2     integrate ortho    CPU                               13116688      28.83%
 3     collocate ortho    CPU                                8429792      18.53%
 3     integrate ortho    CPU                                8429792      18.53%
 4     collocate ortho    CPU                                1196352       2.63%
 4     integrate ortho    CPU                                1196352       2.63%
 0     collocate general  CPU                                   6144       0.01%
 -------------------------------------------------------------------------------

 MEMORY| Estimated peak process memory [MiB]                                 592

 -------------------------------------------------------------------------------
 -                                                                             -
 -                         MESSAGE PASSING PERFORMANCE                         -
 -                                                                             -
 -------------------------------------------------------------------------------

 ROUTINE             CALLS      AVE VOLUME [Bytes]
 MP_Group                5
 MP_Bcast           402021                   1856.
 MP_Allreduce       998955                    514.
 MP_Sync                 5
 MP_Alltoall           419
 MP_SendRecv          1488                  18832.
 MP_ISendRecv         1488                  18832.
 MP_Wait              4218
 MP_ISend             2470                 108139.
 MP_IRecv             2470                 108153.
 -------------------------------------------------------------------------------


 -------------------------------------------------------------------------------
 -                                                                             -
 -                           R E F E R E N C E S                               -
 -                                                                             -
 -------------------------------------------------------------------------------
 
 CP2K version 2024.3 (Development Version), the CP2K developers group (2024).
 CP2K is freely available from https://www.cp2k.org/ .
 
 T. D. Kuehne, M. Iannuzzi, M. Del Ben, V. V. Rybkin, P. Seewald, F. Stein, T. 
 Laino, R. Z. Khaliullin, O. Schuett, F. Schiffmann, D. Golze, J. Wilhelm, S. 
 Chulkov, M. H. Bani-Hashemian, V. Weber, U. Borstnik, M. Taillefumier, A. S. 
 Jakobovits, A. Lazzaro, H. Pabst, T. Mueller, R. Schade, M. Guidon, S. 
 Andermatt, N. Holmberg, G. K. Schenter, A. Hehn, A. Bussy, F. Belleflamme, G. 
 Tabacchi, A. Gloess, M. Lass, I. Bethune, C. J. Mundy, C. Plessl, M. Watkins, 
 J. VandeVondele, M. Krack, J. Hutter.
 J. Chem. Phys. 152, 194103 (2020).
 CP2K: An electronic structure and molecular dynamics software package - 
 Quickstep: Efficient and accurate electronic structure calculations.
 https://doi.org/10.1063/5.0007045

 O. Schuett, J. VandeVondele.
 J. Chem. Theory Comput. 14, 4168-4175 (2018).
 Machine Learning Adaptive Basis Sets for Efficient Large Scale Density 
 Functional Theory Simulation.
 https://doi.org/10.1021/acs.jctc.8b00378

 O. Schuett, P. Messmer, J. Hutter, J. VandeVondele.
 Electronic Structure Calculations on Graphics Processing Units, 173-190 (2016).
 GPU-Accelerated Sparse Matrix-Matrix Multiplication for Linear Scaling Density 
 Functional Theory.
 https://doi.org/10.1002/9781118670712.ch8

 A. Heinecke, G. Henry, M. Hutchinson, H. Pabst.
 Proceedings of Intl. Supercomputing Conference, 981-991 (2016).
 LIBXSMM: Accelerating Small Matrix Multiplications by Runtime Code Generation.
 https://doi.org/10.1109/SC.2016.83

 J. Hutter, M. Iannuzzi, F. Schiffmann, J. VandeVondele.
 WIREs Comput Mol Sci. 4, 15-25 (2014).
 CP2K: atomistic simulations of condensed matter systems.
 https://doi.org/10.1002/wcms.1159

 U. Borstnik, J. VandeVondele, V. Weber, J. Hutter.
 Parallel Comput. 40, 47-58 (2014).
 Sparse matrix multiplication: The distributed block-compressed sparse row 
 library.
 https://doi.org/10.1016/j.parco.2014.03.012

 A. Marek, V. Blum, R. Johanni, V. Havu, B. Lang, T. Auckenthaler, A. Heinecke, 
 H. Bungartz, H. Lederer.
 J. Phys. Condens. Matter 26, 213201 (2014).
 The ELPA library: scalable parallel eigenvalue solutions for electronic 
 structure theory and computational science.
 https://doi.org/10.1088/0953-8984/26/21/213201

 J. VandeVondele, U. Borstnik, J. Hutter.
 J. Chem. Theory Comput. 8, 3565-3573 (2012).
 Linear Scaling Self-Consistent Field Calculations with Millions of Atoms in the 
 Condensed Phase.
 https://doi.org/10.1021/ct200897x

 J. VandeVondele, J. Hutter.
 J. Chem. Phys. 127, 114105 (2007).
 Gaussian basis sets for accurate calculations on molecular systems in gas and 
 condensed phases.
 https://doi.org/10.1063/1.2770708

 J. VandeVondele, M. Krack, F. Mohamed, M. Parrinello, T. Chassaing, J. Hutter.
 Comput. Phys. Commun. 167, 103-128 (2005).
 QUICKSTEP: Fast and accurate density functional calculations using a mixed 
 Gaussian and plane waves approach.
 https://doi.org/10.1016/j.cpc.2004.12.014

 M. Krack.
 Theor. Chem. Acc. 114, 145-152 (2005).
 Pseudopotentials for H to Kr optimized for gradient-corrected 
 exchange-correlation functionals.
 https://doi.org/10.1007/s00214-005-0655-y

 M. Frigo, S. G. Johnson.
 Proc. IEEE 93, 216-231 (2005).
 The design and implementation of FFTW3.
 https://doi.org/10.1109/JPROC.2004.840301

 A. M. N. Niklasson, C. J. Tymczak, M. Challacombe.
 J. Chem. Phys. 118, 8611-8620 (2003).
 Trace resetting density matrix purification in O(N) self-consistent-field 
 theory.
 https://doi.org/10.1063/1.1559913

 C. Hartwigsen, S. Goedecker, J. Hutter.
 Phys. Rev. B 58, 3641-3662 (1998).
 Relativistic separable dual-space Gaussian pseudopotentials from H to Rn.
 https://doi.org/10.1103/PhysRevB.58.3641

 G. Lippert, J. Hutter, M. Parrinello.
 Mol. Phys. 92, 477-487 (1997).
 A hybrid Gaussian and plane wave density functional scheme.
 https://doi.org/10.1080/002689797170220

 S. Goedecker, M. Teter, J. Hutter.
 Phys. Rev. B 54, 1703-1710 (1996).
 Separable dual-space Gaussian pseudopotentials.
 https://doi.org/10.1103/PhysRevB.54.1703

 J. P. Perdew, K. Burke, M. Ernzerhof.
 Phys. Rev. Lett. 77, 3865-3868 (1996).
 Generalized gradient approximation made simple.
 https://doi.org/10.1103/PhysRevLett.77.3865


 -------------------------------------------------------------------------------
 -                                                                             -
 -                                T I M I N G                                  -
 -                                                                             -
 -------------------------------------------------------------------------------
 SUBROUTINE                       CALLS  ASD         SELF TIME        TOTAL TIME
                                MAXIMUM       AVERAGE  MAXIMUM  AVERAGE  MAXIMUM
 CP2K                                 1  1.0    0.012    0.015  457.960  457.964
 qs_energies                          1  2.0    0.000    0.000  457.809  457.813
 ls_scf                               1  3.0    0.000    0.000  456.833  456.836
 pao_update                           7  4.0    0.006    0.024  426.737  426.740
 pao_calc_energy                    822  5.0    0.003    0.017  383.119  383.121
 dbcsr_multiply_generic           50606  8.4    1.401    1.517  353.431  353.628
 multiply_cannon                  50606  9.4    2.625    2.921  286.340  289.533
 multiply_cannon_loop             50606 10.4    1.892    2.166  275.609  278.809
 ls_scf_init_matrix_S               829  7.0    0.008    0.010  214.555  214.621
 pao_rebuild_S                      822  6.0    0.003    0.003  212.721  212.786
 matrix_sqrt_Newton_Schulz          829  8.0    0.169    0.287  199.174  199.234
 multiply_cannon_multrec         404848 11.4  179.711  181.634  180.543  182.505
 pao_dm_trs4                        822  6.0    0.006    0.007  170.040  170.096
 density_matrix_trs4                837  7.0    0.215    0.369  164.362  164.415
 mp_waitall_1                   3240532 12.6   91.899   98.632   91.899   98.632
 multiply_cannon_metrocomm3      404848 11.4    0.703    0.778   73.773   77.889
 arnoldi_extremal                  1666  8.5    0.013    0.015   66.124   66.187
 arnoldi_normal_ev                 1666  9.5    0.038    0.066   66.108   66.170
 build_subspace                    6494 10.6    0.394    0.424   57.999   58.046
 dbcsr_matrix_vector_mult        198152 11.6    0.848    1.286   54.680   55.234
 make_m2s                        101212  9.4    0.548    0.709   52.035   53.069
 make_images                     101212 10.4    7.426    7.615   50.667   51.756
 dbcsr_matrix_vector_mult_local  198152 12.6   46.658   47.367   46.879   47.588
 pao_calc_AB                       1092  5.8    0.002    0.002   43.156   43.158
 pao_calc_AB_equi                  1092  6.8    0.041    0.101   43.154   43.156
 pao_calc_grad_lnv_wrt_AB           269  7.0    0.020    0.023   42.750   42.781
 ls_scf_main                          7  4.0    0.000    0.001   26.559   26.561
 make_images_data                101212 11.4    0.868    1.097   22.252   24.526
 ls_scf_dm_to_ks                     15  5.0    0.000    0.000   23.411   23.414
 hybrid_alltoall_any             102865 12.3    0.906    1.795   17.497   21.610
 matrix_qs_to_ls                   1666  7.5    0.016    0.020   17.271   17.352
 qs_ks_update_qs_env                 16  6.0    0.000    0.000   13.939   13.941
 rebuild_ks_matrix                   16  7.0    0.000    0.000   13.927   13.930
 qs_ks_build_kohn_sham_matrix        16  8.0    0.003    0.003   13.927   13.930
 calculate_norms                 755872 11.4   11.810   13.029   11.810   13.029
 make_images_pack                101212 11.4   11.208   11.559   11.344   11.698
 qs_rho_update_rho_low               16  6.0    0.000    0.000   10.940   10.942
 calculate_rho_elec                  16  7.0    0.005    0.006   10.940   10.942
 sum_up_and_integrate                16  9.0    0.000    0.001   10.532   10.535
 integrate_v_rspace                  16 10.0    0.000    0.001   10.517   10.522
 mp_sum_l                        206762  9.5    7.431   10.456    7.431   10.456
 grid_collocate_task_list            16  8.0    9.721    9.919    9.721    9.919
 grid_integrate_task_list            16 11.0    9.281    9.439    9.281    9.439
 -------------------------------------------------------------------------------

 The number of warnings for this run is : 1
 
 -------------------------------------------------------------------------------
  **** **** ******  **  PROGRAM ENDED AT                 2024-09-24 02:37:21.211
 ***** ** ***  *** **   PROGRAM RAN ON                                    moritz
 **    ****   ******    PROGRAM RAN BY                                       ole
 ***** **    ** ** **   PROGRAM PROCESS ID                                166973
  **** **  *******  **  PROGRAM STOPPED IN /home/ole/git/pao_ml_equivar/64H2O_MD
                                           /Frame3400
