 DBCSR| CPU Multiplication driver                                           XSMM
 DBCSR| Multrec recursion limit                                              512
 DBCSR| Multiplication stack size                                           1000
 DBCSR| Maximum elements for images                                    UNLIMITED
 DBCSR| Multiplicative factor virtual images                                   1
 DBCSR| Use multiplication densification                                       T
 DBCSR| Multiplication size stacks                                             3


  **** **** ******  **  PROGRAM STARTED AT               2019-02-14 11:06:25.554
 ***** ** ***  *** **   PROGRAM STARTED ON                                  otto
 **    ****   ******    PROGRAM STARTED BY                                   ole
 ***** **    ** ** **   PROGRAM PROCESS ID                                  7728
  **** **  *******  **  PROGRAM STARTED IN /home/ole/git/pao_ml_equivar/2H2O_MD/
                                           frame_1425

 CP2K| version string:                    CP2K version 7.0 (Development Version)
 CP2K| source code revision number:                                git:8bf305913
 CP2K| cp2kflags: libint fftw3 libxc xsmm libderiv_max_am1=5 libint_max_am=6    
 CP2K| is freely available from                            https://www.cp2k.org/
 CP2K| Program compiled at                           So Jan 13 00:02:37 CET 2019
 CP2K| Program compiled on                                                  otto
 CP2K| Program compiled for                                                local
 CP2K| Data directory path                               /home/ole/git/cp2k/data
 CP2K| Input file name                                            2H2O_pao44.inp

 GLOBAL| Force Environment number                                              1
 GLOBAL| Basis set file name                                        BASIS_MOLOPT
 GLOBAL| Potential file name                                      GTH_POTENTIALS
 GLOBAL| MM Potential file name                                     MM_POTENTIAL
 GLOBAL| Coordinate file name                                         coords.xyz
 GLOBAL| Method name                                                        CP2K
 GLOBAL| Project name                                                 2H2O_pao44
 GLOBAL| Preferred FFT library                                             FFTW3
 GLOBAL| Preferred diagonalization lib.                                       SL
 GLOBAL| Run type                                                         ENERGY
 GLOBAL| All-to-all communication in single precision                          F
 GLOBAL| FFTs using library dependent lengths                                  F
 GLOBAL| Global print level                                                  LOW
 GLOBAL| MPI I/O enabled                                                       T
 GLOBAL| Total number of message passing processes                             1
 GLOBAL| Number of threads for this process                                    1
 GLOBAL| This output is from process                                           0
 GLOBAL| CPU model name :  Intel(R) Core(TM) i5-3320M CPU @ 2.60GHz

 MEMORY| system memory details [Kb]
 MEMORY|                        rank 0           min           max       average
 MEMORY| MemTotal              7860772       7860772       7860772       7860772
 MEMORY| MemFree                631728        631728        631728        631728
 MEMORY| Buffers               1047500       1047500       1047500       1047500
 MEMORY| Cached                2063308       2063308       2063308       2063308
 MEMORY| Slab                   280268        280268        280268        280268
 MEMORY| SReclaimable           155756        155756        155756        155756
 MEMORY| MemLikelyFree         3898292       3898292       3898292       3898292


 GENERATE|  Preliminary Number of Bonds generated:                             0
 GENERATE|  Achieved consistency in connectivity generation.

 *******************************************************************************
 *******************************************************************************
 **                                                                           **
 **     #####                         ##              ##                      **
 **    ##   ##            ##          ##              ##                      **
 **   ##     ##                       ##            ######                    **
 **   ##     ##  ##   ##  ##   #####  ##  ##   ####   ##    #####    #####    **
 **   ##     ##  ##   ##  ##  ##      ## ##   ##      ##   ##   ##  ##   ##   **
 **   ##  ## ##  ##   ##  ##  ##      ####     ###    ##   ######   ######    **
 **    ##  ###   ##   ##  ##  ##      ## ##      ##   ##   ##       ##        **
 **     #######   #####   ##   #####  ##  ##  ####    ##    #####   ##        **
 **           ##                                                    ##        **
 **                                                                           **
 **                                                ... make the atoms dance   **
 **                                                                           **
 **            Copyright (C) by CP2K developers group (2000 - 2018)           **
 **                                                                           **
 *******************************************************************************


 TOTAL NUMBERS AND MAXIMUM NUMBERS

  Total number of            - Atomic kinds:                                   2
                             - Atoms:                                          6
                             - Shell sets:                                     6
                             - Shells:                                        22
                             - Primitive Cartesian functions:                 42
                             - Cartesian basis functions:                     48
                             - Spherical basis functions:                     46

  Maximum angular momentum of- Orbital basis functions:                        2
                             - Local part of the GTH pseudopotential:          2
                             - Non-local part of the GTH pseudopotential:      0

 ------------------------------ Linear scaling SCF -----------------------------
 eps_scf:                                       0.100E-07
 eps_filter:                                    0.100E-07
 mixing_fraction:                               0.450E+00
 max_scf:                                              25
 fixed chemical potential (mu)                          F
 has unit metric:                                       F
 Computing inv(S):                                      T
 Computing sqrt(S):                                     T
 Computing s preconditioner                             F
 sign sqrt order:                                       3
 Extrapolation order:                                   1
 Use single precision matrices                          F
 S preconditioner type                               NONE
 Polarized Atomic Orbitals (PAO)                        T
 Purification method                      Trace resetting 4th order
 Cluster type                                      ATOMIC
 Computing Chebyshev                                FALSE
 Using PAO                                              T
 -------------------------------------------------------------------------------

 
 PAO|                                  EPS_PAO                           0.5E-06
 PAO|                                  MIXING                            0.5E+00
 PAO|                                  MAX_PAO                              1000
 PAO|                                  MAX_CYCLES                           1000
 PAO|                                  PARAMETERIZATION                   DIRECT
 PAO|                                  PRECONDITION                            F
 PAO|                                  REGULARIZATION                    0.0E+00
 PAO|                                  EPS_PGF                           0.1E-09
 PAO|                                  PENALTY_DISTANCE                  0.1E+00
 PAO|                                  PENALTY_STRENGTH                  0.5E-02
 PAO|                                  LINPOT_PRECONDITION_DELTA         0.0E+00
 PAO|                                  LINPOT_INITGUESS_DELT             0.0E+00
 PAO|                                  LINPOT_REGULARIZATION_DELTA       0.0E+00
 PAO|                                  LINPOT_REGULARIZATION_STRENGTH    0.0E+00
 PAO|                                  OPTIMIZER                              CG
 PAO|                                  CG_INIT_STEPS                           2
 PAO|                                  CG_RESET_LIMIT                    0.1E+00
 PAO|                                  CHECK_UNITARY_TOL                -0.1E+01
 PAO|                                  CHECK_GRADIENT_TOL               -0.1E+01
 PAO|                                  NUM_GRADIENT_ORDER                      2
 PAO|                                  NUM_GRADIENT_EPS                  0.1E-07
 PAO|                                  PRINT%RESTART%WRITE_CYCLES            100
 PAO|                                  RESTART_FILE 
 PAO|                                  PREOPT_DM_FILE 2H2O_ref_LS_DM_SPIN_1_RESTART.dm
 PAO|                                  MACHINE_LEARNING%METHOD        GAUSSIAN_P
 PAO|                                  MACHINE_LEARNING%PRIOR               ZERO
 PAO|                                  MACHINE_LEARNING%DESCRIPTOR     POTENTIAL
 PAO|                                  MACHINE_LEARNING%TOLERANCE        0.1E-01
 PAO|                                  MACHINE_LEARNING%GP_NOISE_VAR     0.1E+00
 PAO|                                  MACHINE_LEARNING%GP_SCALE         0.5E-01
 

 Calculating atomic Fock matrix for atomic kind: O

 Electronic structure
    Total number of core electrons                                          2.00
    Total number of valence electrons                                       6.00
    Total number of electrons                                               8.00
    Multiplicity                                                   not specified
    S   [  2.00] 2.00
    P      4.00


 *******************************************************************************
                  Iteration          Convergence                     Energy [au]
 *******************************************************************************
                          1        0.708315                     -15.576645311500
                          2        0.608879                     -15.587933561584
                          3        0.102828E-01                 -15.656849565404
                          4        0.113889E-02                 -15.656866888140
                          5        0.434197E-03                 -15.656867072159
                          6        0.263771E-03                 -15.656867091904
                          7        0.478536E-06                 -15.656867103452

 Energy components [Hartree]           Total Energy ::          -15.656867103452
                                        Band Energy ::           -3.000198112285
                                     Kinetic Energy ::           11.759971203220
                                   Potential Energy ::          -27.416838306672
                                      Virial (-V/T) ::            2.331369510426
                                        Core Energy ::          -26.140716385623
                                          XC Energy ::           -3.154051012914
                                     Coulomb Energy ::           13.637900295084
                       Total Pseudopotential Energy ::          -37.935781716540
                       Local Pseudopotential Energy ::          -39.218907440693
                    Nonlocal Pseudopotential Energy ::            1.283125724153
                                        Confinement ::            0.350941276976

 Orbital energies  State     L     Occupation   Energy[a.u.]          Energy[eV]

                       1     0          2.000      -0.864471          -23.523463

                       1     1          4.000      -0.317814           -8.648154


 Total Electron Density at R=0:                                         0.000068

 Calculating atomic Fock matrix for atomic kind: H

 Electronic structure
    Total number of core electrons                                          0.00
    Total number of valence electrons                                       1.00
    Total number of electrons                                               1.00
    Multiplicity                                                   not specified
    S      1.00


 *******************************************************************************
                  Iteration          Convergence                     Energy [au]
 *******************************************************************************
                          1        0.437545E-02                  -0.424159432110
                          2        0.531356E-03                  -0.424178438213
                          3        0.259176E-06                  -0.424178722480

 Energy components [Hartree]           Total Energy ::           -0.424178722480
                                        Band Energy ::           -0.199015229016
                                     Kinetic Energy ::            0.464007633961
                                   Potential Energy ::           -0.888186356441
                                      Virial (-V/T) ::            1.914163240935
                                        Core Energy ::           -0.479160803564
                                          XC Energy ::           -0.244352904054
                                     Coulomb Energy ::            0.299334985138
                       Total Pseudopotential Energy ::           -0.962295316385
                       Local Pseudopotential Energy ::           -0.962295316385
                    Nonlocal Pseudopotential Energy ::            0.000000000000
                                        Confinement ::            0.191268788606

 Orbital energies  State     L     Occupation   Energy[a.u.]          Energy[eV]

                       1     0          1.000      -0.199015           -5.415480


 Total Electron Density at R=0:                                         0.242907
 PAO| Made initial guess for matrix_X with norm:   4.8989794855663558     

     Lanczos converged:  T threshold:   0.100E-02
     Est. extremal eigenvalues:    0.320E+01   0.119E+00
     Est. condition number :    0.268E+02
     NS sqrt iter    1 1.00000000   0.780E+00       0.001       47.720
     NS sqrt iter    2 1.00000000   0.413E+00       0.001       84.848
     NS sqrt iter    3 1.00000000   0.155E+00       0.001       84.830
     NS sqrt iter    4 1.00000000   0.161E-01       0.001       85.537
     NS sqrt iter    5 1.00000000   0.271E-04       0.001       66.707
     Final NS sqrt iter    5 1.00000000   0.114E-08

 PAO| Read restart DM 2H2O_ref_LS_DM_SPIN_1_RESTART.dm with checksum:    65.295375992284548     
 PAO| Quickstep energy from restart density:  -34.445616565166638     
 PAO| ======================= Iteration:         1 =============================

     Lanczos converged:  T threshold:   0.100E-02
     Est. extremal eigenvalues:    0.320E+01   0.119E+00
     Est. condition number :    0.268E+02
     NS sqrt iter    1 1.00000000   0.780E+00       0.001       64.512
     NS sqrt iter    2 1.00000000   0.413E+00       0.001      110.592
     NS sqrt iter    3 1.00000000   0.155E+00       0.001      110.592
     NS sqrt iter    4 1.00000000   0.161E-01       0.001      110.592
     NS sqrt iter    5 1.00000000   0.271E-04       0.001       83.072
     Final NS sqrt iter    5 1.00000000   0.114E-08

     Est. extremal eigenvalues     -0.90550     1.71675  converged:  T
     TRS4 it   1 1.00000000   0.862E+00       0.000       16.128   0.100E-07
     TRS4 it   2 1.00000000   0.658E+00       0.001       32.256   0.100E-07
     TRS4 it   3 1.00000000   0.482E+00       0.001       32.256   0.100E-07
     TRS4 it   4 1.00000000   0.302E+00       0.001       32.256   0.100E-07
     TRS4 it   5 1.00000000   0.147E+00       0.001       32.256   0.100E-07
     TRS4 it   6 1.00000000   0.418E-01       0.001       32.256   0.100E-07
     TRS4 it   7 1.00000000   0.435E-02       0.001       32.256   0.100E-07
     TRS4 it   8 1.00000000   0.611E-04       0.001       32.256   0.100E-07
     TRS4 it   9 1.00000000   0.150E-07       0.001       32.256   0.100E-07
     Final TRS4 iteration    9 1.00000000   0.150E-07
     Chemical potential (mu):      -0.06699
 
 PAO| energy:  -7.5533951088101468      penalty:   5.8548270309371981E-033
 PAO|CG| warming up with steepest descent
 PAO|CG| beta:    0.0000000000000000     
 PAO| norm of gradient:  0.78921420494393624     
 PAO|LS| adapt:  T F F
 PAO|LS| adapt: scan_steps:    0.0000000000000000        0.0000000000000000        0.0000000000000000     
 PAO|LS| adapt: energies:   -7.5533951088101468        0.0000000000000000        0.0000000000000000     
 PAO| ======================= Iteration:         2 =============================

     Lanczos converged:  T threshold:   0.100E-02
     Est. extremal eigenvalues:    0.313E+01   0.134E+00
     Est. condition number :    0.233E+02
     NS sqrt iter    1 1.00000000   0.767E+00       0.001       64.512
     NS sqrt iter    2 1.00000000   0.399E+00       0.001      110.592
     NS sqrt iter    3 1.00000000   0.138E+00       0.001      110.592
     NS sqrt iter    4 1.00000000   0.108E-01       0.001      110.592
     NS sqrt iter    5 1.00000000   0.746E-05       0.001       82.944
     Final NS sqrt iter    5 1.00000000   0.850E-10

     Est. extremal eigenvalues     -0.90920     1.66594  converged:  T
     TRS4 it   1 1.00000000   0.856E+00       0.000       16.128   0.100E-07
     TRS4 it   2 1.00000000   0.638E+00       0.001       32.256   0.100E-07
     TRS4 it   3 1.00000000   0.462E+00       0.001       32.256   0.100E-07
     TRS4 it   4 1.00000000   0.278E+00       0.001       32.256   0.100E-07
     TRS4 it   5 1.00000000   0.125E+00       0.001       32.256   0.100E-07
     TRS4 it   6 1.00000000   0.303E-01       0.001       32.256   0.100E-07
     TRS4 it   7 1.00000000   0.231E-02       0.001       32.256   0.100E-07
     TRS4 it   8 1.00000000   0.173E-04       0.001       32.256   0.100E-07
     TRS4 it   9 1.00000000   0.122E-08       0.001       32.256   0.100E-07
     Final TRS4 iteration    9 1.00000000   0.122E-08
     Chemical potential (mu):      -0.05507
 
 PAO| energy:  -7.6095364744737184      penalty:   2.3158842081708886E-008
 PAO|LS| adapt:  T T F
 PAO|LS| adapt: scan_steps:    0.0000000000000000       0.10000000000000001        0.0000000000000000     
 PAO|LS| adapt: energies:   -7.5533951088101468       -7.6095364744737184        0.0000000000000000     
 PAO| ======================= Iteration:         3 =============================

     Lanczos converged:  T threshold:   0.100E-02
     Est. extremal eigenvalues:    0.305E+01   0.148E+00
     Est. condition number :    0.206E+02
     NS sqrt iter    1 1.00000000   0.753E+00       0.001       64.512
     NS sqrt iter    2 1.00000000   0.384E+00       0.001      110.592
     NS sqrt iter    3 1.00000000   0.122E+00       0.001      110.592
     NS sqrt iter    4 1.00000000   0.717E-02       0.001      110.592
     NS sqrt iter    5 1.00000000   0.207E-05       0.001       82.816
     Final NS sqrt iter    5 1.00000000   0.112E-09

     Est. extremal eigenvalues     -0.91264     1.62872  converged:  T
     TRS4 it   1 1.00000000   0.852E+00       0.000       16.128   0.100E-07
     TRS4 it   2 1.00000000   0.622E+00       0.001       32.256   0.100E-07
     TRS4 it   3 1.00000000   0.443E+00       0.001       32.256   0.100E-07
     TRS4 it   4 1.00000000   0.255E+00       0.001       32.256   0.100E-07
     TRS4 it   5 1.00000000   0.105E+00       0.001       32.256   0.100E-07
     TRS4 it   6 1.00000000   0.213E-01       0.001       32.256   0.100E-07
     TRS4 it   7 1.00000000   0.113E-02       0.001       32.256   0.100E-07
     TRS4 it   8 1.00000000   0.417E-05       0.001       32.256   0.100E-07
     TRS4 it   9 1.00000000   0.714E-10       0.001       32.256   0.100E-07
     Final TRS4 iteration    9 1.00000000   0.714E-10
     Chemical potential (mu):      -0.04212
 
 PAO| energy:  -7.6527288032994125      penalty:   3.7054113718413451E-007
 PAO|LS| adapt:  T T F
 PAO|LS| adapt: scan_steps:    0.0000000000000000       0.20000000000000001        0.0000000000000000     
 PAO|LS| adapt: energies:   -7.5533951088101468       -7.6527288032994125        0.0000000000000000     
 PAO| ======================= Iteration:         4 =============================

     Lanczos converged:  T threshold:   0.100E-02
     Est. extremal eigenvalues:    0.288E+01   0.168E+00
     Est. condition number :    0.171E+02
     NS sqrt iter    1 1.00000000   0.722E+00       0.001       64.512
     NS sqrt iter    2 1.00000000   0.352E+00       0.001      110.592
     NS sqrt iter    3 1.00000000   0.940E-01       0.001      110.592
     NS sqrt iter    4 1.00000000   0.330E-02       0.001      110.592
     NS sqrt iter    5 1.00000000   0.232E-06       0.001       78.464
     Final NS sqrt iter    5 1.00000000   0.856E-09

     Est. extremal eigenvalues     -0.91790     1.58245  converged:  T
     TRS4 it   1 1.00000000   0.849E+00       0.000       16.128   0.100E-07
     TRS4 it   2 1.00000000   0.597E+00       0.001       32.256   0.100E-07
     TRS4 it   3 1.00000000   0.409E+00       0.001       32.256   0.100E-07
     TRS4 it   4 1.00000000   0.215E+00       0.001       32.256   0.100E-07
     TRS4 it   5 1.00000000   0.727E-01       0.001       32.256   0.100E-07
     TRS4 it   6 1.00000000   0.981E-02       0.001       32.256   0.100E-07
     TRS4 it   7 1.00000000   0.228E-03       0.001       32.256   0.100E-07
     TRS4 it   8 1.00000000   0.168E-06       0.001       32.256   0.100E-07
     TRS4 it   9 1.00000000   0.118E-12       0.001       32.256   0.100E-07
     Final TRS4 iteration    9 1.00000000   0.118E-12
     Chemical potential (mu):      -0.01437
 
 PAO| energy:  -7.6987256044969454      penalty:   5.9286555064366436E-006
 PAO|LS| Need extra step
 PAO|LS| adapt:  T T F
 PAO|LS| adapt: scan_steps:    0.0000000000000000       0.40000000000000002        0.0000000000000000     
 PAO|LS| adapt: energies:   -7.5533951088101468       -7.6987256044969454        0.0000000000000000     
 PAO| ======================= Iteration:         5 =============================

     Lanczos converged:  T threshold:   0.100E-02
     Est. extremal eigenvalues:    0.255E+01   0.195E+00
     Est. condition number :    0.131E+02
     NS sqrt iter    1 1.00000000   0.663E+00       0.001       64.512
     NS sqrt iter    2 1.00000000   0.292E+00       0.001      110.592
     NS sqrt iter    3 1.00000000   0.565E-01       0.001      110.592
     NS sqrt iter    4 1.00000000   0.856E-03       0.001      110.592
     NS sqrt iter    5 1.00000000   0.338E-08       0.001       36.864
     Final NS sqrt iter    5 1.00000000   0.238E-08

     Est. extremal eigenvalues     -0.91880     1.54415  converged:  T
     TRS4 it   1 1.00000000   0.852E+00       0.000       16.128   0.100E-07
     TRS4 it   2 1.00000000   0.568E+00       0.001       32.256   0.100E-07
     TRS4 it   3 1.00000000   0.360E+00       0.001       32.256   0.100E-07
     TRS4 it   4 1.00000000   0.158E+00       0.001       32.256   0.100E-07
     TRS4 it   5 1.00000000   0.363E-01       0.001       32.256   0.100E-07
     TRS4 it   6 1.00000000   0.221E-02       0.001       32.256   0.100E-07
     TRS4 it   7 1.00000000   0.102E-04       0.001       32.256   0.100E-07
     TRS4 it   8 1.00000000   0.301E-09       0.001       32.256   0.100E-07
     Final TRS4 iteration    8 1.00000000   0.301E-09
     Chemical potential (mu):       0.03149
 
 PAO| energy:  -7.6364968906342297      penalty:   9.4858466596815607E-005
 PAO|LS| Need extra step
 PAO|LS| adapt:  T T T
 PAO|LS| adapt: scan_steps:    0.0000000000000000       0.40000000000000002       0.80000000000000004     
 PAO|LS| adapt: energies:   -7.5533951088101468       -7.6987256044969454       -7.6364968906342297     
 PAO|LS| adapt: suggested step_size:   0.48007525371140763     
 PAO|LS| adapt: predicted energy  -7.7028846021615909     
 PAO| ======================= Iteration:         6 =============================

     Lanczos converged:  T threshold:   0.100E-02
     Est. extremal eigenvalues:    0.281E+01   0.174E+00
     Est. condition number :    0.161E+02
     NS sqrt iter    1 1.00000000   0.709E+00       0.001       64.512
     NS sqrt iter    2 1.00000000   0.339E+00       0.001      110.592
     NS sqrt iter    3 1.00000000   0.846E-01       0.001      110.592
     NS sqrt iter    4 1.00000000   0.247E-02       0.001      110.592
     NS sqrt iter    5 1.00000000   0.109E-06       0.001       72.576
     Final NS sqrt iter    5 1.00000000   0.540E-09

     Est. extremal eigenvalues     -0.91920     1.57080  converged:  T
     TRS4 it   1 1.00000000   0.849E+00       0.000       16.128   0.100E-07
     TRS4 it   2 1.00000000   0.590E+00       0.001       32.256   0.100E-07
     TRS4 it   3 1.00000000   0.398E+00       0.001       32.256   0.100E-07
     TRS4 it   4 1.00000000   0.201E+00       0.001       32.256   0.100E-07
     TRS4 it   5 1.00000000   0.627E-01       0.001       32.256   0.100E-07
     TRS4 it   6 1.00000000   0.712E-02       0.001       32.256   0.100E-07
     TRS4 it   7 1.00000000   0.116E-03       0.001       32.256   0.100E-07
     TRS4 it   8 1.00000000   0.429E-07       0.001       32.256   0.100E-07
     Final TRS4 iteration    8 1.00000000   0.429E-07
     Chemical potential (mu):      -0.00329
 
 PAO| energy:  -7.7021715423386912      penalty:   1.2301370470525025E-005
 PAO|CG| warming up with steepest descent
 PAO|CG| beta:    0.0000000000000000     
 PAO| norm of gradient:  0.41521357466757719     
 PAO| energy improvement: -0.14877643352854442     
 PAO| step      6                   -7.702171542  0.260E-01  0.480E+00     0.076
 PAO|LS| adapt:  T F F
 PAO|LS| adapt: scan_steps:    0.0000000000000000        0.0000000000000000        0.0000000000000000     
 PAO|LS| adapt: energies:   -7.7021715423386912        0.0000000000000000        0.0000000000000000     
 PAO| ======================= Iteration:         7 =============================

     Lanczos converged:  T threshold:   0.100E-02
     Est. extremal eigenvalues:    0.273E+01   0.191E+00
     Est. condition number :    0.143E+02
     NS sqrt iter    1 1.00000000   0.693E+00       0.001       64.512
     NS sqrt iter    2 1.00000000   0.319E+00       0.001      110.277
     NS sqrt iter    3 1.00000000   0.699E-01       0.001      110.592
     NS sqrt iter    4 1.00000000   0.142E-02       0.001      110.592
     NS sqrt iter    5 1.00000000   0.220E-07       0.001       54.272
     Final NS sqrt iter    5 1.00000000   0.299E-08

     Est. extremal eigenvalues     -0.92092     1.55868  converged:  T
     TRS4 it   1 1.00000000   0.848E+00       0.000       16.128   0.100E-07
     TRS4 it   2 1.00000000   0.588E+00       0.001       32.256   0.100E-07
     TRS4 it   3 1.00000000   0.397E+00       0.001       32.256   0.100E-07
     TRS4 it   4 1.00000000   0.201E+00       0.001       32.256   0.100E-07
     TRS4 it   5 1.00000000   0.626E-01       0.001       32.256   0.100E-07
     TRS4 it   6 1.00000000   0.696E-02       0.001       32.256   0.100E-07
     TRS4 it   7 1.00000000   0.105E-03       0.001       32.256   0.100E-07
     TRS4 it   8 1.00000000   0.319E-07       0.001       32.256   0.100E-07
     Final TRS4 iteration    8 1.00000000   0.319E-07
     Chemical potential (mu):      -0.00224
 
 PAO| energy:  -7.6988882275660284      penalty:   1.8422771000874673E-005
 PAO|LS| adapt:  T F T
 PAO|LS| adapt: scan_steps:    0.0000000000000000        0.0000000000000000       0.48007525371140763     
 PAO|LS| adapt: energies:   -7.7021715423386912        0.0000000000000000       -7.6988882275660284     
 PAO| ======================= Iteration:         8 =============================

     Lanczos converged:  T threshold:   0.100E-02
     Est. extremal eigenvalues:    0.277E+01   0.182E+00
     Est. condition number :    0.152E+02
     NS sqrt iter    1 1.00000000   0.701E+00       0.001       64.512
     NS sqrt iter    2 1.00000000   0.329E+00       0.001      110.592
     NS sqrt iter    3 1.00000000   0.771E-01       0.001      110.592
     NS sqrt iter    4 1.00000000   0.189E-02       0.001      110.592
     NS sqrt iter    5 1.00000000   0.503E-07       0.001       64.128
     Final NS sqrt iter    5 1.00000000   0.320E-08

     Est. extremal eigenvalues     -0.92086     1.56408  converged:  T
     TRS4 it   1 1.00000000   0.848E+00       0.000       16.128   0.100E-07
     TRS4 it   2 1.00000000   0.589E+00       0.001       32.256   0.100E-07
     TRS4 it   3 1.00000000   0.397E+00       0.001       32.256   0.100E-07
     TRS4 it   4 1.00000000   0.200E+00       0.001       32.256   0.100E-07
     TRS4 it   5 1.00000000   0.626E-01       0.001       32.256   0.100E-07
     TRS4 it   6 1.00000000   0.713E-02       0.001       32.256   0.100E-07
     TRS4 it   7 1.00000000   0.114E-03       0.001       32.256   0.100E-07
     TRS4 it   8 1.00000000   0.396E-07       0.001       32.256   0.100E-07
     Final TRS4 iteration    8 1.00000000   0.396E-07
     Chemical potential (mu):      -0.00311
 
 PAO| energy:  -7.7218402743282510      penalty:   1.3317003850518047E-005
 PAO|LS| adapt:  T T T
 PAO|LS| adapt: scan_steps:    0.0000000000000000       0.24003762685570382       0.48007525371140763     
 PAO|LS| adapt: energies:   -7.7021715423386912       -7.7218402743282510       -7.6988882275660284     
 PAO|LS| adapt: suggested step_size:   0.23079191256643497     
 PAO|LS| adapt: predicted energy  -7.7218718908197026     
 PAO| ======================= Iteration:         9 =============================

     Lanczos converged:  T threshold:   0.100E-02
     Est. extremal eigenvalues:    0.277E+01   0.182E+00
     Est. condition number :    0.152E+02
     NS sqrt iter    1 1.00000000   0.701E+00       0.001       64.512
     NS sqrt iter    2 1.00000000   0.329E+00       0.001      110.592
     NS sqrt iter    3 1.00000000   0.774E-01       0.001      110.592
     NS sqrt iter    4 1.00000000   0.191E-02       0.001      110.592
     NS sqrt iter    5 1.00000000   0.519E-07       0.001       64.256
     Final NS sqrt iter    5 1.00000000   0.330E-08

     Est. extremal eigenvalues     -0.92083     1.56431  converged:  T
     TRS4 it   1 1.00000000   0.848E+00       0.000       16.128   0.100E-07
     TRS4 it   2 1.00000000   0.589E+00       0.001       32.256   0.100E-07
     TRS4 it   3 1.00000000   0.397E+00       0.001       32.256   0.100E-07
     TRS4 it   4 1.00000000   0.200E+00       0.001       32.256   0.100E-07
     TRS4 it   5 1.00000000   0.626E-01       0.001       32.256   0.100E-07
     TRS4 it   6 1.00000000   0.713E-02       0.001       32.256   0.100E-07
     TRS4 it   7 1.00000000   0.114E-03       0.001       32.256   0.100E-07
     TRS4 it   8 1.00000000   0.398E-07       0.001       32.256   0.100E-07
     Final TRS4 iteration    8 1.00000000   0.398E-07
     Chemical potential (mu):      -0.00313
 
 PAO| energy:  -7.7218843632324692      penalty:   1.3222306293448073E-005
 PAO|CG| trace_G_new    3.8358516611262522E-002
 PAO|CG| trace_G_prev   0.17240231258822766     
 PAO|CG| trace_G_mix   -1.3255986403291351E-003
 PAO|CG| trace_D   0.17240231258822766     
 PAO|CG| trace_D_Gnew   1.3255986403291351E-003
 PAO|CG| beta:   0.23018319566498349     
 PAO| norm of gradient:  0.19585330380481850     
 PAO| energy improvement:  -1.9712820893778016E-002
 PAO| step      9                   -7.721884363  0.122E-01  0.231E+00     0.048
 PAO|LS| adapt:  T F F
 PAO|LS| adapt: scan_steps:    0.0000000000000000        0.0000000000000000        0.0000000000000000     
 PAO|LS| adapt: energies:   -7.7218843632324692        0.0000000000000000        0.0000000000000000     
 PAO| ======================= Iteration:        10 =============================

     Lanczos converged:  T threshold:   0.100E-02
     Est. extremal eigenvalues:    0.273E+01   0.188E+00
     Est. condition number :    0.145E+02
     NS sqrt iter    1 1.00000000   0.694E+00       0.001       64.512
     NS sqrt iter    2 1.00000000   0.321E+00       0.001      110.592
     NS sqrt iter    3 1.00000000   0.719E-01       0.001      110.592
     NS sqrt iter    4 1.00000000   0.154E-02       0.001      110.592
     NS sqrt iter    5 1.00000000   0.276E-07       0.001       55.296
     Final NS sqrt iter    5 1.00000000   0.306E-08

     Est. extremal eigenvalues     -0.92179     1.56503  converged:  T
     TRS4 it   1 1.00000000   0.848E+00       0.000       16.128   0.100E-07
     TRS4 it   2 1.00000000   0.588E+00       0.001       32.256   0.100E-07
     TRS4 it   3 1.00000000   0.396E+00       0.001       32.256   0.100E-07
     TRS4 it   4 1.00000000   0.198E+00       0.001       32.256   0.100E-07
     TRS4 it   5 1.00000000   0.611E-01       0.001       32.256   0.100E-07
     TRS4 it   6 1.00000000   0.674E-02       0.001       32.256   0.100E-07
     TRS4 it   7 1.00000000   0.100E-03       0.001       32.256   0.100E-07
     TRS4 it   8 1.00000000   0.297E-07       0.001       32.256   0.100E-07
     Final TRS4 iteration    8 1.00000000   0.297E-07
     Chemical potential (mu):      -0.00035
 
 PAO| energy:  -7.7270316305189350      penalty:   1.3796543410957123E-005
 PAO|LS| adapt:  T T F
 PAO|LS| adapt: scan_steps:    0.0000000000000000       0.23079191256643497        0.0000000000000000     
 PAO|LS| adapt: energies:   -7.7218843632324692       -7.7270316305189350        0.0000000000000000     
 PAO| ======================= Iteration:        11 =============================

     Lanczos converged:  T threshold:   0.100E-02
     Est. extremal eigenvalues:    0.269E+01   0.194E+00
     Est. condition number :    0.139E+02
     NS sqrt iter    1 1.00000000   0.686E+00       0.001       64.512
     NS sqrt iter    2 1.00000000   0.312E+00       0.001      110.592
     NS sqrt iter    3 1.00000000   0.667E-01       0.001      110.592
     NS sqrt iter    4 1.00000000   0.124E-02       0.001      110.592
     NS sqrt iter    5 1.00000000   0.134E-07       0.001       44.288
     Final NS sqrt iter    5 1.00000000   0.522E-08

     Est. extremal eigenvalues     -0.92148     1.56745  converged:  T
     TRS4 it   1 1.00000000   0.849E+00       0.000       16.128   0.100E-07
     TRS4 it   2 1.00000000   0.589E+00       0.001       32.256   0.100E-07
     TRS4 it   3 1.00000000   0.395E+00       0.001       32.256   0.100E-07
     TRS4 it   4 1.00000000   0.197E+00       0.001       32.256   0.100E-07
     TRS4 it   5 1.00000000   0.597E-01       0.001       32.256   0.100E-07
     TRS4 it   6 1.00000000   0.638E-02       0.001       32.256   0.100E-07
     TRS4 it   7 1.00000000   0.880E-04       0.001       32.256   0.100E-07
     TRS4 it   8 1.00000000   0.223E-07       0.001       32.256   0.100E-07
     Final TRS4 iteration    8 1.00000000   0.223E-07
     Chemical potential (mu):       0.00248
 
 PAO| energy:  -7.7251862154013740      penalty:   1.5064375244422136E-005
 PAO|LS| adapt:  T T T
 PAO|LS| adapt: scan_steps:    0.0000000000000000       0.23079191256643497       0.46158382513286994     
 PAO|LS| adapt: energies:   -7.7218843632324692       -7.7270316305189350       -7.7251862154013740     
 PAO|LS| adapt: suggested step_size:   0.28528035727502915     
 PAO|LS| adapt: predicted energy  -7.7272265168857723     
 PAO| ======================= Iteration:        12 =============================

     Lanczos converged:  T threshold:   0.100E-02
     Est. extremal eigenvalues:    0.272E+01   0.189E+00
     Est. condition number :    0.144E+02
     NS sqrt iter    1 1.00000000   0.692E+00       0.001       64.512
     NS sqrt iter    2 1.00000000   0.319E+00       0.001      110.592
     NS sqrt iter    3 1.00000000   0.707E-01       0.001      110.592
     NS sqrt iter    4 1.00000000   0.147E-02       0.001      110.592
     NS sqrt iter    5 1.00000000   0.236E-07       0.001       53.248
     Final NS sqrt iter    5 1.00000000   0.394E-08

     Est. extremal eigenvalues     -0.92182     1.56546  converged:  T
     TRS4 it   1 1.00000000   0.848E+00       0.000       16.128   0.100E-07
     TRS4 it   2 1.00000000   0.588E+00       0.001       32.256   0.100E-07
     TRS4 it   3 1.00000000   0.395E+00       0.001       32.256   0.100E-07
     TRS4 it   4 1.00000000   0.198E+00       0.001       32.256   0.100E-07
     TRS4 it   5 1.00000000   0.607E-01       0.001       32.256   0.100E-07
     TRS4 it   6 1.00000000   0.665E-02       0.001       32.256   0.100E-07
     TRS4 it   7 1.00000000   0.970E-04       0.001       32.256   0.100E-07
     TRS4 it   8 1.00000000   0.277E-07       0.001       32.256   0.100E-07
     Final TRS4 iteration    8 1.00000000   0.277E-07
     Chemical potential (mu):       0.00031
 
 PAO| energy:  -7.7272106657458384      penalty:   1.4025954506857374E-005
 PAO|CG| trace_G_new    1.2465049427011501E-002
 PAO|CG| trace_G_prev    3.8358516611262522E-002
 PAO|CG| trace_G_mix   -5.3745818559656296E-004
 PAO|CG| trace_D    4.6882872014611159E-002
 PAO|CG| trace_D_Gnew   2.5760133816630799E-004
 PAO|CG| beta:   0.33897316062504806     
 PAO| norm of gradient:  0.11164698574977966     
 PAO| energy improvement:  -5.3263025133691855E-003
 PAO| step     12                   -7.727210666  0.698E-02  0.285E+00     0.046
 PAO|LS| adapt:  T F F
 PAO|LS| adapt: scan_steps:    0.0000000000000000        0.0000000000000000        0.0000000000000000     
 PAO|LS| adapt: energies:   -7.7272106657458384        0.0000000000000000        0.0000000000000000     
 PAO| ======================= Iteration:        13 =============================

     Lanczos converged:  T threshold:   0.100E-02
     Est. extremal eigenvalues:    0.269E+01   0.193E+00
     Est. condition number :    0.139E+02
     NS sqrt iter    1 1.00000000   0.685E+00       0.001       64.512
     NS sqrt iter    2 1.00000000   0.312E+00       0.001      110.592
     NS sqrt iter    3 1.00000000   0.666E-01       0.001      110.592
     NS sqrt iter    4 1.00000000   0.124E-02       0.001      110.592
     NS sqrt iter    5 1.00000000   0.136E-07       0.001       44.288
     Final NS sqrt iter    5 1.00000000   0.539E-08

     Est. extremal eigenvalues     -0.92235     1.56574  converged:  T
     TRS4 it   1 1.00000000   0.850E+00       0.000       16.128   0.100E-07
     TRS4 it   2 1.00000000   0.587E+00       0.001       32.256   0.100E-07
     TRS4 it   3 1.00000000   0.392E+00       0.001       32.256   0.100E-07
     TRS4 it   4 1.00000000   0.194E+00       0.001       32.256   0.100E-07
     TRS4 it   5 1.00000000   0.580E-01       0.001       32.256   0.100E-07
     TRS4 it   6 1.00000000   0.601E-02       0.001       32.256   0.100E-07
     TRS4 it   7 1.00000000   0.780E-04       0.001       32.256   0.100E-07
     TRS4 it   8 1.00000000   0.176E-07       0.001       32.256   0.100E-07
     Final TRS4 iteration    8 1.00000000   0.176E-07
     Chemical potential (mu):       0.00427
 
 PAO| energy:  -7.7293511460053148      penalty:   1.4354751775716791E-005
 PAO|LS| adapt:  T T F
 PAO|LS| adapt: scan_steps:    0.0000000000000000       0.28528035727502915        0.0000000000000000     
 PAO|LS| adapt: energies:   -7.7272106657458384       -7.7293511460053148        0.0000000000000000     
 PAO| ======================= Iteration:        14 =============================

     Lanczos converged:  T threshold:   0.100E-02
     Est. extremal eigenvalues:    0.266E+01   0.197E+00
     Est. condition number :    0.135E+02
     NS sqrt iter    1 1.00000000   0.678E+00       0.001       64.512
     NS sqrt iter    2 1.00000000   0.305E+00       0.001      110.592
     NS sqrt iter    3 1.00000000   0.628E-01       0.001      110.592
     NS sqrt iter    4 1.00000000   0.105E-02       0.001      110.592
     NS sqrt iter    5 1.00000000   0.720E-08       0.001       39.552
     Final NS sqrt iter    5 1.00000000   0.434E-08

     Est. extremal eigenvalues     -0.92233     1.56623  converged:  T
     TRS4 it   1 1.00000000   0.851E+00       0.000       16.128   0.100E-07
     TRS4 it   2 1.00000000   0.586E+00       0.001       32.256   0.100E-07
     TRS4 it   3 1.00000000   0.390E+00       0.001       32.256   0.100E-07
     TRS4 it   4 1.00000000   0.190E+00       0.001       32.256   0.100E-07
     TRS4 it   5 1.00000000   0.554E-01       0.001       32.256   0.100E-07
     TRS4 it   6 1.00000000   0.544E-02       0.001       32.256   0.100E-07
     TRS4 it   7 1.00000000   0.630E-04       0.001       32.256   0.100E-07
     TRS4 it   8 1.00000000   0.112E-07       0.001       32.256   0.100E-07
     Final TRS4 iteration    8 1.00000000   0.112E-07
     Chemical potential (mu):       0.00810
 
 PAO| energy:  -7.7287611646474215      penalty:   1.5151946030537617E-005
 PAO|LS| adapt:  T T T
 PAO|LS| adapt: scan_steps:    0.0000000000000000       0.28528035727502915       0.57056071455005830     
 PAO|LS| adapt: energies:   -7.7272106657458384       -7.7293511460053148       -7.7287611646474215     
 PAO|LS| adapt: suggested step_size:   0.36627891037394678     
 PAO|LS| adapt: predicted energy  -7.7294612028006791     
 PAO| ======================= Iteration:        15 =============================

     Lanczos converged:  T threshold:   0.100E-02
     Est. extremal eigenvalues:    0.268E+01   0.195E+00
     Est. condition number :    0.138E+02
     NS sqrt iter    1 1.00000000   0.683E+00       0.001       64.512
     NS sqrt iter    2 1.00000000   0.310E+00       0.001      110.592
     NS sqrt iter    3 1.00000000   0.655E-01       0.001      110.592
     NS sqrt iter    4 1.00000000   0.118E-02       0.001      110.592
     NS sqrt iter    5 1.00000000   0.115E-07       0.001       43.008
     Final NS sqrt iter    5 1.00000000   0.559E-08

     Est. extremal eigenvalues     -0.92240     1.56586  converged:  T
     TRS4 it   1 1.00000000   0.850E+00       0.000       16.128   0.100E-07
     TRS4 it   2 1.00000000   0.587E+00       0.001       32.256   0.100E-07
     TRS4 it   3 1.00000000   0.392E+00       0.001       32.256   0.100E-07
     TRS4 it   4 1.00000000   0.193E+00       0.001       32.256   0.100E-07
     TRS4 it   5 1.00000000   0.572E-01       0.001       32.256   0.100E-07
     TRS4 it   6 1.00000000   0.584E-02       0.001       32.256   0.100E-07
     TRS4 it   7 1.00000000   0.734E-04       0.001       32.256   0.100E-07
     TRS4 it   8 1.00000000   0.154E-07       0.001       32.256   0.100E-07
     Final TRS4 iteration    8 1.00000000   0.154E-07
     Chemical potential (mu):       0.00537
 
 PAO| energy:  -7.7294578597765922      penalty:   1.4530119685072511E-005
 PAO|CG| trace_G_new    2.6665124798364382E-003
 PAO|CG| trace_G_prev    1.2465049427011501E-002
 PAO|CG| trace_G_mix    9.2748333339094460E-005
 PAO|CG| trace_D    1.7677382983882856E-002
 PAO|CG| trace_D_Gnew   3.4119781007932822E-005
 PAO|CG| beta:   0.20647845494459499     
 PAO| norm of gradient:   5.1638285020287403E-002
 PAO| energy improvement:  -2.2471940307537963E-003
 PAO| step     15                   -7.729457860  0.323E-02  0.366E+00     0.046
 PAO|LS| adapt:  T F F
 PAO|LS| adapt: scan_steps:    0.0000000000000000        0.0000000000000000        0.0000000000000000     
 PAO|LS| adapt: energies:   -7.7294578597765922        0.0000000000000000        0.0000000000000000     
 PAO| ======================= Iteration:        16 =============================

     Lanczos converged:  T threshold:   0.100E-02
     Est. extremal eigenvalues:    0.267E+01   0.195E+00
     Est. condition number :    0.137E+02
     NS sqrt iter    1 1.00000000   0.681E+00       0.001       64.512
     NS sqrt iter    2 1.00000000   0.309E+00       0.001      110.592
     NS sqrt iter    3 1.00000000   0.649E-01       0.001      110.592
     NS sqrt iter    4 1.00000000   0.114E-02       0.001      110.592
     NS sqrt iter    5 1.00000000   0.101E-07       0.001       42.624
     Final NS sqrt iter    5 1.00000000   0.519E-08

     Est. extremal eigenvalues     -0.92243     1.56540  converged:  T
     TRS4 it   1 1.00000000   0.851E+00       0.000       16.128   0.100E-07
     TRS4 it   2 1.00000000   0.586E+00       0.001       32.256   0.100E-07
     TRS4 it   3 1.00000000   0.390E+00       0.001       32.256   0.100E-07
     TRS4 it   4 1.00000000   0.191E+00       0.001       32.256   0.100E-07
     TRS4 it   5 1.00000000   0.561E-01       0.001       32.256   0.100E-07
     TRS4 it   6 1.00000000   0.563E-02       0.001       32.256   0.100E-07
     TRS4 it   7 1.00000000   0.683E-04       0.001       32.256   0.100E-07
     TRS4 it   8 1.00000000   0.134E-07       0.001       32.256   0.100E-07
     Final TRS4 iteration    8 1.00000000   0.134E-07
     Chemical potential (mu):       0.00637
 
 PAO| energy:  -7.7296013675399369      penalty:   1.4334977122712480E-005
 PAO|LS| adapt:  T T F
 PAO|LS| adapt: scan_steps:    0.0000000000000000       0.36627891037394678        0.0000000000000000     
 PAO|LS| adapt: energies:   -7.7294578597765922       -7.7296013675399369        0.0000000000000000     
 PAO| ======================= Iteration:        17 =============================

     Lanczos converged:  T threshold:   0.100E-02
     Est. extremal eigenvalues:    0.266E+01   0.196E+00
     Est. condition number :    0.136E+02
     NS sqrt iter    1 1.00000000   0.679E+00       0.001       64.512
     NS sqrt iter    2 1.00000000   0.307E+00       0.001      110.592
     NS sqrt iter    3 1.00000000   0.643E-01       0.001      110.592
     NS sqrt iter    4 1.00000000   0.110E-02       0.001      110.592
     NS sqrt iter    5 1.00000000   0.852E-08       0.001       41.216
     Final NS sqrt iter    5 1.00000000   0.541E-08

     Est. extremal eigenvalues     -0.92229     1.56507  converged:  T
     TRS4 it   1 1.00000000   0.851E+00       0.000       16.128   0.100E-07
     TRS4 it   2 1.00000000   0.585E+00       0.001       32.256   0.100E-07
     TRS4 it   3 1.00000000   0.389E+00       0.001       32.256   0.100E-07
     TRS4 it   4 1.00000000   0.189E+00       0.001       32.256   0.100E-07
     TRS4 it   5 1.00000000   0.551E-01       0.001       32.256   0.100E-07
     TRS4 it   6 1.00000000   0.542E-02       0.001       32.256   0.100E-07
     TRS4 it   7 1.00000000   0.636E-04       0.001       32.256   0.100E-07
     TRS4 it   8 1.00000000   0.117E-07       0.001       32.256   0.100E-07
     Final TRS4 iteration    8 1.00000000   0.117E-07
     Chemical potential (mu):       0.00736
 
 PAO| energy:  -7.7280781478096392      penalty:   1.4257388288338772E-005
 PAO|LS| adapt:  T T T
 PAO|LS| adapt: scan_steps:    0.0000000000000000       0.36627891037394678       0.73255782074789355     
 PAO|LS| adapt: energies:   -7.7294578597765922       -7.7296013675399369       -7.7280781478096392     
 PAO|LS| adapt: suggested step_size:   0.21467662451345482     
 PAO|LS| adapt: predicted energy  -7.7297441327129341     
 PAO| ======================= Iteration:        18 =============================

     Lanczos converged:  T threshold:   0.100E-02
     Est. extremal eigenvalues:    0.268E+01   0.195E+00
     Est. condition number :    0.137E+02
     NS sqrt iter    1 1.00000000   0.682E+00       0.001       64.512
     NS sqrt iter    2 1.00000000   0.309E+00       0.001      110.592
     NS sqrt iter    3 1.00000000   0.651E-01       0.001      110.592
     NS sqrt iter    4 1.00000000   0.116E-02       0.001      109.505
     NS sqrt iter    5 1.00000000   0.107E-07       0.001       42.752
     Final NS sqrt iter    5 1.00000000   0.542E-08

     Est. extremal eigenvalues     -0.92243     1.56557  converged:  T
     TRS4 it   1 1.00000000   0.850E+00       0.000       16.128   0.100E-07
     TRS4 it   2 1.00000000   0.586E+00       0.001       32.256   0.100E-07
     TRS4 it   3 1.00000000   0.391E+00       0.001       32.256   0.100E-07
     TRS4 it   4 1.00000000   0.192E+00       0.001       32.256   0.100E-07
     TRS4 it   5 1.00000000   0.566E-01       0.001       32.256   0.100E-07
     TRS4 it   6 1.00000000   0.571E-02       0.001       32.256   0.100E-07
     TRS4 it   7 1.00000000   0.704E-04       0.001       32.256   0.100E-07
     TRS4 it   8 1.00000000   0.142E-07       0.001       32.256   0.100E-07
     Final TRS4 iteration    8 1.00000000   0.142E-07
     Chemical potential (mu):       0.00596
 
 PAO| energy:  -7.7297436818764336      penalty:   1.4401765081376519E-005
 PAO|CG| trace_G_new    7.4903546435724883E-004
 PAO|CG| trace_G_prev    2.6665124798364382E-003
 PAO|CG| trace_G_mix    1.2265378156493940E-006
 PAO|CG| trace_D    3.4060685779945727E-003
 PAO|CG| trace_D_Gnew  -1.8721879987777951E-006
 PAO|CG| beta:   0.28044456277492069     
 PAO| norm of gradient:   2.7368512278844258E-002
 PAO| energy improvement:  -2.8582209984140405E-004
 PAO| step     18                   -7.729743682  0.171E-02  0.215E+00     0.046
 PAO|LS| adapt:  T F F
 PAO|LS| adapt: scan_steps:    0.0000000000000000        0.0000000000000000        0.0000000000000000     
 PAO|LS| adapt: energies:   -7.7297436818764336        0.0000000000000000        0.0000000000000000     
 PAO| ======================= Iteration:        19 =============================

     Lanczos converged:  T threshold:   0.100E-02
     Est. extremal eigenvalues:    0.267E+01   0.195E+00
     Est. condition number :    0.137E+02
     NS sqrt iter    1 1.00000000   0.682E+00       0.001       64.512
     NS sqrt iter    2 1.00000000   0.309E+00       0.001      110.592
     NS sqrt iter    3 1.00000000   0.653E-01       0.001      110.592
     NS sqrt iter    4 1.00000000   0.116E-02       0.001      110.592
     NS sqrt iter    5 1.00000000   0.107E-07       0.001       42.752
     Final NS sqrt iter    5 1.00000000   0.545E-08

     Est. extremal eigenvalues     -0.92243     1.56590  converged:  T
     TRS4 it   1 1.00000000   0.851E+00       0.000       16.128   0.100E-07
     TRS4 it   2 1.00000000   0.586E+00       0.001       32.256   0.100E-07
     TRS4 it   3 1.00000000   0.391E+00       0.001       32.256   0.100E-07
     TRS4 it   4 1.00000000   0.192E+00       0.001       32.256   0.100E-07
     TRS4 it   5 1.00000000   0.565E-01       0.001       32.256   0.100E-07
     TRS4 it   6 1.00000000   0.571E-02       0.001       32.256   0.100E-07
     TRS4 it   7 1.00000000   0.705E-04       0.001       32.256   0.100E-07
     TRS4 it   8 1.00000000   0.144E-07       0.001       32.256   0.100E-07
     Final TRS4 iteration    8 1.00000000   0.144E-07
     Chemical potential (mu):       0.00587
 
 PAO| energy:  -7.7298650770024988      penalty:   1.4125370724274481E-005
 PAO|LS| adapt:  T T F
 PAO|LS| adapt: scan_steps:    0.0000000000000000       0.21467662451345482        0.0000000000000000     
 PAO|LS| adapt: energies:   -7.7297436818764336       -7.7298650770024988        0.0000000000000000     
 PAO| ======================= Iteration:        20 =============================

     Lanczos converged:  T threshold:   0.100E-02
     Est. extremal eigenvalues:    0.267E+01   0.195E+00
     Est. condition number :    0.137E+02
     NS sqrt iter    1 1.00000000   0.682E+00       0.001       64.512
     NS sqrt iter    2 1.00000000   0.309E+00       0.001      110.592
     NS sqrt iter    3 1.00000000   0.655E-01       0.001      110.592
     NS sqrt iter    4 1.00000000   0.117E-02       0.001      110.592
     NS sqrt iter    5 1.00000000   0.107E-07       0.001       42.880
     Final NS sqrt iter    5 1.00000000   0.533E-08

     Est. extremal eigenvalues     -0.92243     1.56623  converged:  T
     TRS4 it   1 1.00000000   0.851E+00       0.000       16.128   0.100E-07
     TRS4 it   2 1.00000000   0.586E+00       0.001       32.256   0.100E-07
     TRS4 it   3 1.00000000   0.391E+00       0.001       32.256   0.100E-07
     TRS4 it   4 1.00000000   0.191E+00       0.001       32.256   0.100E-07
     TRS4 it   5 1.00000000   0.564E-01       0.001       32.256   0.100E-07
     TRS4 it   6 1.00000000   0.571E-02       0.001       32.256   0.100E-07
     TRS4 it   7 1.00000000   0.707E-04       0.001       32.256   0.100E-07
     TRS4 it   8 1.00000000   0.145E-07       0.001       32.256   0.100E-07
     Final TRS4 iteration    8 1.00000000   0.145E-07
     Chemical potential (mu):       0.00577
 
 PAO| energy:  -7.7299069911582778      penalty:   1.3861479784971377E-005
 PAO|LS| adapt:  T T F
 PAO|LS| adapt: scan_steps:    0.0000000000000000       0.42935324902690963        0.0000000000000000     
 PAO|LS| adapt: energies:   -7.7297436818764336       -7.7299069911582778        0.0000000000000000     
 PAO| ======================= Iteration:        21 =============================

     Lanczos converged:  T threshold:   0.100E-02
     Est. extremal eigenvalues:    0.267E+01   0.195E+00
     Est. condition number :    0.137E+02
     NS sqrt iter    1 1.00000000   0.681E+00       0.001       64.512
     NS sqrt iter    2 1.00000000   0.310E+00       0.001      110.592
     NS sqrt iter    3 1.00000000   0.659E-01       0.001      110.592
     NS sqrt iter    4 1.00000000   0.118E-02       0.001      110.592
     NS sqrt iter    5 1.00000000   0.108E-07       0.001       42.880
     Final NS sqrt iter    5 1.00000000   0.539E-08

     Est. extremal eigenvalues     -0.92242     1.56691  converged:  T
     TRS4 it   1 1.00000000   0.851E+00       0.000       16.128   0.100E-07
     TRS4 it   2 1.00000000   0.586E+00       0.001       32.256   0.100E-07
     TRS4 it   3 1.00000000   0.390E+00       0.001       32.256   0.100E-07
     TRS4 it   4 1.00000000   0.191E+00       0.001       32.256   0.100E-07
     TRS4 it   5 1.00000000   0.563E-01       0.001       32.256   0.100E-07
     TRS4 it   6 1.00000000   0.570E-02       0.001       32.256   0.100E-07
     TRS4 it   7 1.00000000   0.712E-04       0.001       32.256   0.100E-07
     TRS4 it   8 1.00000000   0.148E-07       0.001       32.256   0.100E-07
     Final TRS4 iteration    8 1.00000000   0.148E-07
     Chemical potential (mu):       0.00557
 
 PAO| energy:  -7.7297497066949417      penalty:   1.3370692329284413E-005
 PAO|LS| Need extra step
 PAO|LS| adapt:  T T T
 PAO|LS| adapt: scan_steps:    0.0000000000000000       0.42935324902690963       0.85870649805381927     
 PAO|LS| adapt: energies:   -7.7297436818764336       -7.7299069911582778       -7.7297497066949417     
 PAO|LS| adapt: suggested step_size:   0.43338760003988558     
 PAO|LS| adapt: predicted energy  -7.7299070053110936     
 PAO| ======================= Iteration:        22 =============================

     Lanczos converged:  T threshold:   0.100E-02
     Est. extremal eigenvalues:    0.267E+01   0.195E+00
     Est. condition number :    0.137E+02
     NS sqrt iter    1 1.00000000   0.682E+00       0.001       64.512
     NS sqrt iter    2 1.00000000   0.309E+00       0.001      110.592
     NS sqrt iter    3 1.00000000   0.655E-01       0.001      110.592
     NS sqrt iter    4 1.00000000   0.117E-02       0.001      110.592
     NS sqrt iter    5 1.00000000   0.107E-07       0.001       42.880
     Final NS sqrt iter    5 1.00000000   0.533E-08

     Est. extremal eigenvalues     -0.92243     1.56624  converged:  T
     TRS4 it   1 1.00000000   0.851E+00       0.000       16.128   0.100E-07
     TRS4 it   2 1.00000000   0.586E+00       0.001       32.256   0.100E-07
     TRS4 it   3 1.00000000   0.391E+00       0.001       32.256   0.100E-07
     TRS4 it   4 1.00000000   0.191E+00       0.001       32.256   0.100E-07
     TRS4 it   5 1.00000000   0.564E-01       0.001       32.256   0.100E-07
     TRS4 it   6 1.00000000   0.571E-02       0.001       32.256   0.100E-07
     TRS4 it   7 1.00000000   0.707E-04       0.001       32.256   0.100E-07
     TRS4 it   8 1.00000000   0.145E-07       0.001       32.256   0.100E-07
     Final TRS4 iteration    8 1.00000000   0.145E-07
     Chemical potential (mu):       0.00577
 
 PAO| energy:  -7.7299070136754882      penalty:   1.3856639177831346E-005
 PAO|CG| trace_G_new    2.2092183693213518E-004
 PAO|CG| trace_G_prev    7.4903546435724883E-004
 PAO|CG| trace_G_mix    3.4269105592271743E-006
 PAO|CG| trace_D    1.0179699622507176E-003
 PAO|CG| trace_D_Gnew  -2.0698073803619721E-006
 PAO|CG| beta:   0.29036666048855447     
 PAO| norm of gradient:   1.4863439606367539E-002
 PAO| energy improvement:  -1.6333179905458906E-004
 PAO| step     22                   -7.729907014  0.929E-03  0.433E+00     0.060
 PAO|LS| adapt:  T F F
 PAO|LS| adapt: scan_steps:    0.0000000000000000        0.0000000000000000        0.0000000000000000     
 PAO|LS| adapt: energies:   -7.7299070136754882        0.0000000000000000        0.0000000000000000     
 PAO| ======================= Iteration:        23 =============================

     Lanczos converged:  T threshold:   0.100E-02
     Est. extremal eigenvalues:    0.268E+01   0.195E+00
     Est. condition number :    0.137E+02
     NS sqrt iter    1 1.00000000   0.682E+00       0.001       64.512
     NS sqrt iter    2 1.00000000   0.310E+00       0.001      110.592
     NS sqrt iter    3 1.00000000   0.656E-01       0.001      110.592
     NS sqrt iter    4 1.00000000   0.117E-02       0.001      110.592
     NS sqrt iter    5 1.00000000   0.106E-07       0.001       42.752
     Final NS sqrt iter    5 1.00000000   0.545E-08

     Est. extremal eigenvalues     -0.92243     1.56655  converged:  T
     TRS4 it   1 1.00000000   0.851E+00       0.000       16.128   0.100E-07
     TRS4 it   2 1.00000000   0.586E+00       0.001       32.256   0.100E-07
     TRS4 it   3 1.00000000   0.391E+00       0.001       32.256   0.100E-07
     TRS4 it   4 1.00000000   0.192E+00       0.001       32.256   0.100E-07
     TRS4 it   5 1.00000000   0.566E-01       0.001       32.256   0.100E-07
     TRS4 it   6 1.00000000   0.574E-02       0.001       32.256   0.100E-07
     TRS4 it   7 1.00000000   0.718E-04       0.001       32.256   0.100E-07
     TRS4 it   8 1.00000000   0.150E-07       0.001       32.256   0.100E-07
     Final TRS4 iteration    8 1.00000000   0.150E-07
     Chemical potential (mu):       0.00555
 
 PAO| energy:  -7.7299486696284596      penalty:   1.3228534887907632E-005
 PAO|LS| adapt:  T T F
 PAO|LS| adapt: scan_steps:    0.0000000000000000       0.43338760003988558        0.0000000000000000     
 PAO|LS| adapt: energies:   -7.7299070136754882       -7.7299486696284596        0.0000000000000000     
 PAO| ======================= Iteration:        24 =============================

     Lanczos converged:  T threshold:   0.100E-02
     Est. extremal eigenvalues:    0.268E+01   0.195E+00
     Est. condition number :    0.137E+02
     NS sqrt iter    1 1.00000000   0.682E+00       0.001       64.512
     NS sqrt iter    2 1.00000000   0.310E+00       0.001      110.592
     NS sqrt iter    3 1.00000000   0.656E-01       0.001      110.592
     NS sqrt iter    4 1.00000000   0.117E-02       0.001      110.592
     NS sqrt iter    5 1.00000000   0.105E-07       0.001       42.752
     Final NS sqrt iter    5 1.00000000   0.541E-08

     Est. extremal eigenvalues     -0.92243     1.56686  converged:  T
     TRS4 it   1 1.00000000   0.851E+00       0.000       16.128   0.100E-07
     TRS4 it   2 1.00000000   0.587E+00       0.001       32.256   0.100E-07
     TRS4 it   3 1.00000000   0.391E+00       0.001       32.256   0.100E-07
     TRS4 it   4 1.00000000   0.192E+00       0.001       32.256   0.100E-07
     TRS4 it   5 1.00000000   0.568E-01       0.001       32.256   0.100E-07
     TRS4 it   6 1.00000000   0.578E-02       0.001       32.256   0.100E-07
     TRS4 it   7 1.00000000   0.728E-04       0.001       32.256   0.100E-07
     TRS4 it   8 1.00000000   0.155E-07       0.001       32.256   0.100E-07
     Final TRS4 iteration    8 1.00000000   0.155E-07
     Chemical potential (mu):       0.00532
 
 PAO| energy:  -7.7298810675603216      penalty:   1.2625308879350857E-005
 PAO|LS| adapt:  T T T
 PAO|LS| adapt: scan_steps:    0.0000000000000000       0.43338760003988558       0.86677520007977116     
 PAO|LS| adapt: energies:   -7.7299070136754882       -7.7299486696284596       -7.7298810675603216     
 PAO|LS| adapt: suggested step_size:   0.38192810778375147     
 PAO|LS| adapt: predicted energy  -7.7299494398246500     
 PAO| ======================= Iteration:        25 =============================

     Lanczos converged:  T threshold:   0.100E-02
     Est. extremal eigenvalues:    0.268E+01   0.195E+00
     Est. condition number :    0.137E+02
     NS sqrt iter    1 1.00000000   0.682E+00       0.001       64.512
     NS sqrt iter    2 1.00000000   0.310E+00       0.001      110.592
     NS sqrt iter    3 1.00000000   0.656E-01       0.001      110.592
     NS sqrt iter    4 1.00000000   0.117E-02       0.001      110.592
     NS sqrt iter    5 1.00000000   0.106E-07       0.001       42.752
     Final NS sqrt iter    5 1.00000000   0.545E-08

     Est. extremal eigenvalues     -0.92243     1.56651  converged:  T
     TRS4 it   1 1.00000000   0.851E+00       0.000       16.128   0.100E-07
     TRS4 it   2 1.00000000   0.586E+00       0.001       32.256   0.100E-07
     TRS4 it   3 1.00000000   0.391E+00       0.001       32.256   0.100E-07
     TRS4 it   4 1.00000000   0.192E+00       0.001       32.256   0.100E-07
     TRS4 it   5 1.00000000   0.566E-01       0.001       32.256   0.100E-07
     TRS4 it   6 1.00000000   0.574E-02       0.001       32.256   0.100E-07
     TRS4 it   7 1.00000000   0.717E-04       0.001       32.256   0.100E-07
     TRS4 it   8 1.00000000   0.149E-07       0.001       32.256   0.100E-07
     Final TRS4 iteration    8 1.00000000   0.149E-07
     Chemical potential (mu):       0.00557
 
 PAO| energy:  -7.7299494234914201      penalty:   1.3301803314444436E-005
 PAO|CG| trace_G_new    7.4051412019727174E-005
 PAO|CG| trace_G_prev    2.2092183693213518E-004
 PAO|CG| trace_G_mix    3.9299821706973800E-007
 PAO|CG| trace_D    3.0795173835793680E-004
 PAO|CG| trace_D_Gnew  -3.0785614159510680E-007
 PAO|CG| beta:   0.33341391156947747     
 PAO| norm of gradient:   8.6053130111418477E-003
 PAO| energy improvement:  -4.2409815931954142E-005
 PAO| step     25                   -7.729949423  0.538E-03  0.382E+00     0.046
 PAO|LS| adapt:  T F F
 PAO|LS| adapt: scan_steps:    0.0000000000000000        0.0000000000000000        0.0000000000000000     
 PAO|LS| adapt: energies:   -7.7299494234914201        0.0000000000000000        0.0000000000000000     
 PAO| ======================= Iteration:        26 =============================

     Lanczos converged:  T threshold:   0.100E-02
     Est. extremal eigenvalues:    0.267E+01   0.195E+00
     Est. condition number :    0.137E+02
     NS sqrt iter    1 1.00000000   0.681E+00       0.001       64.512
     NS sqrt iter    2 1.00000000   0.309E+00       0.001      110.592
     NS sqrt iter    3 1.00000000   0.655E-01       0.001      110.592
     NS sqrt iter    4 1.00000000   0.116E-02       0.001      110.592
     NS sqrt iter    5 1.00000000   0.105E-07       0.001       42.752
     Final NS sqrt iter    5 1.00000000   0.540E-08

     Est. extremal eigenvalues     -0.92243     1.56637  converged:  T
     TRS4 it   1 1.00000000   0.851E+00       0.000       16.128   0.100E-07
     TRS4 it   2 1.00000000   0.586E+00       0.001       32.256   0.100E-07
     TRS4 it   3 1.00000000   0.391E+00       0.001       32.256   0.100E-07
     TRS4 it   4 1.00000000   0.192E+00       0.001       32.256   0.100E-07
     TRS4 it   5 1.00000000   0.566E-01       0.001       32.256   0.100E-07
     TRS4 it   6 1.00000000   0.573E-02       0.001       32.256   0.100E-07
     TRS4 it   7 1.00000000   0.714E-04       0.001       32.256   0.100E-07
     TRS4 it   8 1.00000000   0.148E-07       0.001       32.256   0.100E-07
     Final TRS4 iteration    8 1.00000000   0.148E-07
     Chemical potential (mu):       0.00562
 
 PAO| energy:  -7.7299544603032295      penalty:   1.2713805024298103E-005
 PAO|LS| adapt:  T T F
 PAO|LS| adapt: scan_steps:    0.0000000000000000       0.38192810778375147        0.0000000000000000     
 PAO|LS| adapt: energies:   -7.7299494234914201       -7.7299544603032295        0.0000000000000000     
 PAO| ======================= Iteration:        27 =============================

     Lanczos converged:  T threshold:   0.100E-02
     Est. extremal eigenvalues:    0.267E+01   0.195E+00
     Est. condition number :    0.137E+02
     NS sqrt iter    1 1.00000000   0.681E+00       0.001       64.512
     NS sqrt iter    2 1.00000000   0.309E+00       0.001      110.592
     NS sqrt iter    3 1.00000000   0.654E-01       0.001      110.592
     NS sqrt iter    4 1.00000000   0.116E-02       0.001      110.592
     NS sqrt iter    5 1.00000000   0.104E-07       0.001       42.624
     Final NS sqrt iter    5 1.00000000   0.536E-08

     Est. extremal eigenvalues     -0.92243     1.56624  converged:  T
     TRS4 it   1 1.00000000   0.851E+00       0.000       16.128   0.100E-07
     TRS4 it   2 1.00000000   0.586E+00       0.001       32.256   0.100E-07
     TRS4 it   3 1.00000000   0.391E+00       0.001       32.256   0.100E-07
     TRS4 it   4 1.00000000   0.192E+00       0.001       32.256   0.100E-07
     TRS4 it   5 1.00000000   0.565E-01       0.001       32.256   0.100E-07
     TRS4 it   6 1.00000000   0.572E-02       0.001       32.256   0.100E-07
     TRS4 it   7 1.00000000   0.712E-04       0.001       32.256   0.100E-07
     TRS4 it   8 1.00000000   0.147E-07       0.001       32.256   0.100E-07
     Final TRS4 iteration    8 1.00000000   0.147E-07
     Chemical potential (mu):       0.00567
 
 PAO| energy:  -7.7299128511975788      penalty:   1.2141599882891616E-005
 PAO|LS| adapt:  T T T
 PAO|LS| adapt: scan_steps:    0.0000000000000000       0.38192810778375147       0.76385621556750294     
 PAO|LS| adapt: energies:   -7.7299494234914201       -7.7299544603032295       -7.7299128511975788     
 PAO|LS| adapt: suggested step_size:   0.23220453341023237     
 PAO|LS| adapt: predicted energy  -7.7299580445737019     
 PAO| ======================= Iteration:        28 =============================

     Lanczos converged:  T threshold:   0.100E-02
     Est. extremal eigenvalues:    0.268E+01   0.195E+00
     Est. condition number :    0.137E+02
     NS sqrt iter    1 1.00000000   0.681E+00       0.001       64.512
     NS sqrt iter    2 1.00000000   0.309E+00       0.001      110.592
     NS sqrt iter    3 1.00000000   0.655E-01       0.001      110.592
     NS sqrt iter    4 1.00000000   0.117E-02       0.001      110.592
     NS sqrt iter    5 1.00000000   0.106E-07       0.001       42.752
     Final NS sqrt iter    5 1.00000000   0.542E-08

     Est. extremal eigenvalues     -0.92243     1.56643  converged:  T
     TRS4 it   1 1.00000000   0.851E+00       0.000       16.128   0.100E-07
     TRS4 it   2 1.00000000   0.586E+00       0.001       32.256   0.100E-07
     TRS4 it   3 1.00000000   0.391E+00       0.001       32.256   0.100E-07
     TRS4 it   4 1.00000000   0.192E+00       0.001       32.256   0.100E-07
     TRS4 it   5 1.00000000   0.566E-01       0.001       32.256   0.100E-07
     TRS4 it   6 1.00000000   0.573E-02       0.001       32.256   0.100E-07
     TRS4 it   7 1.00000000   0.715E-04       0.001       32.256   0.100E-07
     TRS4 it   8 1.00000000   0.149E-07       0.001       32.256   0.100E-07
     Final TRS4 iteration    8 1.00000000   0.149E-07
     Chemical potential (mu):       0.00560
 
 PAO| energy:  -7.7299580381385935      penalty:   1.2942421622236828E-005
 PAO|CG| trace_G_new    1.6862348218500081E-005
 PAO|CG| trace_G_prev    7.4051412019727174E-005
 PAO|CG| trace_G_mix    4.7883552560901456E-008
 PAO|CG| trace_D    1.0849010368276357E-004
 PAO|CG| trace_D_Gnew  -2.6351186753448547E-008
 PAO|CG| beta:   0.22706474066233653     
 PAO| norm of gradient:   4.1063789667418766E-003
 PAO| energy improvement:  -8.6146471733883345E-006
 PAO| step     28                   -7.729958038  0.257E-03  0.232E+00     0.046
 PAO|LS| adapt:  T F F
 PAO|LS| adapt: scan_steps:    0.0000000000000000        0.0000000000000000        0.0000000000000000     
 PAO|LS| adapt: energies:   -7.7299580381385935        0.0000000000000000        0.0000000000000000     
 PAO| ======================= Iteration:        29 =============================

     Lanczos converged:  T threshold:   0.100E-02
     Est. extremal eigenvalues:    0.267E+01   0.195E+00
     Est. condition number :    0.137E+02
     NS sqrt iter    1 1.00000000   0.681E+00       0.001       64.512
     NS sqrt iter    2 1.00000000   0.309E+00       0.001      110.592
     NS sqrt iter    3 1.00000000   0.655E-01       0.001      110.592
     NS sqrt iter    4 1.00000000   0.116E-02       0.001      110.592
     NS sqrt iter    5 1.00000000   0.105E-07       0.001       42.752
     Final NS sqrt iter    5 1.00000000   0.541E-08

     Est. extremal eigenvalues     -0.92243     1.56644  converged:  T
     TRS4 it   1 1.00000000   0.851E+00       0.000       16.128   0.100E-07
     TRS4 it   2 1.00000000   0.586E+00       0.001       32.256   0.100E-07
     TRS4 it   3 1.00000000   0.391E+00       0.001       32.256   0.100E-07
     TRS4 it   4 1.00000000   0.192E+00       0.001       32.256   0.100E-07
     TRS4 it   5 1.00000000   0.565E-01       0.001       32.256   0.100E-07
     TRS4 it   6 1.00000000   0.572E-02       0.001       32.256   0.100E-07
     TRS4 it   7 1.00000000   0.712E-04       0.001       32.256   0.100E-07
     TRS4 it   8 1.00000000   0.147E-07       0.001       32.256   0.100E-07
     Final TRS4 iteration    8 1.00000000   0.147E-07
     Chemical potential (mu):       0.00568
 
 PAO| energy:  -7.7299613471790103      penalty:   1.2618705344431100E-005
 PAO|LS| adapt:  T T F
 PAO|LS| adapt: scan_steps:    0.0000000000000000       0.23220453341023237        0.0000000000000000     
 PAO|LS| adapt: energies:   -7.7299580381385935       -7.7299613471790103        0.0000000000000000     
 PAO| ======================= Iteration:        30 =============================

     Lanczos converged:  T threshold:   0.100E-02
     Est. extremal eigenvalues:    0.267E+01   0.195E+00
     Est. condition number :    0.137E+02
     NS sqrt iter    1 1.00000000   0.681E+00       0.001       64.512
     NS sqrt iter    2 1.00000000   0.309E+00       0.001      110.592
     NS sqrt iter    3 1.00000000   0.654E-01       0.001      110.592
     NS sqrt iter    4 1.00000000   0.116E-02       0.001      110.592
     NS sqrt iter    5 1.00000000   0.105E-07       0.001       42.752
     Final NS sqrt iter    5 1.00000000   0.540E-08

     Est. extremal eigenvalues     -0.92243     1.56645  converged:  T
     TRS4 it   1 1.00000000   0.851E+00       0.000       16.128   0.100E-07
     TRS4 it   2 1.00000000   0.586E+00       0.001       32.256   0.100E-07
     TRS4 it   3 1.00000000   0.391E+00       0.001       32.256   0.100E-07
     TRS4 it   4 1.00000000   0.192E+00       0.001       32.256   0.100E-07
     TRS4 it   5 1.00000000   0.565E-01       0.001       32.256   0.100E-07
     TRS4 it   6 1.00000000   0.571E-02       0.001       32.256   0.100E-07
     TRS4 it   7 1.00000000   0.709E-04       0.001       32.256   0.100E-07
     TRS4 it   8 1.00000000   0.146E-07       0.001       32.256   0.100E-07
     Final TRS4 iteration    8 1.00000000   0.146E-07
     Chemical potential (mu):       0.00577
 
 PAO| energy:  -7.7299634402921011      penalty:   1.2299345694909346E-005
 PAO|LS| adapt:  T T F
 PAO|LS| adapt: scan_steps:    0.0000000000000000       0.46440906682046473        0.0000000000000000     
 PAO|LS| adapt: energies:   -7.7299580381385935       -7.7299634402921011        0.0000000000000000     
 PAO| ======================= Iteration:        31 =============================

     Lanczos converged:  T threshold:   0.100E-02
     Est. extremal eigenvalues:    0.267E+01   0.195E+00
     Est. condition number :    0.137E+02
     NS sqrt iter    1 1.00000000   0.681E+00       0.001       64.512
     NS sqrt iter    2 1.00000000   0.309E+00       0.001      110.592
     NS sqrt iter    3 1.00000000   0.653E-01       0.001      110.592
     NS sqrt iter    4 1.00000000   0.116E-02       0.001      110.592
     NS sqrt iter    5 1.00000000   0.105E-07       0.001       42.752
     Final NS sqrt iter    5 1.00000000   0.539E-08

     Est. extremal eigenvalues     -0.92244     1.56648  converged:  T
     TRS4 it   1 1.00000000   0.851E+00       0.000       16.128   0.100E-07
     TRS4 it   2 1.00000000   0.586E+00       0.001       32.256   0.100E-07
     TRS4 it   3 1.00000000   0.391E+00       0.001       32.256   0.100E-07
     TRS4 it   4 1.00000000   0.191E+00       0.001       32.256   0.100E-07
     TRS4 it   5 1.00000000   0.564E-01       0.001       32.256   0.100E-07
     TRS4 it   6 1.00000000   0.569E-02       0.001       32.256   0.100E-07
     TRS4 it   7 1.00000000   0.703E-04       0.001       32.256   0.100E-07
     TRS4 it   8 1.00000000   0.144E-07       0.001       32.256   0.100E-07
     Final TRS4 iteration    8 1.00000000   0.144E-07
     Chemical potential (mu):       0.00593
 
 PAO| energy:  -7.7299639774315905      penalty:   1.1673656816046022E-005
 PAO|LS| Need extra step
 PAO|LS| adapt:  T T F
 PAO|LS| adapt: scan_steps:    0.0000000000000000       0.92881813364092947        0.0000000000000000     
 PAO|LS| adapt: energies:   -7.7299580381385935       -7.7299639774315905        0.0000000000000000     
 PAO| ======================= Iteration:        32 =============================

     Lanczos converged:  T threshold:   0.100E-02
     Est. extremal eigenvalues:    0.267E+01   0.195E+00
     Est. condition number :    0.137E+02
     NS sqrt iter    1 1.00000000   0.681E+00       0.001       64.512
     NS sqrt iter    2 1.00000000   0.309E+00       0.001      110.592
     NS sqrt iter    3 1.00000000   0.651E-01       0.001      110.592
     NS sqrt iter    4 1.00000000   0.115E-02       0.001      110.592
     NS sqrt iter    5 1.00000000   0.104E-07       0.001       42.752
     Final NS sqrt iter    5 1.00000000   0.536E-08

     Est. extremal eigenvalues     -0.92244     1.56653  converged:  T
     TRS4 it   1 1.00000000   0.851E+00       0.000       16.128   0.100E-07
     TRS4 it   2 1.00000000   0.586E+00       0.001       32.256   0.100E-07
     TRS4 it   3 1.00000000   0.390E+00       0.001       32.256   0.100E-07
     TRS4 it   4 1.00000000   0.191E+00       0.001       32.256   0.100E-07
     TRS4 it   5 1.00000000   0.562E-01       0.001       32.256   0.100E-07
     TRS4 it   6 1.00000000   0.564E-02       0.001       32.256   0.100E-07
     TRS4 it   7 1.00000000   0.691E-04       0.001       32.256   0.100E-07
     TRS4 it   8 1.00000000   0.139E-07       0.001       32.256   0.100E-07
     Final TRS4 iteration    8 1.00000000   0.139E-07
     Chemical potential (mu):       0.00625
 
 PAO| energy:  -7.7299504461398607      penalty:   1.0474125267797088E-005
 PAO|LS| Need extra step
 PAO|LS| adapt:  T T T
 PAO|LS| adapt: scan_steps:    0.0000000000000000       0.92881813364092947        1.8576362672818589     
 PAO|LS| adapt: energies:   -7.7299580381385935       -7.7299639774315905       -7.7299504461398607     
 PAO|LS| adapt: suggested step_size:   0.74773507443740805     
 PAO|LS| adapt: predicted energy  -7.7299643474669892     
 PAO| ======================= Iteration:        33 =============================

     Lanczos converged:  T threshold:   0.100E-02
     Est. extremal eigenvalues:    0.267E+01   0.195E+00
     Est. condition number :    0.137E+02
     NS sqrt iter    1 1.00000000   0.681E+00       0.001       64.512
     NS sqrt iter    2 1.00000000   0.309E+00       0.001      110.592
     NS sqrt iter    3 1.00000000   0.654E-01       0.001      110.592
     NS sqrt iter    4 1.00000000   0.116E-02       0.001      110.592
     NS sqrt iter    5 1.00000000   0.105E-07       0.001       42.752
     Final NS sqrt iter    5 1.00000000   0.540E-08

     Est. extremal eigenvalues     -0.92244     1.56647  converged:  T
     TRS4 it   1 1.00000000   0.851E+00       0.000       16.128   0.100E-07
     TRS4 it   2 1.00000000   0.586E+00       0.001       32.256   0.100E-07
     TRS4 it   3 1.00000000   0.391E+00       0.001       32.256   0.100E-07
     TRS4 it   4 1.00000000   0.191E+00       0.001       32.256   0.100E-07
     TRS4 it   5 1.00000000   0.564E-01       0.001       32.256   0.100E-07
     TRS4 it   6 1.00000000   0.570E-02       0.001       32.256   0.100E-07
     TRS4 it   7 1.00000000   0.705E-04       0.001       32.256   0.100E-07
     TRS4 it   8 1.00000000   0.145E-07       0.001       32.256   0.100E-07
     Final TRS4 iteration    8 1.00000000   0.145E-07
     Chemical potential (mu):       0.00586
 
 PAO| energy:  -7.7299643468077779      penalty:   1.1915563329635598E-005
 PAO|CG| trace_G_new    4.3204875205659154E-005
 PAO|CG| trace_G_prev    1.6862348218500081E-005
 PAO|CG| trace_G_mix    1.9713998781938207E-008
 PAO|CG| trace_D    2.2467890846073098E-005
 PAO|CG| trace_D_Gnew  -3.4049508273286319E-009
 PAO|CG| beta:    2.5610407665225270     
 PAO| norm of gradient:   6.5730415490592442E-003
 PAO| energy improvement:  -6.3086691843849962E-006
 PAO| step     33                   -7.729964347  0.411E-03  0.748E+00     0.074
 PAO|LS| adapt:  T F F
 PAO|LS| adapt: scan_steps:    0.0000000000000000        0.0000000000000000        0.0000000000000000     
 PAO|LS| adapt: energies:   -7.7299643468077779        0.0000000000000000        0.0000000000000000     
 PAO| ======================= Iteration:        34 =============================

     Lanczos converged:  T threshold:   0.100E-02
     Est. extremal eigenvalues:    0.267E+01   0.195E+00
     Est. condition number :    0.137E+02
     NS sqrt iter    1 1.00000000   0.680E+00       0.001       64.512
     NS sqrt iter    2 1.00000000   0.308E+00       0.001      110.592
     NS sqrt iter    3 1.00000000   0.650E-01       0.001      110.592
     NS sqrt iter    4 1.00000000   0.115E-02       0.001      110.592
     NS sqrt iter    5 1.00000000   0.103E-07       0.001       42.752
     Final NS sqrt iter    5 1.00000000   0.534E-08

     Est. extremal eigenvalues     -0.92245     1.56586  converged:  T
     TRS4 it   1 1.00000000   0.851E+00       0.000       16.128   0.100E-07
     TRS4 it   2 1.00000000   0.586E+00       0.001       32.256   0.100E-07
     TRS4 it   3 1.00000000   0.390E+00       0.001       32.256   0.100E-07
     TRS4 it   4 1.00000000   0.191E+00       0.001       32.256   0.100E-07
     TRS4 it   5 1.00000000   0.559E-01       0.001       32.256   0.100E-07
     TRS4 it   6 1.00000000   0.559E-02       0.001       32.256   0.100E-07
     TRS4 it   7 1.00000000   0.676E-04       0.001       32.256   0.100E-07
     TRS4 it   8 1.00000000   0.133E-07       0.001       32.256   0.100E-07
     Final TRS4 iteration    8 1.00000000   0.133E-07
     Chemical potential (mu):       0.00654
 
 PAO| energy:  -7.7299766569226289      penalty:   8.8546139778298781E-006
 PAO|LS| adapt:  T T F
[...]
 PAO|LS| adapt: scan_steps:    0.0000000000000000       0.20000000000000001        0.0000000000000000     
 PAO|LS| adapt: energies:   -7.7293186293616207       -7.7293186293734344        0.0000000000000000     
 PAO| ======================= Iteration:       935 =============================

     Lanczos converged:  T threshold:   0.100E-02
     Est. extremal eigenvalues:    0.247E+01   0.238E+00
     Est. condition number :    0.104E+02
     NS sqrt iter    1 1.00000000   0.623E+00       0.001       64.512
     NS sqrt iter    2 1.00000000   0.259E+00       0.001      110.592
     NS sqrt iter    3 1.00000000   0.393E-01       0.001      110.592
     NS sqrt iter    4 1.00000000   0.251E-03       0.001      110.080
     NS sqrt iter    5 1.00000000   0.254E-09       0.001       36.864
     Final NS sqrt iter    5 1.00000000   0.381E-10

     Est. extremal eigenvalues     -0.92213     1.34669  converged:  T
     TRS4 it   1 1.00000000   0.794E+00       0.000       16.128   0.100E-07
     TRS4 it   2 1.00000000   0.565E+00       0.001       32.256   0.100E-07
     TRS4 it   3 1.00000000   0.395E+00       0.001       32.256   0.100E-07
     TRS4 it   4 1.00000000   0.234E+00       0.001       32.256   0.100E-07
     TRS4 it   5 1.00000000   0.990E-01       0.001       32.256   0.100E-07
     TRS4 it   6 1.00000000   0.218E-01       0.001       32.256   0.100E-07
     TRS4 it   7 1.00000000   0.141E-02       0.001       32.256   0.100E-07
     TRS4 it   8 1.00000000   0.729E-05       0.001       32.256   0.100E-07
     TRS4 it   9 1.00000000   0.226E-09       0.001       32.256   0.100E-07
     Final TRS4 iteration    9 1.00000000   0.226E-09
     Chemical potential (mu):      -0.07621
 
 PAO| energy:  -7.7293186293703151      penalty:   8.5878385189622680E-012
 PAO|LS| Need extra step
 PAO|LS| adapt:  T T T
 PAO|LS| adapt: scan_steps:    0.0000000000000000       0.20000000000000001       0.40000000000000002     
 PAO|LS| adapt: energies:   -7.7293186293616207       -7.7293186293734344       -7.7293186293703151     
 PAO|LS| adapt: suggested step_size:   0.25822280378278717     
 PAO|LS| adapt: predicted energy  -7.7293186293740659     
 PAO| ======================= Iteration:       936 =============================

     Lanczos converged:  T threshold:   0.100E-02
     Est. extremal eigenvalues:    0.247E+01   0.238E+00
     Est. condition number :    0.104E+02
     NS sqrt iter    1 1.00000000   0.623E+00       0.001       64.512
     NS sqrt iter    2 1.00000000   0.259E+00       0.001      110.592
     NS sqrt iter    3 1.00000000   0.393E-01       0.001      110.592
     NS sqrt iter    4 1.00000000   0.251E-03       0.001      110.080
     NS sqrt iter    5 1.00000000   0.254E-09       0.001       36.864
     Final NS sqrt iter    5 1.00000000   0.381E-10

     Est. extremal eigenvalues     -0.92213     1.34669  converged:  T
     TRS4 it   1 1.00000000   0.794E+00       0.000       16.128   0.100E-07
     TRS4 it   2 1.00000000   0.565E+00       0.001       32.256   0.100E-07
     TRS4 it   3 1.00000000   0.395E+00       0.001       32.256   0.100E-07
     TRS4 it   4 1.00000000   0.234E+00       0.001       32.256   0.100E-07
     TRS4 it   5 1.00000000   0.990E-01       0.001       32.256   0.100E-07
     TRS4 it   6 1.00000000   0.218E-01       0.001       32.256   0.100E-07
     TRS4 it   7 1.00000000   0.141E-02       0.001       32.256   0.100E-07
     TRS4 it   8 1.00000000   0.729E-05       0.001       32.256   0.100E-07
     TRS4 it   9 1.00000000   0.226E-09       0.001       32.256   0.100E-07
     Final TRS4 iteration    9 1.00000000   0.226E-09
     Chemical potential (mu):      -0.07621
 
 PAO| energy:  -7.7293186293740721      penalty:   8.6867089023979784E-012
 PAO|CG| warming up with steepest descent
 PAO|CG| beta:    0.0000000000000000     
 PAO| norm of gradient:   7.4020471697225419E-006
 PAO| energy improvement:  -1.2451373265776056E-011
 PAO| step    936                   -7.729318629  0.463E-06  0.258E+00     0.064
 PAO| converged after          936  steps :-)
 PAO| Recalculating energy after mixing.

     Lanczos converged:  T threshold:   0.100E-02
     Est. extremal eigenvalues:    0.247E+01   0.238E+00
     Est. condition number :    0.104E+02
     NS sqrt iter    1 1.00000000   0.623E+00       0.001       64.512
     NS sqrt iter    2 1.00000000   0.259E+00       0.001      110.592
     NS sqrt iter    3 1.00000000   0.393E-01       0.001      110.592
     NS sqrt iter    4 1.00000000   0.251E-03       0.001      110.080
     NS sqrt iter    5 1.00000000   0.254E-09       0.001       36.864
     Final NS sqrt iter    5 1.00000000   0.381E-10

     Est. extremal eigenvalues     -0.92213     1.34669  converged:  T
     TRS4 it   1 1.00000000   0.794E+00       0.000       16.128   0.100E-07
     TRS4 it   2 1.00000000   0.565E+00       0.001       32.256   0.100E-07
     TRS4 it   3 1.00000000   0.395E+00       0.001       32.256   0.100E-07
     TRS4 it   4 1.00000000   0.234E+00       0.001       32.256   0.100E-07
     TRS4 it   5 1.00000000   0.990E-01       0.001       32.256   0.100E-07
     TRS4 it   6 1.00000000   0.218E-01       0.001       32.256   0.100E-07
     TRS4 it   7 1.00000000   0.141E-02       0.001       32.256   0.100E-07
     TRS4 it   8 1.00000000   0.729E-05       0.001       32.256   0.100E-07
     TRS4 it   9 1.00000000   0.226E-09       0.001       32.256   0.100E-07
     Final TRS4 iteration    9 1.00000000   0.226E-09
     Chemical potential (mu):      -0.07621
 
 PAO| energy:  -7.7293186293709555      penalty:   8.7772419641222076E-012
 PAO| Writing restart file.
     Est. extremal eigenvalues     -0.92213     1.34669  converged:  T
     TRS4 it   1 1.00000000   0.794E+00       0.000       16.128   0.100E-07
     TRS4 it   2 1.00000000   0.565E+00       0.001       32.256   0.100E-07
     TRS4 it   3 1.00000000   0.395E+00       0.001       32.256   0.100E-07
     TRS4 it   4 1.00000000   0.234E+00       0.001       32.256   0.100E-07
     TRS4 it   5 1.00000000   0.990E-01       0.001       32.256   0.100E-07
     TRS4 it   6 1.00000000   0.218E-01       0.001       32.256   0.100E-07
     TRS4 it   7 1.00000000   0.141E-02       0.001       32.256   0.100E-07
     TRS4 it   8 1.00000000   0.729E-05       0.001       32.256   0.100E-07
     TRS4 it   9 1.00000000   0.226E-09       0.001       32.256   0.100E-07
     Final TRS4 iteration    9 1.00000000   0.226E-09
     Chemical potential (mu):      -0.07621

 SCF     1       -34.445443024       -34.445443024    1.880892

*********************************************************
 Using MIXING_FRACTION=0.450 to mix KS matrix:  iscf=  2
 KS_nw=0.450*KS + 0.550*KS_old
*********************************************************
     Est. extremal eigenvalues     -0.92213     1.34669  converged:  T
     TRS4 it   1 1.00000000   0.794E+00       0.000       16.128   0.100E-07
     TRS4 it   2 1.00000000   0.565E+00       0.001       32.256   0.100E-07
     TRS4 it   3 1.00000000   0.395E+00       0.001       32.256   0.100E-07
     TRS4 it   4 1.00000000   0.234E+00       0.001       32.256   0.100E-07
     TRS4 it   5 1.00000000   0.990E-01       0.001       32.256   0.100E-07
     TRS4 it   6 1.00000000   0.218E-01       0.001       32.256   0.100E-07
     TRS4 it   7 1.00000000   0.141E-02       0.001       32.256   0.100E-07
     TRS4 it   8 1.00000000   0.729E-05       0.001       32.256   0.100E-07
     TRS4 it   9 1.00000000   0.226E-09       0.001       32.256   0.100E-07
     Final TRS4 iteration    9 1.00000000   0.226E-09
     Chemical potential (mu):      -0.07621

 SCF     2       -34.445443024         0.000000000    1.888237

 PAO| Storing density matrix for ASPC guess in slot:           1

 ENERGY| Total FORCE_EVAL ( QS ) energy (a.u.):              -34.445443024138740


 -------------------------------------------------------------------------------
 -                                                                             -
 -                                DBCSR STATISTICS                             -
 -                                                                             -
 -------------------------------------------------------------------------------
 COUNTER                                    TOTAL       BLAS       SMM       ACC
 flops     5 x     5 x     4                32000       0.0%    100.0%      0.0%
 flops    13 x     5 x     4                33280       0.0%    100.0%      0.0%
 flops     5 x    13 x     4                33280       0.0%    100.0%      0.0%
 flops    13 x    13 x     4                64896       0.0%    100.0%      0.0%
 flops     4 x     4 x     5              7319040       0.0%    100.0%      0.0%
 flops     5 x     4 x     5              8931200       0.0%    100.0%      0.0%
 flops     4 x     4 x    13              9514752       0.0%    100.0%      0.0%
 flops    13 x     4 x     5             11610560       0.0%    100.0%      0.0%
 flops     5 x     4 x    13             11610560       0.0%    100.0%      0.0%
 flops     5 x     4 x     4             13832160       0.0%    100.0%      0.0%
 flops    13 x     4 x    13             15093728       0.0%    100.0%      0.0%
 flops    13 x     4 x     4             18105568       0.0%    100.0%      0.0%
 flops     4 x     4 x     4            924508160       0.0%    100.0%      0.0%
 flops inhomo. stacks                           0       0.0%      0.0%      0.0%
 flops total                         1.020689E+09       0.0%    100.0%      0.0%
 flops max/rank                      1.020689E+09       0.0%    100.0%      0.0%
 matmuls inhomo. stacks                         0       0.0%      0.0%      0.0%
 matmuls total                            7522122       0.0%    100.0%      0.0%
 number of processed stacks                 60053       0.0%    100.0%      0.0%
 average stack size                                     0.0     125.3       0.0
 marketing flops                     1.668729E+09
 -------------------------------------------------------------------------------
 # multiplications                          50276
 max memory usage/rank             321.261568E+06
 # max total images/rank                        1
 # max 3D layers                                1
 # MPI messages exchanged                       0
 MPI messages size (bytes):
  total size                         0.000000E+00
  min size                           0.000000E+00
  max size                           0.000000E+00
  average size                       0.000000E+00
 MPI breakdown and total messages size (bytes):
             size <=      128                   0                        0
       128 < size <=     8192                   0                        0
      8192 < size <=    32768                   0                        0
     32768 < size <=   131072                   0                        0
    131072 < size <=  4194304                   0                        0
   4194304 < size <= 16777216                   0                        0
  16777216 < size                               0                        0
 -------------------------------------------------------------------------------

 MEMORY| Estimated peak process memory [MiB]                                 307

 -------------------------------------------------------------------------------
 -                                                                             -
 -                           R E F E R E N C E S                               -
 -                                                                             -
 -------------------------------------------------------------------------------
 
 CP2K version 7.0 (Development Version), the CP2K developers group (2018).
 CP2K is freely available from https://www.cp2k.org/ .

 Schuett, O; VandeVondele, J. 
 Journal of Chemical Theory and Computation, 14, (2018). 
 Machine Learning Adaptive Basis Sets for Efficient Large Scale Density Functional Theory Simulation.
 https://dx.doi.org/10.1021/acs.jctc.8b00378


 Schuett, Ole; Messmer, Peter; Hutter, Juerg; VandeVondele, Joost. 
 Electronic Structure Calculations on Graphics Processing Units, John Wiley & Sons, Ltd, 173-190 (2016). 
 GPU-Accelerated Sparse Matrix-Matrix Multiplication for Linear Scaling Density Functional Theory.
 https://dx.doi.org/10.1002/9781118670712.ch8


 Borstnik, U; VandeVondele, J; Weber, V; Hutter, J. 
 PARALLEL COMPUTING, 40 (5-6), 47-58 (2014). 
 Sparse matrix multiplication: The distributed block-compressed sparse
 row library.
 https://dx.doi.org/10.1016/j.parco.2014.03.012


 Hutter, J; Iannuzzi, M; Schiffmann, F; VandeVondele, J. 
 WILEY INTERDISCIPLINARY REVIEWS-COMPUTATIONAL MOLECULAR SCIENCE, 4 (1), 15-25 (2014). 
 CP2K: atomistic simulations of condensed matter systems.
 https://dx.doi.org/10.1002/wcms.1159


 VandeVondele, J; Borstnik, U; Hutter, J. 
 JOURNAL OF CHEMICAL THEORY AND COMPUTATION, 8 (10), 3565-3573 (2012). 
 Linear Scaling Self-Consistent Field Calculations with Millions of Atoms
 in the Condensed Phase.
 https://dx.doi.org/10.1021/ct200897x


 VandeVondele, J; Hutter, J. 
 JOURNAL OF CHEMICAL PHYSICS, 127 (11), 114105 (2007). 
 Gaussian basis sets for accurate calculations on molecular systems in
 gas and condensed phases.
 https://dx.doi.org/10.1063/1.2770708


 Krack, M. 
 THEORETICAL CHEMISTRY ACCOUNTS, 114 (1-3), 145-152 (2005). 
 Pseudopotentials for H to Kr optimized for gradient-corrected
 exchange-correlation functionals.
 https://dx.doi.org/10.1007/s00214-005-0655-y


 VandeVondele, J; Krack, M; Mohamed, F; Parrinello, M; Chassaing, T;
 Hutter, J. COMPUTER PHYSICS COMMUNICATIONS, 167 (2), 103-128 (2005). 
 QUICKSTEP: Fast and accurate density functional calculations using a
 mixed Gaussian and plane waves approach.
 https://dx.doi.org/10.1016/j.cpc.2004.12.014


 Frigo, M; Johnson, SG. 
 PROCEEDINGS OF THE IEEE, 93 (2), 216-231 (2005). 
 The design and implementation of FFTW3.
 https://dx.doi.org/10.1109/JPROC.2004.840301


 Niklasson, AMN; Tymczak, CJ; Challacombe, M. 
 JOURNAL OF CHEMICAL PHYSICS, 118 (19), 8611-8620 (2003). 
 Trace resetting density matrix purification in O(N)
 self-consistent-field theory.
 https://dx.doi.org/10.1063/1.1559913


 Hartwigsen, C; Goedecker, S; Hutter, J. 
 PHYSICAL REVIEW B, 58 (7), 3641-3662 (1998). 
 Relativistic separable dual-space Gaussian pseudopotentials from H to Rn.
 https://dx.doi.org/10.1103/PhysRevB.58.3641


 Lippert, G; Hutter, J; Parrinello, M. 
 MOLECULAR PHYSICS, 92 (3), 477-487 (1997). 
 A hybrid Gaussian and plane wave density functional scheme.
 https://dx.doi.org/10.1080/002689797170220


 Perdew, JP; Burke, K; Ernzerhof, M. 
 PHYSICAL REVIEW LETTERS, 77 (18), 3865-3868 (1996). 
 Generalized gradient approximation made simple.
 https://dx.doi.org/10.1103/PhysRevLett.77.3865


 Goedecker, S; Teter, M; Hutter, J. 
 PHYSICAL REVIEW B, 54 (3), 1703-1710 (1996). 
 Separable dual-space Gaussian pseudopotentials.
 https://dx.doi.org/10.1103/PhysRevB.54.1703


 -------------------------------------------------------------------------------
 -                                                                             -
 -                                T I M I N G                                  -
 -                                                                             -
 -------------------------------------------------------------------------------
 SUBROUTINE                       CALLS  ASD         SELF TIME        TOTAL TIME
                                MAXIMUM       AVERAGE  MAXIMUM  AVERAGE  MAXIMUM
 CP2K                                 1  1.0    0.026    0.026   45.904   45.904
 qs_energies                          1  2.0    0.000    0.000   45.540   45.540
 ls_scf                               1  3.0    0.000    0.000   45.439   45.439
 ls_scf_main                          7  4.0    0.001    0.001   28.296   28.296
 ls_scf_dm_to_ks                     15  5.0    0.000    0.000   28.179   28.179
 qs_ks_update_qs_env                 16  6.0    0.000    0.000   21.262   21.262
 rebuild_ks_matrix                   16  7.0    0.000    0.000   21.262   21.262
 qs_ks_build_kohn_sham_matrix        16  8.0    0.002    0.002   21.262   21.262
 pao_update                           7  4.0    0.020    0.020   15.127   15.127
 pao_calc_energy                    942  5.0    0.008    0.008   13.680   13.680
 qs_vxc_create                       16  9.0    0.000    0.000   12.051   12.051
 xc_vxc_pw_create                    16 10.0    0.195    0.195   12.051   12.051
 dbcsr_multiply_generic           50276  8.4    0.857    0.857   11.099   11.099
 qs_rho_update_rho                   16  6.0    0.000    0.000    8.852    8.852
 calculate_rho_elec                  16  7.0    7.205    7.205    8.852    8.852
 xc_rho_set_and_dset_create          16 11.0    0.074    0.074    8.812    8.812
 sum_up_and_integrate                16  9.0    0.034    0.034    7.934    7.934
 integrate_v_rspace                  16 10.0    7.019    7.019    7.900    7.900
 pw_transfer                        305 10.6    0.020    0.020    7.587    7.587
 fft_wrap_pw1pw2                    273 11.7    0.003    0.003    7.424    7.424
 fft_wrap_pw1pw2_200                177 12.8    0.607    0.607    7.097    7.097
 pao_dm_trs4                        942  6.0    0.005    0.005    7.086    7.086
 density_matrix_trs4                957  7.0    0.372    0.372    6.764    6.764
 ls_scf_init_matrix_S               949  7.0    0.006    0.006    6.565    6.565
 pao_rebuild_S                      942  6.0    0.004    0.004    6.519    6.519
 xc_functional_eval                  16 12.0    0.000    0.000    6.071    6.071
 pbe_lda_eval                        16 13.0    6.071    6.071    6.071    6.071
 matrix_sqrt_Newton_Schulz          949  8.0    0.243    0.243    5.901    5.901
 multiply_cannon                  50276  9.4    1.938    1.938    4.266    4.266
 fft3d_s                            274 13.6    4.127    4.127    4.139    4.139
 make_m2s                        100552  9.4    0.291    0.291    4.111    4.111
 make_images                     100552 10.4    1.089    1.089    3.657    3.657
 pao_guess_initial_P                  1  4.0    0.000    0.000    1.943    1.943
 pao_read_preopt_dm                   1  5.0    0.000    0.000    1.943    1.943
 arnoldi_extremal                  1906  8.5    0.007    0.007    1.833    1.833
 arnoldi_normal_ev                 1906  9.5    0.020    0.020    1.827    1.827
 density_rs2pw                       16  8.0    0.001    0.001    1.620    1.620
 pao_calc_AB                       1238  5.8    0.001    0.001    1.413    1.413
 pao_calc_AB_direct                1238  6.8    0.045    0.045    1.412    1.412
 pw_scatter_s                       144 14.2    1.367    1.367    1.367    1.367
 build_subspace                    1906 10.5    0.112    0.112    1.365    1.365
 pao_calc_grad_lnv_wrt_AB           295  7.0    0.014    0.014    1.316    1.316
 pw_gather_s                        129 13.1    1.283    1.283    1.283    1.283
 dbcsr_matrix_vector_mult         45725 11.5    0.222    0.222    1.203    1.203
 dbcsr_create_new                384745 10.7    0.670    0.670    1.190    1.190
 dbcsr_finalize                  118928  9.7    0.219    0.219    1.149    1.149
 -------------------------------------------------------------------------------

 The number of warnings for this run is : 0
 
 -------------------------------------------------------------------------------
  **** **** ******  **  PROGRAM ENDED AT                 2019-02-14 11:07:11.511
 ***** ** ***  *** **   PROGRAM RAN ON                                      otto
 **    ****   ******    PROGRAM RAN BY                                       ole
 ***** **    ** ** **   PROGRAM PROCESS ID                                  7728
  **** **  *******  **  PROGRAM STOPPED IN /home/ole/git/pao_ml_equivar/2H2O_MD/
                                           frame_1425
