 DBCSR| CPU Multiplication driver                                           BLAS
 DBCSR| Multrec recursion limit                                              512
 DBCSR| Multiplication stack size                                           1000
 DBCSR| Maximum elements for images                                    UNLIMITED
 DBCSR| Multiplicative factor virtual images                                   1
 DBCSR| Use multiplication densification                                       T
 DBCSR| Multiplication size stacks                                             3


  **** **** ******  **  PROGRAM STARTED AT               2019-03-28 17:33:26.394
 ***** ** ***  *** **   PROGRAM STARTED ON        oleschuett.zrh.corp.google.com
 **    ****   ******    PROGRAM STARTED BY                            oleschuett
 ***** **    ** ** **   PROGRAM PROCESS ID                                 34042
  **** **  *******  **  PROGRAM STARTED IN /usr/local/google/home/oleschuett/git
                                           /pao_ml_equivar/2H2O_rotations/phi_32

 CP2K| version string:                    CP2K version 7.0 (Development Version)
 CP2K| source code revision number:                                git:d9814d431
 CP2K| cp2kflags: libint fftw3 libxc libderiv_max_am1=5 libint_max_am=6         
 CP2K| is freely available from                            https://www.cp2k.org/
 CP2K| Program compiled at                          Mon Mar 25 16:50:07 CET 2019
 CP2K| Program compiled on                        oleschuett.zrh.corp.google.com
 CP2K| Program compiled for                                                local
 CP2K| Data directory path       /usr/local/google/home/oleschuett/git/cp2k/data
 CP2K| Input file name                                            2H2O_pao44.inp

 GLOBAL| Force Environment number                                              1
 GLOBAL| Basis set file name                                        BASIS_MOLOPT
 GLOBAL| Potential file name                                      GTH_POTENTIALS
 GLOBAL| MM Potential file name                                     MM_POTENTIAL
 GLOBAL| Coordinate file name                                         coords.xyz
 GLOBAL| Method name                                                        CP2K
 GLOBAL| Project name                                                 2H2O_pao44
 GLOBAL| Preferred FFT library                                             FFTW3
 GLOBAL| Preferred diagonalization lib.                                       SL
 GLOBAL| Run type                                                         ENERGY
 GLOBAL| All-to-all communication in single precision                          F
 GLOBAL| FFTs using library dependent lengths                                  F
 GLOBAL| Global print level                                                  LOW
 GLOBAL| MPI I/O enabled                                                       T
 GLOBAL| Total number of message passing processes                             1
 GLOBAL| Number of threads for this process                                    1
 GLOBAL| This output is from process                                           0
 GLOBAL| CPU model name :  Intel(R) Xeon(R) CPU E5-1650 v4 @ 3.60GHz

 MEMORY| system memory details [Kb]
 MEMORY|                        rank 0           min           max       average
 MEMORY| MemTotal             65953612      65953612      65953612      65953612
 MEMORY| MemFree               4704388       4704388       4704388       4704388
 MEMORY| Buffers               2543220       2543220       2543220       2543220
 MEMORY| Cached               25366352      25366352      25366352      25366352
 MEMORY| Slab                  3622436       3622436       3622436       3622436
 MEMORY| SReclaimable          2421472       2421472       2421472       2421472
 MEMORY| MemLikelyFree        35035432      35035432      35035432      35035432


 GENERATE|  Preliminary Number of Bonds generated:                             0
 GENERATE|  Achieved consistency in connectivity generation.

 *******************************************************************************
 *******************************************************************************
 **                                                                           **
 **     #####                         ##              ##                      **
 **    ##   ##            ##          ##              ##                      **
 **   ##     ##                       ##            ######                    **
 **   ##     ##  ##   ##  ##   #####  ##  ##   ####   ##    #####    #####    **
 **   ##     ##  ##   ##  ##  ##      ## ##   ##      ##   ##   ##  ##   ##   **
 **   ##  ## ##  ##   ##  ##  ##      ####     ###    ##   ######   ######    **
 **    ##  ###   ##   ##  ##  ##      ## ##      ##   ##   ##       ##        **
 **     #######   #####   ##   #####  ##  ##  ####    ##    #####   ##        **
 **           ##                                                    ##        **
 **                                                                           **
 **                                                ... make the atoms dance   **
 **                                                                           **
 **            Copyright (C) by CP2K developers group (2000 - 2018)           **
 **                                                                           **
 *******************************************************************************


 TOTAL NUMBERS AND MAXIMUM NUMBERS

  Total number of            - Atomic kinds:                                   2
                             - Atoms:                                          6
                             - Shell sets:                                     6
                             - Shells:                                        22
                             - Primitive Cartesian functions:                 42
                             - Cartesian basis functions:                     48
                             - Spherical basis functions:                     46

  Maximum angular momentum of- Orbital basis functions:                        2
                             - Local part of the GTH pseudopotential:          2
                             - Non-local part of the GTH pseudopotential:      0

 ------------------------------ Linear scaling SCF -----------------------------
 eps_scf:                                                              0.100E-07
 eps_filter:                                                           0.100E-07
 mixing_fraction:                                                      0.450E+00
 max_scf:                                                                     25
 fixed chemical potential (mu)                                                 F
 has unit metric:                                                              F
 Computing inv(S):                                                             T
 Computing sqrt(S):                                                            T
 Computing s preconditioner                                                    F
 sign sqrt order:                                                              3
 Extrapolation order:                                                          1
 Use single precision matrices                                                 F
 S preconditioner type                                                      NONE
 Polarized Atomic Orbitals (PAO)                                               T
 Purification method                                   Trace resetting 4th order
 Cluster type                                                             ATOMIC
 Computing Chebyshev                                                       FALSE
 Using PAO                                                                     T
 -------------------------------------------------------------------------------

 
 PAO|                                  EPS_PAO                           0.1E-04
 PAO|                                  MIXING                            0.5E+00
 PAO|                                  MAX_PAO                              1000
 PAO|                                  MAX_CYCLES                           1000
 PAO|                                  PARAMETERIZATION                   DIRECT
 PAO|                                  PRECONDITION                            F
 PAO|                                  REGULARIZATION                    0.0E+00
 PAO|                                  EPS_PGF                           0.1E-09
 PAO|                                  PENALTY_DISTANCE                  0.1E+00
 PAO|                                  PENALTY_STRENGTH                  0.5E-02
 PAO|                                  LINPOT_PRECONDITION_DELTA         0.0E+00
 PAO|                                  LINPOT_INITGUESS_DELT             0.0E+00
 PAO|                                  LINPOT_REGULARIZATION_DELTA       0.0E+00
 PAO|                                  LINPOT_REGULARIZATION_STRENGTH    0.0E+00
 PAO|                                  OPTIMIZER                              CG
 PAO|                                  CG_INIT_STEPS                           2
 PAO|                                  CG_RESET_LIMIT                    0.1E+00
 PAO|                                  CHECK_UNITARY_TOL                -0.1E+01
 PAO|                                  CHECK_GRADIENT_TOL               -0.1E+01
 PAO|                                  NUM_GRADIENT_ORDER                      2
 PAO|                                  NUM_GRADIENT_EPS                  0.1E-07
 PAO|                                  PRINT%RESTART%WRITE_CYCLES            100
 PAO|                                  RESTART_FILE 
 PAO|                                  PREOPT_DM_FILE 2H2O_ref_LS_DM_SPIN_1_RESTART.dm
 PAO|                                  MACHINE_LEARNING%METHOD        GAUSSIAN_P
 PAO|                                  MACHINE_LEARNING%PRIOR               ZERO
 PAO|                                  MACHINE_LEARNING%DESCRIPTOR     POTENTIAL
 PAO|                                  MACHINE_LEARNING%TOLERANCE        0.1E-01
 PAO|                                  MACHINE_LEARNING%GP_NOISE_VAR     0.1E+00
 PAO|                                  MACHINE_LEARNING%GP_SCALE         0.5E-01
 

 Calculating atomic Fock matrix for atomic kind: O

 Electronic structure
    Total number of core electrons                                          2.00
    Total number of valence electrons                                       6.00
    Total number of electrons                                               8.00
    Multiplicity                                                   not specified
    S   [  2.00] 2.00
    P      4.00


 *******************************************************************************
                  Iteration          Convergence                     Energy [au]
 *******************************************************************************
                          1        0.708315                     -15.576645311500
                          2        0.608879                     -15.587933561584
                          3        0.102828E-01                 -15.656849565404
                          4        0.113889E-02                 -15.656866888140
                          5        0.434197E-03                 -15.656867072159
                          6        0.263771E-03                 -15.656867091904
                          7        0.478536E-06                 -15.656867103452

 Energy components [Hartree]           Total Energy ::          -15.656867103452
                                        Band Energy ::           -3.000198112285
                                     Kinetic Energy ::           11.759971203220
                                   Potential Energy ::          -27.416838306672
                                      Virial (-V/T) ::            2.331369510426
                                        Core Energy ::          -26.140716385623
                                          XC Energy ::           -3.154051012914
                                     Coulomb Energy ::           13.637900295084
                       Total Pseudopotential Energy ::          -37.935781716540
                       Local Pseudopotential Energy ::          -39.218907440693
                    Nonlocal Pseudopotential Energy ::            1.283125724153
                                        Confinement ::            0.350941276976

 Orbital energies  State     L     Occupation   Energy[a.u.]          Energy[eV]

                       1     0          2.000      -0.864471          -23.523463

                       1     1          4.000      -0.317814           -8.648154


 Total Electron Density at R=0:                                         0.000068

 Calculating atomic Fock matrix for atomic kind: H

 Electronic structure
    Total number of core electrons                                          0.00
    Total number of valence electrons                                       1.00
    Total number of electrons                                               1.00
    Multiplicity                                                   not specified
    S      1.00


 *******************************************************************************
                  Iteration          Convergence                     Energy [au]
 *******************************************************************************
                          1        0.437545E-02                  -0.424159432110
                          2        0.531356E-03                  -0.424178438213
                          3        0.259176E-06                  -0.424178722480

 Energy components [Hartree]           Total Energy ::           -0.424178722480
                                        Band Energy ::           -0.199015229016
                                     Kinetic Energy ::            0.464007633961
                                   Potential Energy ::           -0.888186356441
                                      Virial (-V/T) ::            1.914163240935
                                        Core Energy ::           -0.479160803564
                                          XC Energy ::           -0.244352904054
                                     Coulomb Energy ::            0.299334985138
                       Total Pseudopotential Energy ::           -0.962295316385
                       Local Pseudopotential Energy ::           -0.962295316385
                    Nonlocal Pseudopotential Energy ::            0.000000000000
                                        Confinement ::            0.191268788606

 Orbital energies  State     L     Occupation   Energy[a.u.]          Energy[eV]

                       1     0          1.000      -0.199015           -5.415480


 Total Electron Density at R=0:                                         0.242907
 PAO| Made initial guess for matrix_X with norm:   4.8989794855663558     

     Lanczos converged:  T threshold:   0.100E-02
     Est. extremal eigenvalues:    0.337E+01   0.114E+00
     Est. condition number :    0.295E+02
     NS sqrt iter    1 1.00000000   0.822E+00       0.002       40.208
     NS sqrt iter    2 1.00000000   0.440E+00       0.002       63.287
     NS sqrt iter    3 1.00000000   0.171E+00       0.011        9.940
     NS sqrt iter    4 1.00000000   0.208E-01       0.002       66.681
     NS sqrt iter    5 1.00000000   0.548E-04       0.002       57.623
     Final NS sqrt iter    5 1.00000000   0.207E-08

 PAO| Read restart DM 2H2O_ref_LS_DM_SPIN_1_RESTART.dm with checksum:    43.725499809893115     
 PAO| Quickstep energy from restart density:  -34.451050426060725     
 PAO| ======================= Iteration:         1 =============================

     Lanczos converged:  T threshold:   0.100E-02
     Est. extremal eigenvalues:    0.337E+01   0.114E+00
     Est. condition number :    0.295E+02
     NS sqrt iter    1 1.00000000   0.822E+00       0.006       10.996
     NS sqrt iter    2 1.00000000   0.440E+00       0.002       68.690
     NS sqrt iter    3 1.00000000   0.171E+00       0.002       70.439
     NS sqrt iter    4 1.00000000   0.208E-01       0.006       17.897
     NS sqrt iter    5 1.00000000   0.548E-04       0.002       58.116
     Final NS sqrt iter    5 1.00000000   0.207E-08

     Est. extremal eigenvalues     -0.91913     1.89538  converged:  T
     TRS4 it   1 1.00000000   0.890E+00       0.001       16.128   0.100E-07
     TRS4 it   2 1.00000000   0.695E+00       0.001       32.256   0.100E-07
     TRS4 it   3 1.00000000   0.499E+00       0.001       32.256   0.100E-07
     TRS4 it   4 1.00000000   0.312E+00       0.001       32.256   0.100E-07
     TRS4 it   5 1.00000000   0.155E+00       0.001       32.256   0.100E-07
     TRS4 it   6 1.00000000   0.482E-01       0.001       32.256   0.100E-07
     TRS4 it   7 1.00000000   0.646E-02       0.001       32.256   0.100E-07
     TRS4 it   8 1.00000000   0.164E-03       0.001       32.256   0.100E-07
     TRS4 it   9 1.00000000   0.119E-06       0.001       32.256   0.100E-07
     TRS4 it  10 1.00000000   0.640E-13       0.001       32.256   0.100E-07
     Final TRS4 iteration   10 1.00000000   0.640E-13
     Chemical potential (mu):      -0.06350
 
 PAO| energy:  -7.6144202811477628      penalty:   3.6977854932234927E-033
 PAO|CG| warming up with steepest descent
 PAO|CG| beta:    0.0000000000000000     
 PAO| norm of gradient:  0.78386859813118193     
 PAO|LS| adapt:  T F F
 PAO|LS| adapt: scan_steps:    0.0000000000000000        0.0000000000000000        0.0000000000000000     
 PAO|LS| adapt: energies:   -7.6144202811477628        0.0000000000000000        0.0000000000000000     
 PAO| ======================= Iteration:         2 =============================

     Lanczos converged:  T threshold:   0.100E-02
     Est. extremal eigenvalues:    0.328E+01   0.127E+00
     Est. condition number :    0.259E+02
     NS sqrt iter    1 1.00000000   0.805E+00       0.002       40.670
     NS sqrt iter    2 1.00000000   0.425E+00       0.002       62.790
     NS sqrt iter    3 1.00000000   0.153E+00       0.002       64.356
     NS sqrt iter    4 1.00000000   0.144E-01       0.002       63.215
     NS sqrt iter    5 1.00000000   0.179E-04       0.002       51.719
     Final NS sqrt iter    5 1.00000000   0.479E-09

     Est. extremal eigenvalues     -0.92280     1.84378  converged:  T
     TRS4 it   1 1.00000000   0.888E+00       0.001       16.128   0.100E-07
     TRS4 it   2 1.00000000   0.677E+00       0.001       32.256   0.100E-07
     TRS4 it   3 1.00000000   0.484E+00       0.001       32.256   0.100E-07
     TRS4 it   4 1.00000000   0.293E+00       0.001       32.256   0.100E-07
     TRS4 it   5 1.00000000   0.136E+00       0.001       31.475   0.100E-07
     TRS4 it   6 1.00000000   0.373E-01       0.001       31.376   0.100E-07
     TRS4 it   7 1.00000000   0.390E-02       0.001       32.256   0.100E-07
     TRS4 it   8 1.00000000   0.602E-04       0.001       32.256   0.100E-07
     TRS4 it   9 1.00000000   0.161E-07       0.001       32.256   0.100E-07
     Final TRS4 iteration    9 1.00000000   0.161E-07
     Chemical potential (mu):      -0.05158
 
 PAO| energy:  -7.6699746529676593      penalty:   2.2546462281201810E-008
 PAO|LS| adapt:  T T F
 PAO|LS| adapt: scan_steps:    0.0000000000000000       0.10000000000000001        0.0000000000000000     
 PAO|LS| adapt: energies:   -7.6144202811477628       -7.6699746529676593        0.0000000000000000     
 PAO| ======================= Iteration:         3 =============================

     Lanczos converged:  T threshold:   0.100E-02
     Est. extremal eigenvalues:    0.319E+01   0.137E+00
     Est. condition number :    0.232E+02
     NS sqrt iter    1 1.00000000   0.788E+00       0.002       33.989
     NS sqrt iter    2 1.00000000   0.408E+00       0.002       55.482
     NS sqrt iter    3 1.00000000   0.136E+00       0.002       53.089
     NS sqrt iter    4 1.00000000   0.996E-02       0.002       53.798
     NS sqrt iter    5 1.00000000   0.618E-05       0.002       44.074
     Final NS sqrt iter    5 1.00000000   0.584E-10

     Est. extremal eigenvalues     -0.92623     1.80253  converged:  T
     TRS4 it   1 1.00000000   0.886E+00       0.001       16.128   0.100E-07
     TRS4 it   2 1.00000000   0.661E+00       0.001       26.392   0.100E-07
     TRS4 it   3 1.00000000   0.469E+00       0.001       25.854   0.100E-07
     TRS4 it   4 1.00000000   0.273E+00       0.001       26.066   0.100E-07
     TRS4 it   5 1.00000000   0.118E+00       0.001       28.339   0.100E-07
     TRS4 it   6 1.00000000   0.279E-01       0.001       28.151   0.100E-07
     TRS4 it   7 1.00000000   0.219E-02       0.001       28.011   0.100E-07
     TRS4 it   8 1.00000000   0.191E-04       0.001       27.254   0.100E-07
     TRS4 it   9 1.00000000   0.162E-08       0.001       30.203   0.100E-07
     Final TRS4 iteration    9 1.00000000   0.162E-08
     Chemical potential (mu):      -0.03870
 
 PAO| energy:  -7.7130845201619014      penalty:   3.6074343154514987E-007
 PAO|LS| adapt:  T T F
 PAO|LS| adapt: scan_steps:    0.0000000000000000       0.20000000000000001        0.0000000000000000     
 PAO|LS| adapt: energies:   -7.6144202811477628       -7.7130845201619014        0.0000000000000000     
 PAO| ======================= Iteration:         4 =============================

     Lanczos converged:  T threshold:   0.100E-02
     Est. extremal eigenvalues:    0.299E+01   0.155E+00
     Est. condition number :    0.193E+02
     NS sqrt iter    1 1.00000000   0.750E+00       0.002       28.934
     NS sqrt iter    2 1.00000000   0.373E+00       0.002       64.886
     NS sqrt iter    3 1.00000000   0.106E+00       0.002       62.952
     NS sqrt iter    4 1.00000000   0.492E-02       0.002       65.299
     NS sqrt iter    5 1.00000000   0.934E-06       0.002       51.418
     Final NS sqrt iter    5 1.00000000   0.148E-11

     Est. extremal eigenvalues     -0.93156     1.74300  converged:  T
     TRS4 it   1 1.00000000   0.884E+00       0.001       16.128   0.100E-07
     TRS4 it   2 1.00000000   0.636E+00       0.001       32.256   0.100E-07
     TRS4 it   3 1.00000000   0.441E+00       0.001       32.256   0.100E-07
     TRS4 it   4 1.00000000   0.238E+00       0.001       32.256   0.100E-07
     TRS4 it   5 1.00000000   0.869E-01       0.001       32.256   0.100E-07
     TRS4 it   6 1.00000000   0.147E-01       0.001       32.256   0.100E-07
     TRS4 it   7 1.00000000   0.579E-03       0.001       32.127   0.100E-07
     TRS4 it   8 1.00000000   0.129E-05       0.001       32.256   0.100E-07
     TRS4 it   9 1.00000000   0.740E-11       0.001       32.256   0.100E-07
     Final TRS4 iteration    9 1.00000000   0.740E-11
     Chemical potential (mu):      -0.01040
 
 PAO| energy:  -7.7603556658454274      penalty:   5.7718951850990990E-006
 PAO|LS| Need extra step
 PAO|LS| adapt:  T T F
 PAO|LS| adapt: scan_steps:    0.0000000000000000       0.40000000000000002        0.0000000000000000     
 PAO|LS| adapt: energies:   -7.6144202811477628       -7.7603556658454274        0.0000000000000000     
 PAO| ======================= Iteration:         5 =============================

     Lanczos converged:  T threshold:   0.100E-02
     Est. extremal eigenvalues:    0.263E+01   0.182E+00
     Est. condition number :    0.145E+02
     NS sqrt iter    1 1.00000000   0.685E+00       0.002       37.313
     NS sqrt iter    2 1.00000000   0.311E+00       0.002       62.230
     NS sqrt iter    3 1.00000000   0.655E-01       0.002       62.061
     NS sqrt iter    4 1.00000000   0.137E-02       0.002       62.942
     NS sqrt iter    5 1.00000000   0.267E-07       0.002       37.445
     Final NS sqrt iter    5 1.00000000   0.275E-08

     Est. extremal eigenvalues     -0.93279     1.67696  converged:  T
     TRS4 it   1 1.00000000   0.882E+00       0.001       16.128   0.100E-07
     TRS4 it   2 1.00000000   0.601E+00       0.001       31.759   0.100E-07
     TRS4 it   3 1.00000000   0.396E+00       0.001       32.256   0.100E-07
     TRS4 it   4 1.00000000   0.183E+00       0.001       32.256   0.100E-07
     TRS4 it   5 1.00000000   0.479E-01       0.001       32.256   0.100E-07
     TRS4 it   6 1.00000000   0.405E-02       0.001       32.072   0.100E-07
     TRS4 it   7 1.00000000   0.374E-04       0.001       32.256   0.100E-07
     TRS4 it   8 1.00000000   0.403E-08       0.001       32.256   0.100E-07
     Final TRS4 iteration    8 1.00000000   0.403E-08
     Chemical potential (mu):       0.03786
 
 PAO| energy:  -7.7055700505037823      penalty:   9.2350325204635744E-005
 PAO|LS| Need extra step
 PAO|LS| adapt:  T T T
 PAO|LS| adapt: scan_steps:    0.0000000000000000       0.40000000000000002       0.80000000000000004     
 PAO|LS| adapt: energies:   -7.6144202811477628       -7.7603556658454274       -7.7055700505037823     
 PAO|LS| adapt: suggested step_size:   0.49082235474929742     
 PAO|LS| adapt: predicted energy  -7.7655296887752829     
 PAO| ======================= Iteration:         6 =============================

     Lanczos converged:  T threshold:   0.100E-02
     Est. extremal eigenvalues:    0.290E+01   0.162E+00
     Est. condition number :    0.180E+02
     NS sqrt iter    1 1.00000000   0.733E+00       0.002       35.465
     NS sqrt iter    2 1.00000000   0.358E+00       0.002       53.128
     NS sqrt iter    3 1.00000000   0.948E-01       0.002       53.469
     NS sqrt iter    4 1.00000000   0.363E-02       0.002       55.757
     NS sqrt iter    5 1.00000000   0.414E-06       0.002       45.073
     Final NS sqrt iter    5 1.00000000   0.256E-10

     Est. extremal eigenvalues     -0.93304     1.72324  converged:  T
     TRS4 it   1 1.00000000   0.883E+00       0.001       16.128   0.100E-07
     TRS4 it   2 1.00000000   0.626E+00       0.001       25.947   0.100E-07
     TRS4 it   3 1.00000000   0.429E+00       0.001       31.448   0.100E-07
     TRS4 it   4 1.00000000   0.223E+00       0.001       31.595   0.100E-07
     TRS4 it   5 1.00000000   0.755E-01       0.001       32.256   0.100E-07
     TRS4 it   6 1.00000000   0.108E-01       0.001       32.256   0.100E-07
     TRS4 it   7 1.00000000   0.300E-03       0.001       32.256   0.100E-07
     TRS4 it   8 1.00000000   0.330E-06       0.001       32.256   0.100E-07
     TRS4 it   9 1.00000000   0.480E-12       0.001       32.256   0.100E-07
     Final TRS4 iteration    9 1.00000000   0.480E-12
     Chemical potential (mu):       0.00322
 
 PAO| energy:  -7.7647930012286119      penalty:   1.3085062855459711E-005
 PAO|CG| warming up with steepest descent
 PAO|CG| beta:    0.0000000000000000     
 PAO| norm of gradient:  0.41757632793913962     
 PAO| energy improvement: -0.15037272008084912     
 PAO| step      6                   -7.764793001  0.261E-01  0.491E+00     0.142
 PAO|LS| adapt:  T F F
 PAO|LS| adapt: scan_steps:    0.0000000000000000        0.0000000000000000        0.0000000000000000     
 PAO|LS| adapt: energies:   -7.7647930012286119        0.0000000000000000        0.0000000000000000     
 PAO| ======================= Iteration:         7 =============================

     Lanczos converged:  T threshold:   0.100E-02
     Est. extremal eigenvalues:    0.281E+01   0.176E+00
     Est. condition number :    0.160E+02
     NS sqrt iter    1 1.00000000   0.716E+00       0.002       39.190
     NS sqrt iter    2 1.00000000   0.337E+00       0.002       61.827
     NS sqrt iter    3 1.00000000   0.792E-01       0.002       62.004
     NS sqrt iter    4 1.00000000   0.220E-02       0.002       62.477
     NS sqrt iter    5 1.00000000   0.101E-06       0.002       46.246
     Final NS sqrt iter    5 1.00000000   0.124E-08

     Est. extremal eigenvalues     -0.93474     1.70983  converged:  T
     TRS4 it   1 1.00000000   0.882E+00       0.001       16.128   0.100E-07
     TRS4 it   2 1.00000000   0.624E+00       0.001       32.256   0.100E-07
     TRS4 it   3 1.00000000   0.429E+00       0.001       32.256   0.100E-07
     TRS4 it   4 1.00000000   0.224E+00       0.001       32.161   0.100E-07
     TRS4 it   5 1.00000000   0.761E-01       0.001       32.256   0.100E-07
     TRS4 it   6 1.00000000   0.108E-01       0.001       32.256   0.100E-07
     TRS4 it   7 1.00000000   0.281E-03       0.001       32.256   0.100E-07
     TRS4 it   8 1.00000000   0.274E-06       0.001       32.176   0.100E-07
     TRS4 it   9 1.00000000   0.325E-12       0.001       32.256   0.100E-07
     Final TRS4 iteration    9 1.00000000   0.325E-12
     Chemical potential (mu):       0.00522
 
 PAO| energy:  -7.7586791062854275      penalty:   1.9807818121523793E-005
 PAO|LS| adapt:  T F T
 PAO|LS| adapt: scan_steps:    0.0000000000000000        0.0000000000000000       0.49082235474929742     
 PAO|LS| adapt: energies:   -7.7647930012286119        0.0000000000000000       -7.7586791062854275     
 PAO| ======================= Iteration:         8 =============================

     Lanczos converged:  T threshold:   0.100E-02
     Est. extremal eigenvalues:    0.286E+01   0.169E+00
     Est. condition number :    0.170E+02
     NS sqrt iter    1 1.00000000   0.724E+00       0.002       38.380
     NS sqrt iter    2 1.00000000   0.348E+00       0.002       58.580
     NS sqrt iter    3 1.00000000   0.869E-01       0.002       56.260
     NS sqrt iter    4 1.00000000   0.284E-02       0.002       56.150
     NS sqrt iter    5 1.00000000   0.209E-06       0.003       24.714
     Final NS sqrt iter    5 1.00000000   0.936E-09

     Est. extremal eigenvalues     -0.93486     1.71596  converged:  T
     TRS4 it   1 1.00000000   0.882E+00       0.001       16.128   0.100E-07
     TRS4 it   2 1.00000000   0.625E+00       0.001       32.256   0.100E-07
     TRS4 it   3 1.00000000   0.429E+00       0.001       32.256   0.100E-07
     TRS4 it   4 1.00000000   0.223E+00       0.001       32.256   0.100E-07
     TRS4 it   5 1.00000000   0.755E-01       0.001       32.256   0.100E-07
     TRS4 it   6 1.00000000   0.108E-01       0.001       32.256   0.100E-07
     TRS4 it   7 1.00000000   0.298E-03       0.001       32.256   0.100E-07
     TRS4 it   8 1.00000000   0.319E-06       0.001       32.256   0.100E-07
     TRS4 it   9 1.00000000   0.447E-12       0.001       32.256   0.100E-07
     Final TRS4 iteration    9 1.00000000   0.447E-12
     Chemical potential (mu):       0.00378
 
 PAO| energy:  -7.7844198485514582      penalty:   1.4188487111543996E-005
 PAO|LS| adapt:  T T T
 PAO|LS| adapt: scan_steps:    0.0000000000000000       0.24541117737464871       0.49082235474929742     
 PAO|LS| adapt: energies:   -7.7647930012286119       -7.7844198485514582       -7.7586791062854275     
 PAO|LS| adapt: suggested step_size:   0.22887494335881639     
 PAO|LS| adapt: predicted energy  -7.7845228397829604     
 PAO| ======================= Iteration:         9 =============================

     Lanczos converged:  T threshold:   0.100E-02
     Est. extremal eigenvalues:    0.286E+01   0.168E+00
     Est. condition number :    0.170E+02
     NS sqrt iter    1 1.00000000   0.725E+00       0.002       38.970
     NS sqrt iter    2 1.00000000   0.348E+00       0.002       61.751
     NS sqrt iter    3 1.00000000   0.874E-01       0.002       62.641
     NS sqrt iter    4 1.00000000   0.289E-02       0.002       62.228
     NS sqrt iter    5 1.00000000   0.219E-06       0.002       49.583
     Final NS sqrt iter    5 1.00000000   0.715E-09

     Est. extremal eigenvalues     -0.93480     1.71641  converged:  T
     TRS4 it   1 1.00000000   0.882E+00       0.001       16.128   0.100E-07
     TRS4 it   2 1.00000000   0.625E+00       0.001       32.131   0.100E-07
     TRS4 it   3 1.00000000   0.429E+00       0.001       32.256   0.100E-07
     TRS4 it   4 1.00000000   0.223E+00       0.001       32.256   0.100E-07
     TRS4 it   5 1.00000000   0.755E-01       0.001       32.256   0.100E-07
     TRS4 it   6 1.00000000   0.108E-01       0.001       31.948   0.100E-07
     TRS4 it   7 1.00000000   0.298E-03       0.001       32.256   0.100E-07
     TRS4 it   8 1.00000000   0.321E-06       0.001       32.256   0.100E-07
     TRS4 it   9 1.00000000   0.452E-12       0.001       32.256   0.100E-07
     Final TRS4 iteration    9 1.00000000   0.452E-12
     Chemical potential (mu):       0.00371
 
 PAO| energy:  -7.7845475992417965      penalty:   1.4011729690199875E-005
 PAO|CG| trace_G_new    3.6834101488970532E-002
 PAO|CG| trace_G_prev   0.17436998965513589     
 PAO|CG| trace_G_mix   -1.4478362819018323E-003
 PAO|CG| trace_D   0.17436998965513589     
 PAO|CG| trace_D_Gnew   1.4478362819018323E-003
 PAO|CG| beta:   0.21954430258661661     
 PAO| norm of gradient:  0.19192212350057647     
 PAO| energy improvement:  -1.9754598013184577E-002
 PAO| step      9                   -7.784547599  0.120E-01  0.229E+00     0.088
 PAO|LS| adapt:  T F F
 PAO|LS| adapt: scan_steps:    0.0000000000000000        0.0000000000000000        0.0000000000000000     
 PAO|LS| adapt: energies:   -7.7845475992417965        0.0000000000000000        0.0000000000000000     
 PAO| ======================= Iteration:        10 =============================

     Lanczos converged:  T threshold:   0.100E-02
     Est. extremal eigenvalues:    0.282E+01   0.174E+00
     Est. condition number :    0.163E+02
     NS sqrt iter    1 1.00000000   0.717E+00       0.002       34.206
     NS sqrt iter    2 1.00000000   0.340E+00       0.002       55.473
     NS sqrt iter    3 1.00000000   0.818E-01       0.002       55.976
     NS sqrt iter    4 1.00000000   0.238E-02       0.002       57.232
     NS sqrt iter    5 1.00000000   0.123E-06       0.002       43.421
     Final NS sqrt iter    5 1.00000000   0.139E-08

     Est. extremal eigenvalues     -0.93569     1.71387  converged:  T
     TRS4 it   1 1.00000000   0.881E+00       0.001       16.128   0.100E-07
     TRS4 it   2 1.00000000   0.624E+00       0.001       32.256   0.100E-07
     TRS4 it   3 1.00000000   0.427E+00       0.001       32.256   0.100E-07
     TRS4 it   4 1.00000000   0.221E+00       0.001       32.256   0.100E-07
     TRS4 it   5 1.00000000   0.738E-01       0.001       32.256   0.100E-07
     TRS4 it   6 1.00000000   0.103E-01       0.001       32.256   0.100E-07
     TRS4 it   7 1.00000000   0.264E-03       0.001       32.256   0.100E-07
     TRS4 it   8 1.00000000   0.245E-06       0.001       32.256   0.100E-07
     TRS4 it   9 1.00000000   0.261E-12       0.001       32.256   0.100E-07
     Final TRS4 iteration    9 1.00000000   0.261E-12
     Chemical potential (mu):       0.00675
 
 PAO| energy:  -7.7895802506931986      penalty:   1.4546397803567787E-005
 PAO|LS| adapt:  T T F
 PAO|LS| adapt: scan_steps:    0.0000000000000000       0.22887494335881639        0.0000000000000000     
 PAO|LS| adapt: energies:   -7.7845475992417965       -7.7895802506931986        0.0000000000000000     
 PAO| ======================= Iteration:        11 =============================

     Lanczos converged:  T threshold:   0.100E-02
     Est. extremal eigenvalues:    0.279E+01   0.179E+00
     Est. condition number :    0.155E+02
     NS sqrt iter    1 1.00000000   0.709E+00       0.002       38.378
     NS sqrt iter    2 1.00000000   0.332E+00       0.002       59.577
     NS sqrt iter    3 1.00000000   0.764E-01       0.002       61.809
     NS sqrt iter    4 1.00000000   0.195E-02       0.002       62.467
     NS sqrt iter    5 1.00000000   0.677E-07       0.002       44.423
     Final NS sqrt iter    5 1.00000000   0.532E-09

     Est. extremal eigenvalues     -0.93561     1.71254  converged:  T
     TRS4 it   1 1.00000000   0.880E+00       0.001       16.128   0.100E-07
     TRS4 it   2 1.00000000   0.623E+00       0.001       32.256   0.100E-07
     TRS4 it   3 1.00000000   0.426E+00       0.001       32.256   0.100E-07
     TRS4 it   4 1.00000000   0.219E+00       0.001       32.256   0.100E-07
     TRS4 it   5 1.00000000   0.721E-01       0.001       32.256   0.100E-07
     TRS4 it   6 1.00000000   0.974E-02       0.001       32.256   0.100E-07
     TRS4 it   7 1.00000000   0.233E-03       0.001       32.256   0.100E-07
     TRS4 it   8 1.00000000   0.186E-06       0.001       32.256   0.100E-07
     TRS4 it   9 1.00000000   0.147E-12       0.001       32.256   0.100E-07
     Final TRS4 iteration    9 1.00000000   0.147E-12
     Chemical potential (mu):       0.00989
 
 PAO| energy:  -7.7882045730490042      penalty:   1.5746997407380308E-005
 PAO|LS| adapt:  T T T
 PAO|LS| adapt: scan_steps:    0.0000000000000000       0.22887494335881639       0.45774988671763278     
 PAO|LS| adapt: energies:   -7.7845475992417965       -7.7895802506931986       -7.7882045730490042     
 PAO|LS| adapt: suggested step_size:   0.29417977247288774     
 PAO|LS| adapt: predicted energy  -7.7898411115437254     
 PAO| ======================= Iteration:        12 =============================

     Lanczos converged:  T threshold:   0.100E-02
     Est. extremal eigenvalues:    0.281E+01   0.175E+00
     Est. condition number :    0.160E+02
     NS sqrt iter    1 1.00000000   0.715E+00       0.002       38.791
     NS sqrt iter    2 1.00000000   0.338E+00       0.002       60.596
     NS sqrt iter    3 1.00000000   0.802E-01       0.002       61.995
     NS sqrt iter    4 1.00000000   0.225E-02       0.002       62.433
     NS sqrt iter    5 1.00000000   0.104E-06       0.002       43.447
     Final NS sqrt iter    5 1.00000000   0.120E-08

     Est. extremal eigenvalues     -0.93576     1.71337  converged:  T
     TRS4 it   1 1.00000000   0.881E+00       0.001       16.128   0.100E-07
     TRS4 it   2 1.00000000   0.624E+00       0.001       24.183   0.100E-07
     TRS4 it   3 1.00000000   0.427E+00       0.001       32.256   0.100E-07
     TRS4 it   4 1.00000000   0.220E+00       0.001       32.256   0.100E-07
     TRS4 it   5 1.00000000   0.733E-01       0.001       32.256   0.100E-07
     TRS4 it   6 1.00000000   0.101E-01       0.001       32.256   0.100E-07
     TRS4 it   7 1.00000000   0.255E-03       0.001       32.256   0.100E-07
     TRS4 it   8 1.00000000   0.226E-06       0.001       32.256   0.100E-07
     TRS4 it   9 1.00000000   0.221E-12       0.001       32.256   0.100E-07
     Final TRS4 iteration    9 1.00000000   0.221E-12
     Chemical potential (mu):       0.00764
 
 PAO| energy:  -7.7898248523290867      penalty:   1.4813390946552629E-005
 PAO|CG| trace_G_new    1.1800630666906495E-002
 PAO|CG| trace_G_prev    3.6834101488970532E-002
 PAO|CG| trace_G_mix   -4.5428394217765056E-004
 PAO|CG| trace_D    4.4602954405001491E-002
 PAO|CG| trace_D_Gnew   2.0602275944254264E-004
 PAO|CG| beta:   0.33270567527631184     
 PAO| norm of gradient:  0.10863070775294845     
 PAO| energy improvement:  -5.2772530872902124E-003
 PAO| step     12                   -7.789824852  0.679E-02  0.294E+00     0.087
 PAO|LS| adapt:  T F F
 PAO|LS| adapt: scan_steps:    0.0000000000000000        0.0000000000000000        0.0000000000000000     
 PAO|LS| adapt: energies:   -7.7898248523290867        0.0000000000000000        0.0000000000000000     
 PAO| ======================= Iteration:        13 =============================

     Lanczos converged:  T threshold:   0.100E-02
     Est. extremal eigenvalues:    0.278E+01   0.180E+00
     Est. condition number :    0.155E+02
     NS sqrt iter    1 1.00000000   0.708E+00       0.002       42.968
     NS sqrt iter    2 1.00000000   0.330E+00       0.002       67.887
     NS sqrt iter    3 1.00000000   0.759E-01       0.002       68.353
     NS sqrt iter    4 1.00000000   0.192E-02       0.002       67.520
     NS sqrt iter    5 1.00000000   0.648E-07       0.001       48.806
     Final NS sqrt iter    5 1.00000000   0.505E-09

     Est. extremal eigenvalues     -0.93624     1.70757  converged:  T
     TRS4 it   1 1.00000000   0.880E+00       0.001       16.128   0.100E-07
     TRS4 it   2 1.00000000   0.621E+00       0.001       32.256   0.100E-07
     TRS4 it   3 1.00000000   0.423E+00       0.001       32.256   0.100E-07
     TRS4 it   4 1.00000000   0.215E+00       0.001       32.256   0.100E-07
     TRS4 it   5 1.00000000   0.698E-01       0.001       32.256   0.100E-07
     TRS4 it   6 1.00000000   0.913E-02       0.001       32.256   0.100E-07
     TRS4 it   7 1.00000000   0.205E-03       0.001       32.256   0.100E-07
     TRS4 it   8 1.00000000   0.143E-06       0.001       32.256   0.100E-07
     TRS4 it   9 1.00000000   0.869E-13       0.001       32.256   0.100E-07
     Final TRS4 iteration    9 1.00000000   0.869E-13
     Chemical potential (mu):       0.01208
 
 PAO| energy:  -7.7918945940428710      penalty:   1.5119648053925810E-005
 PAO|LS| adapt:  T T F
 PAO|LS| adapt: scan_steps:    0.0000000000000000       0.29417977247288774        0.0000000000000000     
 PAO|LS| adapt: energies:   -7.7898248523290867       -7.7918945940428710        0.0000000000000000     
 PAO| ======================= Iteration:        14 =============================

     Lanczos converged:  T threshold:   0.100E-02
     Est. extremal eigenvalues:    0.274E+01   0.184E+00
     Est. condition number :    0.149E+02
     NS sqrt iter    1 1.00000000   0.700E+00       0.001       43.407
     NS sqrt iter    2 1.00000000   0.324E+00       0.002       67.069
     NS sqrt iter    3 1.00000000   0.717E-01       0.002       68.339
     NS sqrt iter    4 1.00000000   0.163E-02       0.002       68.126
     NS sqrt iter    5 1.00000000   0.405E-07       0.001       46.625
     Final NS sqrt iter    5 1.00000000   0.343E-09

     Est. extremal eigenvalues     -0.93622     1.70200  converged:  T
     TRS4 it   1 1.00000000   0.880E+00       0.001       16.128   0.100E-07
     TRS4 it   2 1.00000000   0.618E+00       0.001       32.256   0.100E-07
     TRS4 it   3 1.00000000   0.419E+00       0.001       32.256   0.100E-07
     TRS4 it   4 1.00000000   0.211E+00       0.001       32.256   0.100E-07
     TRS4 it   5 1.00000000   0.665E-01       0.001       32.256   0.100E-07
     TRS4 it   6 1.00000000   0.824E-02       0.001       32.256   0.100E-07
     TRS4 it   7 1.00000000   0.165E-03       0.001       32.256   0.100E-07
     TRS4 it   8 1.00000000   0.902E-07       0.001       32.256   0.100E-07
     TRS4 it   9 1.00000000   0.344E-13       0.001       32.256   0.100E-07
     Final TRS4 iteration    9 1.00000000   0.344E-13
     Chemical potential (mu):       0.01641
 
 PAO| energy:  -7.7912512708315562      penalty:   1.5907156564351018E-005
 PAO|LS| adapt:  T T T
 PAO|LS| adapt: scan_steps:    0.0000000000000000       0.29417977247288774       0.58835954494577547     
 PAO|LS| adapt: energies:   -7.7898248523290867       -7.7918945940428710       -7.7912512708315562     
 PAO|LS| adapt: suggested step_size:   0.37151361484163886     
 PAO|LS| adapt: predicted energy  -7.7919883381017288     
 PAO| ======================= Iteration:        15 =============================

     Lanczos converged:  T threshold:   0.100E-02
     Est. extremal eigenvalues:    0.277E+01   0.181E+00
     Est. condition number :    0.153E+02
     NS sqrt iter    1 1.00000000   0.706E+00       0.001       43.265
     NS sqrt iter    2 1.00000000   0.329E+00       0.002       67.700
     NS sqrt iter    3 1.00000000   0.748E-01       0.002       68.550
     NS sqrt iter    4 1.00000000   0.184E-02       0.002       68.683
     NS sqrt iter    5 1.00000000   0.573E-07       0.001       47.941
     Final NS sqrt iter    5 1.00000000   0.478E-09

     Est. extremal eigenvalues     -0.93629     1.70608  converged:  T
     TRS4 it   1 1.00000000   0.880E+00       0.001       16.128   0.100E-07
     TRS4 it   2 1.00000000   0.620E+00       0.001       32.256   0.100E-07
     TRS4 it   3 1.00000000   0.422E+00       0.001       32.256   0.100E-07
     TRS4 it   4 1.00000000   0.214E+00       0.001       32.256   0.100E-07
     TRS4 it   5 1.00000000   0.689E-01       0.001       32.256   0.100E-07
     TRS4 it   6 1.00000000   0.889E-02       0.001       32.256   0.100E-07
     TRS4 it   7 1.00000000   0.193E-03       0.001       32.256   0.100E-07
     TRS4 it   8 1.00000000   0.127E-06       0.001       32.256   0.100E-07
     TRS4 it   9 1.00000000   0.675E-13       0.001       32.256   0.100E-07
     Final TRS4 iteration    9 1.00000000   0.675E-13
     Chemical potential (mu):       0.01323
 
 PAO| energy:  -7.7919852460132999      penalty:   1.5276974457817691E-005
 PAO|CG| trace_G_new    2.6267472549874578E-003
 PAO|CG| trace_G_prev    1.1800630666906495E-002
 PAO|CG| trace_G_mix    6.1772241432994098E-005
 PAO|CG| trace_D    1.6600778576153712E-002
 PAO|CG| trace_D_Gnew   3.4154375609070728E-005
 PAO|CG| beta:   0.21735914680794474     
 PAO| norm of gradient:   5.1251802455986442E-002
 PAO| energy improvement:  -2.1603936842131688E-003
 PAO| step     15                   -7.791985246  0.320E-02  0.372E+00     0.077
 PAO|LS| adapt:  T F F
 PAO|LS| adapt: scan_steps:    0.0000000000000000        0.0000000000000000        0.0000000000000000     
 PAO|LS| adapt: energies:   -7.7919852460132999        0.0000000000000000        0.0000000000000000     
 PAO| ======================= Iteration:        16 =============================

     Lanczos converged:  T threshold:   0.100E-02
     Est. extremal eigenvalues:    0.276E+01   0.181E+00
     Est. condition number :    0.152E+02
     NS sqrt iter    1 1.00000000   0.704E+00       0.002       42.848
     NS sqrt iter    2 1.00000000   0.327E+00       0.002       67.749
     NS sqrt iter    3 1.00000000   0.740E-01       0.002       67.660
     NS sqrt iter    4 1.00000000   0.178E-02       0.002       68.278
     NS sqrt iter    5 1.00000000   0.517E-07       0.001       47.753
     Final NS sqrt iter    5 1.00000000   0.456E-09

     Est. extremal eigenvalues     -0.93631     1.70537  converged:  T
     TRS4 it   1 1.00000000   0.881E+00       0.001       16.128   0.100E-07
     TRS4 it   2 1.00000000   0.619E+00       0.001       32.256   0.100E-07
     TRS4 it   3 1.00000000   0.421E+00       0.001       32.256   0.100E-07
     TRS4 it   4 1.00000000   0.213E+00       0.001       32.256   0.100E-07
     TRS4 it   5 1.00000000   0.678E-01       0.001       32.256   0.100E-07
     TRS4 it   6 1.00000000   0.860E-02       0.001       32.256   0.100E-07
     TRS4 it   7 1.00000000   0.182E-03       0.001       32.256   0.100E-07
     TRS4 it   8 1.00000000   0.113E-06       0.001       32.256   0.100E-07
     TRS4 it   9 1.00000000   0.548E-13       0.001       32.256   0.100E-07
     Final TRS4 iteration    9 1.00000000   0.548E-13
     Chemical potential (mu):       0.01406
 
 PAO| energy:  -7.7921084910816498      penalty:   1.5057870217141099E-005
 PAO|LS| adapt:  T T F
 PAO|LS| adapt: scan_steps:    0.0000000000000000       0.37151361484163886        0.0000000000000000     
 PAO|LS| adapt: energies:   -7.7919852460132999       -7.7921084910816498        0.0000000000000000     
 PAO| ======================= Iteration:        17 =============================

     Lanczos converged:  T threshold:   0.100E-02
     Est. extremal eigenvalues:    0.275E+01   0.182E+00
     Est. condition number :    0.151E+02
     NS sqrt iter    1 1.00000000   0.702E+00       0.001       43.067
     NS sqrt iter    2 1.00000000   0.326E+00       0.002       68.133
     NS sqrt iter    3 1.00000000   0.734E-01       0.002       68.436
     NS sqrt iter    4 1.00000000   0.172E-02       0.002       68.328
     NS sqrt iter    5 1.00000000   0.468E-07       0.001       47.486
     Final NS sqrt iter    5 1.00000000   0.358E-09

     Est. extremal eigenvalues     -0.93622     1.70474  converged:  T
     TRS4 it   1 1.00000000   0.881E+00       0.001       16.128   0.100E-07
     TRS4 it   2 1.00000000   0.618E+00       0.001       32.256   0.100E-07
     TRS4 it   3 1.00000000   0.419E+00       0.001       32.256   0.100E-07
     TRS4 it   4 1.00000000   0.211E+00       0.001       32.256   0.100E-07
     TRS4 it   5 1.00000000   0.666E-01       0.001       32.256   0.100E-07
     TRS4 it   6 1.00000000   0.833E-02       0.001       32.256   0.100E-07
     TRS4 it   7 1.00000000   0.171E-03       0.001       32.256   0.100E-07
     TRS4 it   8 1.00000000   0.102E-06       0.001       32.256   0.100E-07
     TRS4 it   9 1.00000000   0.440E-13       0.001       32.256   0.100E-07
     Final TRS4 iteration    9 1.00000000   0.440E-13
     Chemical potential (mu):       0.01486
 
 PAO| energy:  -7.7905263609639945      penalty:   1.4966045872292920E-005
 PAO|LS| adapt:  T T T
 PAO|LS| adapt: scan_steps:    0.0000000000000000       0.37151361484163886       0.74302722968327772     
 PAO|LS| adapt: energies:   -7.7919852460132999       -7.7921084910816498       -7.7905263609639945     
 PAO|LS| adapt: suggested step_size:   0.21260557432550423     
 PAO|LS| adapt: predicted energy  -7.7922644938196797     
 PAO| ======================= Iteration:        18 =============================

     Lanczos converged:  T threshold:   0.100E-02
     Est. extremal eigenvalues:    0.276E+01   0.181E+00
     Est. condition number :    0.153E+02
     NS sqrt iter    1 1.00000000   0.705E+00       0.001       43.321
     NS sqrt iter    2 1.00000000   0.328E+00       0.002       67.309
     NS sqrt iter    3 1.00000000   0.743E-01       0.002       68.627
     NS sqrt iter    4 1.00000000   0.180E-02       0.002       68.154
     NS sqrt iter    5 1.00000000   0.540E-07       0.002       46.578
     Final NS sqrt iter    5 1.00000000   0.466E-09

     Est. extremal eigenvalues     -0.93632     1.70567  converged:  T
     TRS4 it   1 1.00000000   0.880E+00       0.001       16.128   0.100E-07
     TRS4 it   2 1.00000000   0.620E+00       0.001       32.256   0.100E-07
     TRS4 it   3 1.00000000   0.421E+00       0.001       32.256   0.100E-07
     TRS4 it   4 1.00000000   0.213E+00       0.001       32.256   0.100E-07
     TRS4 it   5 1.00000000   0.683E-01       0.001       32.256   0.100E-07
     TRS4 it   6 1.00000000   0.872E-02       0.001       32.256   0.100E-07
     TRS4 it   7 1.00000000   0.187E-03       0.001       32.256   0.100E-07
     TRS4 it   8 1.00000000   0.119E-06       0.001       32.256   0.100E-07
     TRS4 it   9 1.00000000   0.597E-13       0.001       32.256   0.100E-07
     Final TRS4 iteration    9 1.00000000   0.597E-13
     Chemical potential (mu):       0.01371
 
 PAO| energy:  -7.7922640305505677      penalty:   1.5136291890763161E-005
 PAO|CG| trace_G_new    7.2844769981725754E-004
 PAO|CG| trace_G_prev    2.6267472549874578E-003
 PAO|CG| trace_G_mix    1.5951412876964747E-006
 PAO|CG| trace_D    3.3962034853704266E-003
 PAO|CG| trace_D_Gnew  -1.7321134789500964E-006
 PAO|CG| beta:   0.27671202745124091     
 PAO| norm of gradient:   2.6989770280927874E-002
 PAO| energy improvement:  -2.7878453726781771E-004
 PAO| step     18                   -7.792264031  0.169E-02  0.213E+00     0.077
 PAO|LS| adapt:  T F F
 PAO|LS| adapt: scan_steps:    0.0000000000000000        0.0000000000000000        0.0000000000000000     
 PAO|LS| adapt: energies:   -7.7922640305505677        0.0000000000000000        0.0000000000000000     
 PAO| ======================= Iteration:        19 =============================

     Lanczos converged:  T threshold:   0.100E-02
     Est. extremal eigenvalues:    0.276E+01   0.181E+00
     Est. condition number :    0.153E+02
     NS sqrt iter    1 1.00000000   0.705E+00       0.001       43.422
     NS sqrt iter    2 1.00000000   0.328E+00       0.002       67.258
     NS sqrt iter    3 1.00000000   0.746E-01       0.002       68.283
     NS sqrt iter    4 1.00000000   0.181E-02       0.002       68.583
     NS sqrt iter    5 1.00000000   0.544E-07       0.001       48.064
     Final NS sqrt iter    5 1.00000000   0.463E-09

     Est. extremal eigenvalues     -0.93632     1.70593  converged:  T
     TRS4 it   1 1.00000000   0.881E+00       0.001       16.128   0.100E-07
     TRS4 it   2 1.00000000   0.620E+00       0.001       32.256   0.100E-07
     TRS4 it   3 1.00000000   0.421E+00       0.001       32.256   0.100E-07
     TRS4 it   4 1.00000000   0.213E+00       0.001       32.256   0.100E-07
     TRS4 it   5 1.00000000   0.682E-01       0.001       32.256   0.100E-07
     TRS4 it   6 1.00000000   0.871E-02       0.001       32.256   0.100E-07
     TRS4 it   7 1.00000000   0.187E-03       0.001       32.256   0.100E-07
     TRS4 it   8 1.00000000   0.121E-06       0.001       32.256   0.100E-07
     TRS4 it   9 1.00000000   0.626E-13       0.001       32.256   0.100E-07
     Final TRS4 iteration    9 1.00000000   0.626E-13
     Chemical potential (mu):       0.01344
 
 PAO| energy:  -7.7923822354247880      penalty:   1.4846639839099348E-005
 PAO|LS| adapt:  T T F
 PAO|LS| adapt: scan_steps:    0.0000000000000000       0.21260557432550423        0.0000000000000000     
 PAO|LS| adapt: energies:   -7.7922640305505677       -7.7923822354247880        0.0000000000000000     
 PAO| ======================= Iteration:        20 =============================

     Lanczos converged:  T threshold:   0.100E-02
     Est. extremal eigenvalues:    0.276E+01   0.181E+00
     Est. condition number :    0.153E+02
     NS sqrt iter    1 1.00000000   0.705E+00       0.002       42.632
     NS sqrt iter    2 1.00000000   0.328E+00       0.002       67.661
     NS sqrt iter    3 1.00000000   0.748E-01       0.002       67.627
     NS sqrt iter    4 1.00000000   0.182E-02       0.002       68.120
     NS sqrt iter    5 1.00000000   0.549E-07       0.001       47.837
     Final NS sqrt iter    5 1.00000000   0.471E-09

     Est. extremal eigenvalues     -0.93632     1.70620  converged:  T
     TRS4 it   1 1.00000000   0.881E+00       0.001       16.128   0.100E-07
     TRS4 it   2 1.00000000   0.620E+00       0.001       32.256   0.100E-07
     TRS4 it   3 1.00000000   0.421E+00       0.001       32.256   0.100E-07
     TRS4 it   4 1.00000000   0.213E+00       0.001       32.256   0.100E-07
     TRS4 it   5 1.00000000   0.681E-01       0.001       32.256   0.100E-07
     TRS4 it   6 1.00000000   0.871E-02       0.001       32.256   0.100E-07
     TRS4 it   7 1.00000000   0.188E-03       0.001       32.256   0.100E-07
     TRS4 it   8 1.00000000   0.122E-06       0.001       32.256   0.100E-07
     TRS4 it   9 1.00000000   0.641E-13       0.001       32.256   0.100E-07
     Final TRS4 iteration    9 1.00000000   0.641E-13
     Chemical potential (mu):       0.01316
 
 PAO| energy:  -7.7924265137558342      penalty:   1.4569443416270719E-005
 PAO|LS| adapt:  T T F
 PAO|LS| adapt: scan_steps:    0.0000000000000000       0.42521114865100845        0.0000000000000000     
 PAO|LS| adapt: energies:   -7.7922640305505677       -7.7924265137558342        0.0000000000000000     
 PAO| ======================= Iteration:        21 =============================

     Lanczos converged:  T threshold:   0.100E-02
     Est. extremal eigenvalues:    0.277E+01   0.181E+00
     Est. condition number :    0.153E+02
     NS sqrt iter    1 1.00000000   0.704E+00       0.002       42.606
     NS sqrt iter    2 1.00000000   0.329E+00       0.002       67.581
     NS sqrt iter    3 1.00000000   0.752E-01       0.002       67.159
     NS sqrt iter    4 1.00000000   0.184E-02       0.002       67.921
     NS sqrt iter    5 1.00000000   0.560E-07       0.001       48.211
     Final NS sqrt iter    5 1.00000000   0.491E-09

     Est. extremal eigenvalues     -0.93631     1.70675  converged:  T
     TRS4 it   1 1.00000000   0.881E+00       0.001       16.128   0.100E-07
     TRS4 it   2 1.00000000   0.619E+00       0.001       32.256   0.100E-07
     TRS4 it   3 1.00000000   0.421E+00       0.001       32.256   0.100E-07
     TRS4 it   4 1.00000000   0.213E+00       0.001       32.256   0.100E-07
     TRS4 it   5 1.00000000   0.679E-01       0.001       32.256   0.100E-07
     TRS4 it   6 1.00000000   0.869E-02       0.001       32.256   0.100E-07
     TRS4 it   7 1.00000000   0.189E-03       0.001       32.256   0.100E-07
     TRS4 it   8 1.00000000   0.126E-06       0.001       32.256   0.100E-07
     TRS4 it   9 1.00000000   0.693E-13       0.001       32.256   0.100E-07
     Final TRS4 iteration    9 1.00000000   0.693E-13
     Chemical potential (mu):       0.01261
 
 PAO| energy:  -7.7922908940350908      penalty:   1.4051841255697089E-005
 PAO|LS| Need extra step
 PAO|LS| adapt:  T T T
 PAO|LS| adapt: scan_steps:    0.0000000000000000       0.42521114865100845       0.85042229730201691     
 PAO|LS| adapt: energies:   -7.7922640305505677       -7.7924265137558342       -7.7922908940350908     
 PAO|LS| adapt: suggested step_size:   0.44437005672299534     
 PAO|LS| adapt: predicted energy  -7.7924268163555146     
 PAO| ======================= Iteration:        22 =============================

     Lanczos converged:  T threshold:   0.100E-02
     Est. extremal eigenvalues:    0.276E+01   0.181E+00
     Est. condition number :    0.153E+02
     NS sqrt iter    1 1.00000000   0.705E+00       0.001       43.073
     NS sqrt iter    2 1.00000000   0.328E+00       0.002       67.727
     NS sqrt iter    3 1.00000000   0.748E-01       0.002       67.653
     NS sqrt iter    4 1.00000000   0.182E-02       0.002       66.195
     NS sqrt iter    5 1.00000000   0.550E-07       0.001       48.105
     Final NS sqrt iter    5 1.00000000   0.472E-09

     Est. extremal eigenvalues     -0.93632     1.70623  converged:  T
     TRS4 it   1 1.00000000   0.881E+00       0.001       16.128   0.100E-07
     TRS4 it   2 1.00000000   0.620E+00       0.001       32.256   0.100E-07
     TRS4 it   3 1.00000000   0.421E+00       0.001       32.256   0.100E-07
     TRS4 it   4 1.00000000   0.213E+00       0.001       32.256   0.100E-07
     TRS4 it   5 1.00000000   0.681E-01       0.001       32.256   0.100E-07
     TRS4 it   6 1.00000000   0.871E-02       0.001       32.256   0.100E-07
     TRS4 it   7 1.00000000   0.188E-03       0.001       32.256   0.100E-07
     TRS4 it   8 1.00000000   0.123E-06       0.001       32.256   0.100E-07
     TRS4 it   9 1.00000000   0.648E-13       0.001       32.256   0.100E-07
     Final TRS4 iteration    9 1.00000000   0.648E-13
     Chemical potential (mu):       0.01313
 
 PAO| energy:  -7.7924268522311522      penalty:   1.4545069666445278E-005
 PAO|CG| trace_G_new    2.2211075452394595E-004
 PAO|CG| trace_G_prev    7.2844769981725754E-004
 PAO|CG| trace_G_mix    3.0261488104720696E-006
 PAO|CG| trace_D    9.8945205254324280E-004
 PAO|CG| trace_D_Gnew  -1.8655190211895427E-006
 PAO|CG| beta:   0.30075543620830247     
 PAO| norm of gradient:   1.4903380640778990E-002
 PAO| energy improvement:  -1.6282168058445734E-004
 PAO| step     22                   -7.792426852  0.931E-03  0.444E+00     0.101
 PAO|LS| adapt:  T F F
 PAO|LS| adapt: scan_steps:    0.0000000000000000        0.0000000000000000        0.0000000000000000     
 PAO|LS| adapt: energies:   -7.7924268522311522        0.0000000000000000        0.0000000000000000     
 PAO| ======================= Iteration:        23 =============================

     Lanczos converged:  T threshold:   0.100E-02
     Est. extremal eigenvalues:    0.277E+01   0.181E+00
     Est. condition number :    0.153E+02
     NS sqrt iter    1 1.00000000   0.705E+00       0.001       43.336
     NS sqrt iter    2 1.00000000   0.328E+00       0.002       67.241
     NS sqrt iter    3 1.00000000   0.748E-01       0.002       67.669
     NS sqrt iter    4 1.00000000   0.182E-02       0.002       67.127
     NS sqrt iter    5 1.00000000   0.550E-07       0.001       48.313
     Final NS sqrt iter    5 1.00000000   0.479E-09

     Est. extremal eigenvalues     -0.93632     1.70621  converged:  T
     TRS4 it   1 1.00000000   0.881E+00       0.001       16.128   0.100E-07
     TRS4 it   2 1.00000000   0.620E+00       0.001       32.256   0.100E-07
     TRS4 it   3 1.00000000   0.421E+00       0.001       32.256   0.100E-07
     TRS4 it   4 1.00000000   0.213E+00       0.001       32.256   0.100E-07
     TRS4 it   5 1.00000000   0.682E-01       0.001       32.256   0.100E-07
     TRS4 it   6 1.00000000   0.875E-02       0.001       32.256   0.100E-07
     TRS4 it   7 1.00000000   0.190E-03       0.001       32.256   0.100E-07
     TRS4 it   8 1.00000000   0.126E-06       0.001       32.256   0.100E-07
     TRS4 it   9 1.00000000   0.681E-13       0.001       32.256   0.100E-07
     Final TRS4 iteration    9 1.00000000   0.681E-13
     Chemical potential (mu):       0.01282
 
 PAO| energy:  -7.7924760327721785      penalty:   1.3862446250601152E-005
 PAO|LS| adapt:  T T F
 PAO|LS| adapt: scan_steps:    0.0000000000000000       0.44437005672299534        0.0000000000000000     
 PAO|LS| adapt: energies:   -7.7924268522311522       -7.7924760327721785        0.0000000000000000     
 PAO| ======================= Iteration:        24 =============================

     Lanczos converged:  T threshold:   0.100E-02
     Est. extremal eigenvalues:    0.277E+01   0.181E+00
     Est. condition number :    0.153E+02
     NS sqrt iter    1 1.00000000   0.705E+00       0.001       43.330
     NS sqrt iter    2 1.00000000   0.329E+00       0.002       67.665
     NS sqrt iter    3 1.00000000   0.749E-01       0.002       67.880
     NS sqrt iter    4 1.00000000   0.182E-02       0.002       68.692
     NS sqrt iter    5 1.00000000   0.551E-07       0.001       47.933
     Final NS sqrt iter    5 1.00000000   0.485E-09

     Est. extremal eigenvalues     -0.93631     1.70618  converged:  T
     TRS4 it   1 1.00000000   0.880E+00       0.001       16.128   0.100E-07
     TRS4 it   2 1.00000000   0.620E+00       0.001       32.256   0.100E-07
     TRS4 it   3 1.00000000   0.421E+00       0.001       32.256   0.100E-07
     TRS4 it   4 1.00000000   0.213E+00       0.001       32.256   0.100E-07
     TRS4 it   5 1.00000000   0.683E-01       0.002       15.183   0.100E-07
     TRS4 it   6 1.00000000   0.879E-02       0.001       32.256   0.100E-07
     TRS4 it   7 1.00000000   0.192E-03       0.001       32.256   0.100E-07
     TRS4 it   8 1.00000000   0.129E-06       0.001       32.256   0.100E-07
     TRS4 it   9 1.00000000   0.721E-13       0.001       32.256   0.100E-07
     Final TRS4 iteration    9 1.00000000   0.721E-13
     Chemical potential (mu):       0.01251
 
 PAO| energy:  -7.7924250435220941      penalty:   1.3208124648274229E-005
 PAO|LS| adapt:  T T T
 PAO|LS| adapt: scan_steps:    0.0000000000000000       0.44437005672299534       0.88874011344599069     
 PAO|LS| adapt: energies:   -7.7924268522311522       -7.7924760327721785       -7.7924250435220941     
 PAO|LS| adapt: suggested step_size:   0.44035818778614705     
 PAO|LS| adapt: predicted energy  -7.7924760368545334     
 PAO| ======================= Iteration:        25 =============================

     Lanczos converged:  T threshold:   0.100E-02
     Est. extremal eigenvalues:    0.277E+01   0.181E+00
     Est. condition number :    0.153E+02
     NS sqrt iter    1 1.00000000   0.705E+00       0.002       42.954
     NS sqrt iter    2 1.00000000   0.328E+00       0.002       66.656
     NS sqrt iter    3 1.00000000   0.748E-01       0.002       65.241
     NS sqrt iter    4 1.00000000   0.182E-02       0.002       67.566
     NS sqrt iter    5 1.00000000   0.550E-07       0.001       48.392
     Final NS sqrt iter    5 1.00000000   0.479E-09

     Est. extremal eigenvalues     -0.93632     1.70621  converged:  T
     TRS4 it   1 1.00000000   0.881E+00       0.001       16.128   0.100E-07
     TRS4 it   2 1.00000000   0.620E+00       0.001       32.256   0.100E-07
     TRS4 it   3 1.00000000   0.421E+00       0.001       32.256   0.100E-07
     TRS4 it   4 1.00000000   0.213E+00       0.001       32.256   0.100E-07
     TRS4 it   5 1.00000000   0.682E-01       0.001       32.256   0.100E-07
     TRS4 it   6 1.00000000   0.875E-02       0.001       32.256   0.100E-07
     TRS4 it   7 1.00000000   0.190E-03       0.001       32.256   0.100E-07
     TRS4 it   8 1.00000000   0.126E-06       0.001       32.256   0.100E-07
     TRS4 it   9 1.00000000   0.682E-13       0.001       32.256   0.100E-07
     Final TRS4 iteration    9 1.00000000   0.682E-13
     Chemical potential (mu):       0.01282
 
 PAO| energy:  -7.7924760354246230      penalty:   1.3868481604568171E-005
 PAO|CG| trace_G_new    7.9036148069309628E-005
 PAO|CG| trace_G_prev    2.2211075452394595E-004
 PAO|CG| trace_G_mix    6.9763229232096676E-007
 PAO|CG| trace_D    3.1273261463522702E-004
 PAO|CG| trace_D_Gnew  -3.5642247861729908E-007
 PAO|CG| beta:   0.35270023707268489     
 PAO| norm of gradient:   8.8902276725238948E-003
 PAO| energy improvement:  -4.9183193470803133E-005
 PAO| step     25                   -7.792476035  0.556E-03  0.440E+00     0.080
 PAO|LS| adapt:  T F F
 PAO|LS| adapt: scan_steps:    0.0000000000000000        0.0000000000000000        0.0000000000000000     
 PAO|LS| adapt: energies:   -7.7924760354246230        0.0000000000000000        0.0000000000000000     
 PAO| ======================= Iteration:        26 =============================

     Lanczos converged:  T threshold:   0.100E-02
     Est. extremal eigenvalues:    0.276E+01   0.181E+00
     Est. condition number :    0.153E+02
     NS sqrt iter    1 1.00000000   0.704E+00       0.002       41.529
     NS sqrt iter    2 1.00000000   0.328E+00       0.002       64.769
     NS sqrt iter    3 1.00000000   0.747E-01       0.002       67.283
     NS sqrt iter    4 1.00000000   0.182E-02       0.002       66.510
     NS sqrt iter    5 1.00000000   0.547E-07       0.001       47.946
     Final NS sqrt iter    5 1.00000000   0.476E-09

     Est. extremal eigenvalues     -0.93632     1.70603  converged:  T
     TRS4 it   1 1.00000000   0.881E+00       0.001       16.128   0.100E-07
     TRS4 it   2 1.00000000   0.620E+00       0.001       32.256   0.100E-07
     TRS4 it   3 1.00000000   0.421E+00       0.001       32.256   0.100E-07
     TRS4 it   4 1.00000000   0.213E+00       0.001       32.256   0.100E-07
     TRS4 it   5 1.00000000   0.681E-01       0.001       32.256   0.100E-07
     TRS4 it   6 1.00000000   0.873E-02       0.001       32.256   0.100E-07
     TRS4 it   7 1.00000000   0.189E-03       0.001       32.256   0.100E-07
     TRS4 it   8 1.00000000   0.125E-06       0.001       32.256   0.100E-07
     TRS4 it   9 1.00000000   0.668E-13       0.001       32.256   0.100E-07
     Final TRS4 iteration    9 1.00000000   0.668E-13
     Chemical potential (mu):       0.01294
 
 PAO| energy:  -7.7924799499088566      penalty:   1.3148579101442613E-005
 PAO|LS| adapt:  T T F
 PAO|LS| adapt: scan_steps:    0.0000000000000000       0.44035818778614705        0.0000000000000000     
 PAO|LS| adapt: energies:   -7.7924760354246230       -7.7924799499088566        0.0000000000000000     
 PAO| ======================= Iteration:        27 =============================

     Lanczos converged:  T threshold:   0.100E-02
     Est. extremal eigenvalues:    0.276E+01   0.181E+00
     Est. condition number :    0.153E+02
     NS sqrt iter    1 1.00000000   0.704E+00       0.002       42.714
     NS sqrt iter    2 1.00000000   0.328E+00       0.002       67.229
     NS sqrt iter    3 1.00000000   0.746E-01       0.002       68.023
     NS sqrt iter    4 1.00000000   0.181E-02       0.002       68.389
     NS sqrt iter    5 1.00000000   0.544E-07       0.002       46.645
     Final NS sqrt iter    5 1.00000000   0.486E-09

     Est. extremal eigenvalues     -0.93632     1.70586  converged:  T
     TRS4 it   1 1.00000000   0.881E+00       0.001       16.128   0.100E-07
     TRS4 it   2 1.00000000   0.619E+00       0.001       32.256   0.100E-07
     TRS4 it   3 1.00000000   0.421E+00       0.001       32.256   0.100E-07
     TRS4 it   4 1.00000000   0.213E+00       0.001       32.256   0.100E-07
     TRS4 it   5 1.00000000   0.680E-01       0.001       32.256   0.100E-07
     TRS4 it   6 1.00000000   0.872E-02       0.001       32.256   0.100E-07
     TRS4 it   7 1.00000000   0.189E-03       0.001       32.256   0.100E-07
     TRS4 it   8 1.00000000   0.123E-06       0.001       32.256   0.100E-07
     TRS4 it   9 1.00000000   0.658E-13       0.001       32.256   0.100E-07
     Final TRS4 iteration    9 1.00000000   0.658E-13
     Chemical potential (mu):       0.01304
 
 PAO| energy:  -7.7924218733312998      penalty:   1.2452058479387281E-005
 PAO|LS| adapt:  T T T
 PAO|LS| adapt: scan_steps:    0.0000000000000000       0.44035818778614705       0.88071637557229410     
 PAO|LS| adapt: energies:   -7.7924760354246230       -7.7924799499088566       -7.7924218733312998     
 PAO|LS| adapt: suggested step_size:   0.24798592819237494     
 PAO|LS| adapt: predicted energy  -7.7924858651413684     
 PAO| ======================= Iteration:        28 =============================

     Lanczos converged:  T threshold:   0.100E-02
     Est. extremal eigenvalues:    0.277E+01   0.181E+00
     Est. condition number :    0.153E+02
     NS sqrt iter    1 1.00000000   0.704E+00       0.002       42.573
     NS sqrt iter    2 1.00000000   0.328E+00       0.002       64.799
     NS sqrt iter    3 1.00000000   0.748E-01       0.002       67.950
     NS sqrt iter    4 1.00000000   0.182E-02       0.002       68.174
     NS sqrt iter    5 1.00000000   0.549E-07       0.001       47.387
     Final NS sqrt iter    5 1.00000000   0.477E-09

     Est. extremal eigenvalues     -0.93632     1.70611  converged:  T
     TRS4 it   1 1.00000000   0.881E+00       0.001       16.128   0.100E-07
     TRS4 it   2 1.00000000   0.620E+00       0.001       32.256   0.100E-07
     TRS4 it   3 1.00000000   0.421E+00       0.001       32.256   0.100E-07
     TRS4 it   4 1.00000000   0.213E+00       0.001       32.256   0.100E-07
     TRS4 it   5 1.00000000   0.681E-01       0.001       32.256   0.100E-07
     TRS4 it   6 1.00000000   0.874E-02       0.001       32.256   0.100E-07
     TRS4 it   7 1.00000000   0.190E-03       0.001       32.256   0.100E-07
     TRS4 it   8 1.00000000   0.125E-06       0.001       32.256   0.100E-07
     TRS4 it   9 1.00000000   0.668E-13       0.001       32.256   0.100E-07
     Final TRS4 iteration    9 1.00000000   0.668E-13
     Chemical potential (mu):       0.01289
 
 PAO| energy:  -7.7924858563710480      penalty:   1.3460176793961383E-005
 PAO|CG| trace_G_new    3.0898171001808093E-005
 PAO|CG| trace_G_prev    7.9036148069309628E-005
 PAO|CG| trace_G_mix    4.7336871905813623E-008
 PAO|CG| trace_D    1.1819071070858688E-004
 PAO|CG| trace_D_Gnew  -2.4333944550684303E-008
 PAO|CG| beta:   0.39033828043907298     
 PAO| norm of gradient:   5.5586123269938600E-003
 PAO| energy improvement:  -9.8209464249876532E-006
 PAO| step     28                   -7.792485856  0.347E-03  0.248E+00     0.078
 PAO|LS| adapt:  T F F
 PAO|LS| adapt: scan_steps:    0.0000000000000000        0.0000000000000000        0.0000000000000000     
 PAO|LS| adapt: energies:   -7.7924858563710480        0.0000000000000000        0.0000000000000000     
 PAO| ======================= Iteration:        29 =============================

     Lanczos converged:  T threshold:   0.100E-02
     Est. extremal eigenvalues:    0.276E+01   0.181E+00
     Est. condition number :    0.153E+02
     NS sqrt iter    1 1.00000000   0.704E+00       0.002       42.871
     NS sqrt iter    2 1.00000000   0.328E+00       0.002       67.772
     NS sqrt iter    3 1.00000000   0.747E-01       0.002       67.963
     NS sqrt iter    4 1.00000000   0.182E-02       0.002       68.474
     NS sqrt iter    5 1.00000000   0.548E-07       0.001       48.293
     Final NS sqrt iter    5 1.00000000   0.476E-09

     Est. extremal eigenvalues     -0.93632     1.70610  converged:  T
     TRS4 it   1 1.00000000   0.881E+00       0.001       16.128   0.100E-07
     TRS4 it   2 1.00000000   0.620E+00       0.001       32.256   0.100E-07
     TRS4 it   3 1.00000000   0.421E+00       0.001       32.256   0.100E-07
     TRS4 it   4 1.00000000   0.213E+00       0.001       32.256   0.100E-07
     TRS4 it   5 1.00000000   0.681E-01       0.001       32.256   0.100E-07
     TRS4 it   6 1.00000000   0.872E-02       0.001       32.256   0.100E-07
     TRS4 it   7 1.00000000   0.189E-03       0.001       32.256   0.100E-07
     TRS4 it   8 1.00000000   0.124E-06       0.001       32.256   0.100E-07
     TRS4 it   9 1.00000000   0.659E-13       0.001       32.256   0.100E-07
     Final TRS4 iteration    9 1.00000000   0.659E-13
     Chemical potential (mu):       0.01301
 
 PAO| energy:  -7.7924926148507243      penalty:   1.3033973984262968E-005
 PAO|LS| adapt:  T T F
 PAO|LS| adapt: scan_steps:    0.0000000000000000       0.24798592819237494        0.0000000000000000     
 PAO|LS| adapt: energies:   -7.7924858563710480       -7.7924926148507243        0.0000000000000000     
 PAO| ======================= Iteration:        30 =============================

     Lanczos converged:  T threshold:   0.100E-02
     Est. extremal eigenvalues:    0.276E+01   0.181E+00
     Est. condition number :    0.153E+02
     NS sqrt iter    1 1.00000000   0.704E+00       0.002       42.576
     NS sqrt iter    2 1.00000000   0.328E+00       0.002       68.040
     NS sqrt iter    3 1.00000000   0.747E-01       0.002       68.136
     NS sqrt iter    4 1.00000000   0.181E-02       0.002       68.622
     NS sqrt iter    5 1.00000000   0.547E-07       0.001       48.289
     Final NS sqrt iter    5 1.00000000   0.488E-09

     Est. extremal eigenvalues     -0.93632     1.70608  converged:  T
     TRS4 it   1 1.00000000   0.881E+00       0.001       16.128   0.100E-07
     TRS4 it   2 1.00000000   0.619E+00       0.001       32.256   0.100E-07
     TRS4 it   3 1.00000000   0.421E+00       0.001       32.256   0.100E-07
     TRS4 it   4 1.00000000   0.213E+00       0.001       32.256   0.100E-07
     TRS4 it   5 1.00000000   0.680E-01       0.001       32.256   0.100E-07
     TRS4 it   6 1.00000000   0.870E-02       0.001       32.256   0.100E-07
     TRS4 it   7 1.00000000   0.188E-03       0.001       32.256   0.100E-07
     TRS4 it   8 1.00000000   0.122E-06       0.001       32.256   0.100E-07
     TRS4 it   9 1.00000000   0.642E-13       0.001       32.256   0.100E-07
     Final TRS4 iteration    9 1.00000000   0.642E-13
     Chemical potential (mu):       0.01313
 
 PAO| energy:  -7.7924975637356484      penalty:   1.2615401806973075E-005
 PAO|LS| adapt:  T T F
 PAO|LS| adapt: scan_steps:    0.0000000000000000       0.49597185638474989        0.0000000000000000     
 PAO|LS| adapt: energies:   -7.7924858563710480       -7.7924975637356484        0.0000000000000000     
 PAO| ======================= Iteration:        31 =============================

     Lanczos converged:  T threshold:   0.100E-02
     Est. extremal eigenvalues:    0.276E+01   0.181E+00
     Est. condition number :    0.153E+02
     NS sqrt iter    1 1.00000000   0.704E+00       0.002       41.525
     NS sqrt iter    2 1.00000000   0.328E+00       0.002       67.819
     NS sqrt iter    3 1.00000000   0.745E-01       0.002       68.224
     NS sqrt iter    4 1.00000000   0.181E-02       0.002       67.597
     NS sqrt iter    5 1.00000000   0.546E-07       0.001       48.056
     Final NS sqrt iter    5 1.00000000   0.487E-09

     Est. extremal eigenvalues     -0.93632     1.70605  converged:  T
     TRS4 it   1 1.00000000   0.881E+00       0.001       16.128   0.100E-07
     TRS4 it   2 1.00000000   0.619E+00       0.001       32.256   0.100E-07
     TRS4 it   3 1.00000000   0.421E+00       0.001       32.256   0.100E-07
     TRS4 it   4 1.00000000   0.213E+00       0.001       32.256   0.100E-07
     TRS4 it   5 1.00000000   0.678E-01       0.001       32.256   0.100E-07
     TRS4 it   6 1.00000000   0.866E-02       0.001       32.256   0.100E-07
     TRS4 it   7 1.00000000   0.186E-03       0.001       32.256   0.100E-07
     TRS4 it   8 1.00000000   0.120E-06       0.001       32.256   0.100E-07
     TRS4 it   9 1.00000000   0.620E-13       0.001       32.256   0.100E-07
     Final TRS4 iteration    9 1.00000000   0.620E-13
     Chemical potential (mu):       0.01338
 
 PAO| energy:  -7.7925020193067649      penalty:   1.1800999342478953E-005
 PAO|LS| Need extra step
 PAO|LS| adapt:  T T F
 PAO|LS| adapt: scan_steps:    0.0000000000000000       0.99194371276949977        0.0000000000000000     
 PAO|LS| adapt: energies:   -7.7924858563710480       -7.7925020193067649        0.0000000000000000     
 PAO| ======================= Iteration:        32 =============================

     Lanczos converged:  T threshold:   0.100E-02
     Est. extremal eigenvalues:    0.276E+01   0.181E+00
     Est. condition number :    0.153E+02
     NS sqrt iter    1 1.00000000   0.703E+00       0.002       32.563
     NS sqrt iter    2 1.00000000   0.327E+00       0.002       56.759
     NS sqrt iter    3 1.00000000   0.743E-01       0.002       53.593
     NS sqrt iter    4 1.00000000   0.180E-02       0.002       55.705
     NS sqrt iter    5 1.00000000   0.545E-07       0.002       44.337
     Final NS sqrt iter    5 1.00000000   0.468E-09

     Est. extremal eigenvalues     -0.93633     1.70598  converged:  T
     TRS4 it   1 1.00000000   0.881E+00       0.001       16.128   0.100E-07
     TRS4 it   2 1.00000000   0.619E+00       0.001       32.256   0.100E-07
     TRS4 it   3 1.00000000   0.420E+00       0.001       32.256   0.100E-07
     TRS4 it   4 1.00000000   0.212E+00       0.001       32.256   0.100E-07
     TRS4 it   5 1.00000000   0.675E-01       0.001       32.256   0.100E-07
     TRS4 it   6 1.00000000   0.858E-02       0.001       32.256   0.100E-07
     TRS4 it   7 1.00000000   0.182E-03       0.001       32.256   0.100E-07
     TRS4 it   8 1.00000000   0.114E-06       0.001       32.256   0.100E-07
     TRS4 it   9 1.00000000   0.557E-13       0.001       32.256   0.100E-07
     Final TRS4 iteration    9 1.00000000   0.557E-13
     Chemical potential (mu):       0.01388
 
 PAO| energy:  -7.7924891823630160      penalty:   1.0262121375123847E-005
 PAO|LS| Need extra step
 PAO|LS| adapt:  T T T
 PAO|LS| adapt: scan_steps:    0.0000000000000000       0.99194371276949977        1.9838874255389995     
 PAO|LS| adapt: energies:   -7.7924858563710480       -7.7925020193067649       -7.7924891823630160     
 PAO|LS| adapt: suggested step_size:    1.0488266530129347     
 PAO|LS| adapt: predicted energy  -7.7925020669889573     
 PAO| ======================= Iteration:        33 =============================

     Lanczos converged:  T threshold:   0.100E-02
     Est. extremal eigenvalues:    0.276E+01   0.181E+00
     Est. condition number :    0.153E+02
     NS sqrt iter    1 1.00000000   0.703E+00       0.002       39.524
     NS sqrt iter    2 1.00000000   0.328E+00       0.002       45.604
     NS sqrt iter    3 1.00000000   0.745E-01       0.002       71.365
     NS sqrt iter    4 1.00000000   0.181E-02       0.002       72.062
     NS sqrt iter    5 1.00000000   0.546E-07       0.001       49.735
     Final NS sqrt iter    5 1.00000000   0.487E-09

     Est. extremal eigenvalues     -0.93633     1.70605  converged:  T
     TRS4 it   1 1.00000000   0.881E+00       0.001       16.128   0.100E-07
     TRS4 it   2 1.00000000   0.619E+00       0.001       32.256   0.100E-07
     TRS4 it   3 1.00000000   0.421E+00       0.001       32.256   0.100E-07
     TRS4 it   4 1.00000000   0.213E+00       0.001       32.256   0.100E-07
     TRS4 it   5 1.00000000   0.678E-01       0.001       32.256   0.100E-07
     TRS4 it   6 1.00000000   0.866E-02       0.001       32.256   0.100E-07
[...]
 PAO| ======================= Iteration:       411 =============================

     Lanczos converged:  T threshold:   0.100E-02
     Est. extremal eigenvalues:    0.249E+01   0.191E+00
     Est. condition number :    0.130E+02
     NS sqrt iter    1 1.00000000   0.631E+00       0.001       47.636
     NS sqrt iter    2 1.00000000   0.274E+00       0.001       90.947
     NS sqrt iter    3 1.00000000   0.483E-01       0.001       74.031
     NS sqrt iter    4 1.00000000   0.743E-03       0.001       91.838
     NS sqrt iter    5 1.00000000   0.539E-08       0.001       38.144
     Final NS sqrt iter    5 1.00000000   0.323E-09

     Est. extremal eigenvalues     -0.93600     1.62741  converged:  T
     TRS4 it   1 1.00000000   0.881E+00       0.000       16.128   0.100E-07
     TRS4 it   2 1.00000000   0.632E+00       0.001       32.256   0.100E-07
     TRS4 it   3 1.00000000   0.453E+00       0.001       32.256   0.100E-07
     TRS4 it   4 1.00000000   0.275E+00       0.001       32.256   0.100E-07
     TRS4 it   5 1.00000000   0.135E+00       0.001       32.256   0.100E-07
     TRS4 it   6 1.00000000   0.411E-01       0.001       32.256   0.100E-07
     TRS4 it   7 1.00000000   0.526E-02       0.001       32.256   0.100E-07
     TRS4 it   8 1.00000000   0.116E-03       0.001       32.256   0.100E-07
     TRS4 it   9 1.00000000   0.607E-07       0.001       32.256   0.100E-07
     Final TRS4 iteration    9 1.00000000   0.607E-07
     Chemical potential (mu):      -0.07222
 
 PAO| energy:  -7.7915422527195712      penalty:   2.6969990773860464E-008
 PAO|LS| Need extra step
 PAO|LS| adapt:  T T T
 PAO|LS| adapt: scan_steps:    0.0000000000000000       0.20000000000000001       0.40000000000000002     
 PAO|LS| adapt: energies:   -7.7915422485157135       -7.7915422540180908       -7.7915422527195712     
 PAO|LS| adapt: suggested step_size:   0.26181328537105747     
 PAO|LS| adapt: predicted energy  -7.7915422543429083     
 PAO| ======================= Iteration:       412 =============================

     Lanczos converged:  T threshold:   0.100E-02
     Est. extremal eigenvalues:    0.249E+01   0.191E+00
     Est. condition number :    0.130E+02
     NS sqrt iter    1 1.00000000   0.631E+00       0.001       52.391
     NS sqrt iter    2 1.00000000   0.274E+00       0.001       79.301
     NS sqrt iter    3 1.00000000   0.483E-01       0.002       72.399
     NS sqrt iter    4 1.00000000   0.743E-03       0.001       79.120
     NS sqrt iter    5 1.00000000   0.539E-08       0.001       38.024
     Final NS sqrt iter    5 1.00000000   0.323E-09

     Est. extremal eigenvalues     -0.93600     1.62741  converged:  T
     TRS4 it   1 1.00000000   0.881E+00       0.000       16.128   0.100E-07
     TRS4 it   2 1.00000000   0.632E+00       0.001       32.256   0.100E-07
     TRS4 it   3 1.00000000   0.453E+00       0.001       32.256   0.100E-07
     TRS4 it   4 1.00000000   0.275E+00       0.001       32.256   0.100E-07
     TRS4 it   5 1.00000000   0.135E+00       0.001       32.256   0.100E-07
     TRS4 it   6 1.00000000   0.411E-01       0.001       32.256   0.100E-07
     TRS4 it   7 1.00000000   0.526E-02       0.001       32.256   0.100E-07
     TRS4 it   8 1.00000000   0.116E-03       0.001       32.256   0.100E-07
     TRS4 it   9 1.00000000   0.607E-07       0.001       32.256   0.100E-07
     Final TRS4 iteration    9 1.00000000   0.607E-07
     Chemical potential (mu):      -0.07222
 
 PAO| energy:  -7.7915422543429109      penalty:   2.7273646738777325E-008
 PAO|CG| warming up with steepest descent
 PAO|CG| beta:    0.0000000000000000     
 PAO| norm of gradient:   1.4096359684363213E-004
 PAO| energy improvement:  -5.8271973912837893E-009
 PAO| step    412                   -7.791542254  0.881E-05  0.262E+00     0.080
 PAO| converged after          412  steps :-)
 PAO| Recalculating energy after mixing.

     Lanczos converged:  T threshold:   0.100E-02
     Est. extremal eigenvalues:    0.249E+01   0.191E+00
     Est. condition number :    0.130E+02
     NS sqrt iter    1 1.00000000   0.631E+00       0.001       61.574
     NS sqrt iter    2 1.00000000   0.274E+00       0.001       97.988
     NS sqrt iter    3 1.00000000   0.483E-01       0.001       94.656
     NS sqrt iter    4 1.00000000   0.743E-03       0.001       94.987
     NS sqrt iter    5 1.00000000   0.539E-08       0.001       35.621
     Final NS sqrt iter    5 1.00000000   0.323E-09

     Est. extremal eigenvalues     -0.93600     1.62741  converged:  T
     TRS4 it   1 1.00000000   0.881E+00       0.000       16.128   0.100E-07
     TRS4 it   2 1.00000000   0.632E+00       0.001       32.256   0.100E-07
     TRS4 it   3 1.00000000   0.453E+00       0.001       32.256   0.100E-07
     TRS4 it   4 1.00000000   0.275E+00       0.001       32.256   0.100E-07
     TRS4 it   5 1.00000000   0.135E+00       0.001       32.256   0.100E-07
     TRS4 it   6 1.00000000   0.411E-01       0.001       32.256   0.100E-07
     TRS4 it   7 1.00000000   0.526E-02       0.001       32.256   0.100E-07
     TRS4 it   8 1.00000000   0.116E-03       0.001       32.256   0.100E-07
     TRS4 it   9 1.00000000   0.607E-07       0.001       32.256   0.100E-07
     Final TRS4 iteration    9 1.00000000   0.607E-07
     Chemical potential (mu):      -0.07222
 
 PAO| energy:  -7.7915422528861029      penalty:   2.7562867921176253E-008
 PAO| Writing restart file.
     Est. extremal eigenvalues     -0.93600     1.62741  converged:  T
     TRS4 it   1 1.00000000   0.881E+00       0.000       16.128   0.100E-07
     TRS4 it   2 1.00000000   0.632E+00       0.001       32.256   0.100E-07
     TRS4 it   3 1.00000000   0.453E+00       0.001       32.256   0.100E-07
     TRS4 it   4 1.00000000   0.275E+00       0.001       32.256   0.100E-07
     TRS4 it   5 1.00000000   0.135E+00       0.001       32.256   0.100E-07
     TRS4 it   6 1.00000000   0.411E-01       0.001       32.256   0.100E-07
     TRS4 it   7 1.00000000   0.526E-02       0.001       32.256   0.100E-07
     TRS4 it   8 1.00000000   0.116E-03       0.001       32.256   0.100E-07
     TRS4 it   9 1.00000000   0.607E-07       0.001       32.256   0.100E-07
     Final TRS4 iteration    9 1.00000000   0.607E-07
     Chemical potential (mu):      -0.07222

 SCF     1       -34.450513024       -34.450513024    1.703689

*********************************************************
 Using MIXING_FRACTION=0.450 to mix KS matrix:  iscf=  2
 KS_nw=0.450*KS + 0.550*KS_old
*********************************************************
     Est. extremal eigenvalues     -0.93601     1.62741  converged:  T
     TRS4 it   1 1.00000000   0.881E+00       0.000       16.128   0.100E-07
     TRS4 it   2 1.00000000   0.632E+00       0.001       32.256   0.100E-07
     TRS4 it   3 1.00000000   0.453E+00       0.001       32.256   0.100E-07
     TRS4 it   4 1.00000000   0.275E+00       0.001       32.256   0.100E-07
     TRS4 it   5 1.00000000   0.135E+00       0.001       32.256   0.100E-07
     TRS4 it   6 1.00000000   0.411E-01       0.001       32.256   0.100E-07
     TRS4 it   7 1.00000000   0.526E-02       0.001       32.256   0.100E-07
     TRS4 it   8 1.00000000   0.116E-03       0.001       32.256   0.100E-07
     TRS4 it   9 1.00000000   0.608E-07       0.001       32.256   0.100E-07
     Final TRS4 iteration    9 1.00000000   0.608E-07
     Chemical potential (mu):      -0.07222

 SCF     2       -34.450513024        -0.000000000    1.981532

 PAO| Storing density matrix for ASPC guess in slot:           1

 ENERGY| Total FORCE_EVAL ( QS ) energy (a.u.):              -34.450513024483783


 -------------------------------------------------------------------------------
 -                                                                             -
 -                                DBCSR STATISTICS                             -
 -                                                                             -
 -------------------------------------------------------------------------------
 COUNTER                                    TOTAL       BLAS       SMM       ACC
 flops     5 x     5 x     4                20000     100.0%      0.0%      0.0%
 flops    13 x     5 x     4                20800     100.0%      0.0%      0.0%
 flops     5 x    13 x     4                20800     100.0%      0.0%      0.0%
 flops    13 x    13 x     4                40560     100.0%      0.0%      0.0%
 flops     4 x     4 x     5              3237120     100.0%      0.0%      0.0%
 flops     5 x     4 x     5              3955200     100.0%      0.0%      0.0%
 flops     4 x     4 x    13              4208256     100.0%      0.0%      0.0%
 flops    13 x     4 x     5              5141760     100.0%      0.0%      0.0%
 flops     5 x     4 x    13              5141760     100.0%      0.0%      0.0%
 flops     5 x     4 x     4              6532800     100.0%      0.0%      0.0%
 flops    13 x     4 x    13              6684288     100.0%      0.0%      0.0%
 flops    13 x     4 x     4              8760544     100.0%      0.0%      0.0%
 flops     4 x     4 x     4            412588288     100.0%      0.0%      0.0%
 flops inhomo. stacks                           0       0.0%      0.0%      0.0%
 flops total                       456.352176E+06     100.0%      0.0%      0.0%
 flops max/rank                    456.352176E+06     100.0%      0.0%      0.0%
 matmuls inhomo. stacks                         0       0.0%      0.0%      0.0%
 matmuls total                            3360289     100.0%      0.0%      0.0%
 number of processed stacks                 26848     100.0%      0.0%      0.0%
 average stack size                                   125.2       0.0       0.0
 marketing flops                   740.703360E+06
 -------------------------------------------------------------------------------
 # multiplications                          22317
 max memory usage/rank             328.282112E+06
 # max total images/rank                        1
 # max 3D layers                                1
 # MPI messages exchanged                       0
 MPI messages size (bytes):
  total size                         0.000000E+00
  min size                           0.000000E+00
  max size                           0.000000E+00
  average size                       0.000000E+00
 MPI breakdown and total messages size (bytes):
             size <=      128                   0                        0
       128 < size <=     8192                   0                        0
      8192 < size <=    32768                   0                        0
     32768 < size <=   131072                   0                        0
    131072 < size <=  4194304                   0                        0
   4194304 < size <= 16777216                   0                        0
  16777216 < size                               0                        0
 -------------------------------------------------------------------------------

 MEMORY| Estimated peak process memory [MiB]                                 314

 -------------------------------------------------------------------------------
 -                                                                             -
 -                           R E F E R E N C E S                               -
 -                                                                             -
 -------------------------------------------------------------------------------
 
 CP2K version 7.0 (Development Version), the CP2K developers group (2018).
 CP2K is freely available from https://www.cp2k.org/ .

 Schuett, O; VandeVondele, J. 
 Journal of Chemical Theory and Computation, 14, (2018). 
 Machine Learning Adaptive Basis Sets for Efficient Large Scale Density Functional Theory Simulation.
 https://dx.doi.org/10.1021/acs.jctc.8b00378


 Schuett, Ole; Messmer, Peter; Hutter, Juerg; VandeVondele, Joost. 
 Electronic Structure Calculations on Graphics Processing Units, John Wiley & Sons, Ltd, 173-190 (2016). 
 GPU-Accelerated Sparse Matrix-Matrix Multiplication for Linear Scaling Density Functional Theory.
 https://dx.doi.org/10.1002/9781118670712.ch8


 Borstnik, U; VandeVondele, J; Weber, V; Hutter, J. 
 PARALLEL COMPUTING, 40 (5-6), 47-58 (2014). 
 Sparse matrix multiplication: The distributed block-compressed sparse
 row library.
 https://dx.doi.org/10.1016/j.parco.2014.03.012


 Hutter, J; Iannuzzi, M; Schiffmann, F; VandeVondele, J. 
 WILEY INTERDISCIPLINARY REVIEWS-COMPUTATIONAL MOLECULAR SCIENCE, 4 (1), 15-25 (2014). 
 CP2K: atomistic simulations of condensed matter systems.
 https://dx.doi.org/10.1002/wcms.1159


 VandeVondele, J; Borstnik, U; Hutter, J. 
 JOURNAL OF CHEMICAL THEORY AND COMPUTATION, 8 (10), 3565-3573 (2012). 
 Linear Scaling Self-Consistent Field Calculations with Millions of Atoms
 in the Condensed Phase.
 https://dx.doi.org/10.1021/ct200897x


 VandeVondele, J; Hutter, J. 
 JOURNAL OF CHEMICAL PHYSICS, 127 (11), 114105 (2007). 
 Gaussian basis sets for accurate calculations on molecular systems in
 gas and condensed phases.
 https://dx.doi.org/10.1063/1.2770708


 Krack, M. 
 THEORETICAL CHEMISTRY ACCOUNTS, 114 (1-3), 145-152 (2005). 
 Pseudopotentials for H to Kr optimized for gradient-corrected
 exchange-correlation functionals.
 https://dx.doi.org/10.1007/s00214-005-0655-y


 VandeVondele, J; Krack, M; Mohamed, F; Parrinello, M; Chassaing, T;
 Hutter, J. COMPUTER PHYSICS COMMUNICATIONS, 167 (2), 103-128 (2005). 
 QUICKSTEP: Fast and accurate density functional calculations using a
 mixed Gaussian and plane waves approach.
 https://dx.doi.org/10.1016/j.cpc.2004.12.014


 Frigo, M; Johnson, SG. 
 PROCEEDINGS OF THE IEEE, 93 (2), 216-231 (2005). 
 The design and implementation of FFTW3.
 https://dx.doi.org/10.1109/JPROC.2004.840301


 Niklasson, AMN; Tymczak, CJ; Challacombe, M. 
 JOURNAL OF CHEMICAL PHYSICS, 118 (19), 8611-8620 (2003). 
 Trace resetting density matrix purification in O(N)
 self-consistent-field theory.
 https://dx.doi.org/10.1063/1.1559913


 Hartwigsen, C; Goedecker, S; Hutter, J. 
 PHYSICAL REVIEW B, 58 (7), 3641-3662 (1998). 
 Relativistic separable dual-space Gaussian pseudopotentials from H to Rn.
 https://dx.doi.org/10.1103/PhysRevB.58.3641


 Lippert, G; Hutter, J; Parrinello, M. 
 MOLECULAR PHYSICS, 92 (3), 477-487 (1997). 
 A hybrid Gaussian and plane wave density functional scheme.
 https://dx.doi.org/10.1080/002689797170220


 Perdew, JP; Burke, K; Ernzerhof, M. 
 PHYSICAL REVIEW LETTERS, 77 (18), 3865-3868 (1996). 
 Generalized gradient approximation made simple.
 https://dx.doi.org/10.1103/PhysRevLett.77.3865


 Goedecker, S; Teter, M; Hutter, J. 
 PHYSICAL REVIEW B, 54 (3), 1703-1710 (1996). 
 Separable dual-space Gaussian pseudopotentials.
 https://dx.doi.org/10.1103/PhysRevB.54.1703


 -------------------------------------------------------------------------------
 -                                                                             -
 -                                T I M I N G                                  -
 -                                                                             -
 -------------------------------------------------------------------------------
 SUBROUTINE                       CALLS  ASD         SELF TIME        TOTAL TIME
                                MAXIMUM       AVERAGE  MAXIMUM  AVERAGE  MAXIMUM
 CP2K                                 1  1.0    0.016    0.016   33.126   33.126
 qs_energies                          1  2.0    0.000    0.000   32.585   32.585
 ls_scf                               1  3.0    0.000    0.000   32.417   32.417
 ls_scf_main                          4  4.0    0.001    0.001   18.965   18.965
 ls_scf_dm_to_ks                      9  5.0    0.000    0.000   18.860   18.860
 qs_ks_update_qs_env                 10  6.0    0.000    0.000   15.072   15.072
 rebuild_ks_matrix                   10  7.0    0.000    0.000   15.071   15.071
 qs_ks_build_kohn_sham_matrix        10  8.0    0.001    0.001   15.071   15.071
 pao_update                           4  4.0    0.011    0.011   10.948   10.948
 pao_calc_energy                    415  5.0    0.004    0.004    9.853    9.853
 qs_vxc_create                       10  9.0    0.000    0.000    9.090    9.090
 xc_vxc_pw_create                    10 10.0    0.113    0.113    9.090    9.090
 dbcsr_multiply_generic           22317  8.4    0.510    0.510    8.453    8.453
 xc_rho_set_and_dset_create          10 11.0    0.034    0.034    6.552    6.552
 pw_transfer                        191 10.6    0.013    0.013    6.504    6.504
 fft_wrap_pw1pw2                    171 11.7    0.002    0.002    6.404    6.404
 qs_rho_update_rho                   10  6.0    0.000    0.000    6.211    6.211
 calculate_rho_elec                  10  7.0    4.762    4.762    6.211    6.211
 fft_wrap_pw1pw2_200                111 12.8    0.329    0.329    6.133    6.133
 pao_dm_trs4                        415  6.0    0.003    0.003    5.036    5.036
 sum_up_and_integrate                10  9.0    0.018    0.018    5.036    5.036
 integrate_v_rspace                  10 10.0    4.265    4.265    5.018    5.018
 density_matrix_trs4                424  7.0    0.174    0.174    4.832    4.832
 ls_scf_init_matrix_S               419  7.0    0.004    0.004    4.810    4.810
 pao_rebuild_S                      415  6.0    0.011    0.011    4.769    4.769
 xc_functional_eval                  10 12.0    0.000    0.000    4.470    4.470
 pbe_lda_eval                        10 13.0    4.470    4.470    4.470    4.470
 matrix_sqrt_Newton_Schulz          419  8.0    0.112    0.112    4.345    4.345
 multiply_cannon                  22317  9.4    1.349    1.349    3.988    3.988
 fft3d_s                            172 13.6    3.418    3.418    3.433    3.433
 make_m2s                         44634  9.4    0.194    0.194    2.696    2.696
 pao_guess_initial_P                  1  4.0    0.000    0.000    2.428    2.428
 pao_read_preopt_dm                   1  5.0    0.000    0.000    2.428    2.428
 make_images                      44634 10.4    0.636    0.636    2.381    2.381
 multiply_cannon_multrec          22317 10.4    1.422    1.422    1.550    1.550
 pw_gather_s                         81 13.1    1.467    1.467    1.467    1.467
 density_rs2pw                       10  8.0    0.001    0.001    1.435    1.435
 arnoldi_extremal                   843  8.5    0.005    0.005    1.209    1.209
 arnoldi_normal_ev                  843  9.5    0.013    0.013    1.203    1.203
 pw_scatter_s                        90 14.2    1.159    1.159    1.159    1.159
 pao_calc_AB                        547  5.8    0.001    0.001    1.075    1.075
 pao_calc_AB_direct                 547  6.8    0.030    0.030    1.074    1.074
 pao_calc_grad_lnv_wrt_AB           131  7.0    0.008    0.008    1.012    1.012
 build_subspace                     843 10.5    0.063    0.063    0.896    0.896
 dbcsr_matrix_vector_mult         20230 11.5    0.123    0.123    0.811    0.811
 dbcsr_finalize                   52758  9.6    0.126    0.126    0.781    0.781
 potential_pw2rs                     10 11.0    0.003    0.003    0.743    0.743
 dbcsr_create_new                170727 10.7    0.377    0.377    0.729    0.729
 -------------------------------------------------------------------------------

 The number of warnings for this run is : 0
 
 -------------------------------------------------------------------------------
  **** **** ******  **  PROGRAM ENDED AT                 2019-03-28 17:33:59.630
 ***** ** ***  *** **   PROGRAM RAN ON            oleschuett.zrh.corp.google.com
 **    ****   ******    PROGRAM RAN BY                                oleschuett
 ***** **    ** ** **   PROGRAM PROCESS ID                                 34042
  **** **  *******  **  PROGRAM STOPPED IN /usr/local/google/home/oleschuett/git
                                           /pao_ml_equivar/2H2O_rotations/phi_32
