 DBCSR| CPU Multiplication driver                                           XSMM (U)
 DBCSR| Multrec recursion limit                                              512 (U)
 DBCSR| Multiplication stack size                                           1000 (D)
 DBCSR| Maximum elements for images                                    UNLIMITED (U)
 DBCSR| Multiplicative factor virtual images                                   1 (U)
 DBCSR| Use multiplication densification                                       T (D)
 DBCSR| Multiplication size stacks                                             3 (U)
 DBCSR| Use memory pool for CPU allocation                                     F (U)
 DBCSR| OMP: Current number of threads                                         1
 DBCSR| OMP: Max number of threads                                             1
 DBCSR| Split modifier for TAS multiplication algorithm                  1.0E+00 (U)


  **** **** ******  **  PROGRAM STARTED AT               2023-02-01 10:45:19.734
 ***** ** ***  *** **   PROGRAM STARTED ON                                moritz
 **    ****   ******    PROGRAM STARTED BY                                   ole
 ***** **    ** ** **   PROGRAM PROCESS ID                                148615
  **** **  *******  **  PROGRAM STARTED IN /home/ole/git/pao_ml_equivar/2H2O_rot
                                           ations/phi_32

 CP2K| version string:                 CP2K version 2023.1 (Development Version)
 CP2K| source code revision number:                                  git:03b4147
 CP2K| cp2kflags: omp libint fftw3 libxc quip xsmm spglib libvori libbqb libtorc
 CP2K|            h
 CP2K| is freely available from                            https://www.cp2k.org/
 CP2K| Program compiled at                           Mi 01 Feb 2023 10:36:52 CET
 CP2K| Program compiled on                                                moritz
 CP2K| Program compiled for                                                local
 CP2K| Data directory path                               /home/ole/git/cp2k/data
 CP2K| Input file name                                            2H2O_pao44.inp

 GLOBAL| Force Environment number                                              1
 GLOBAL| Basis set file name                                        BASIS_MOLOPT
 GLOBAL| Potential file name                                      GTH_POTENTIALS
 GLOBAL| MM Potential file name                                     MM_POTENTIAL
 GLOBAL| Coordinate file name                                         coords.xyz
 GLOBAL| Method name                                                        CP2K
 GLOBAL| Project name                                                 2H2O_pao44
 GLOBAL| Run type                                                         ENERGY
 GLOBAL| FFT library                                                       FFTW3
 GLOBAL| Diagonalization library                                       ScaLAPACK
 GLOBAL| DGEMM library                                                      BLAS
 GLOBAL| Orthonormality check for eigenvectors                          DISABLED
 GLOBAL| Matrix multiplication library                                 ScaLAPACK
 GLOBAL| All-to-all communication in single precision                          F
 GLOBAL| FFTs using library dependent lengths                                  F
 GLOBAL| Grid backend                                                       AUTO
 GLOBAL| Global print level                                                  LOW
 GLOBAL| MPI I/O enabled                                                       T
 GLOBAL| Total number of message passing processes                             1
 GLOBAL| Number of threads for this process                                    1
 GLOBAL| This output is from process                                           0
 GLOBAL| Stack size for threads created by OpenMP (OMP_STACKSIZE)        default
 GLOBAL| CPU model name           AMD Ryzen Threadripper 3970X 32-Core Processor
 GLOBAL| CPUID                                                              1002
 GLOBAL| Compiled for CPUID                                                    0

 *** HINT in environment.F:884 :: The compiler target flags (generic) used ***
 *** to build this binary cannot exploit all extensions of this CPU model  ***
 *** (x86_avx2). Consider compiler target flags as part of FCFLAGS and     ***
 *** CFLAGS (ARCH file).                                                   ***


 MEMORY| system memory details [Kb]
 MEMORY|                        rank 0           min           max       average
 MEMORY| MemTotal            131773860     131773860     131773860     131773860
 MEMORY| MemFree             116995348     116995348     116995348     116995348
 MEMORY| Buffers                301580        301580        301580        301580
 MEMORY| Cached                7018548       7018548       7018548       7018548
 MEMORY| Slab                   776140        776140        776140        776140
 MEMORY| SReclaimable           331304        331304        331304        331304
 MEMORY| MemLikelyFree       124646780     124646780     124646780     124646780


 GENERATE|  Preliminary Number of Bonds generated:                             0
 GENERATE|  Achieved consistency in connectivity generation.

 *******************************************************************************
 *******************************************************************************
 **                                                                           **
 **     #####                         ##              ##                      **
 **    ##   ##            ##          ##              ##                      **
 **   ##     ##                       ##            ######                    **
 **   ##     ##  ##   ##  ##   #####  ##  ##   ####   ##    #####    #####    **
 **   ##     ##  ##   ##  ##  ##      ## ##   ##      ##   ##   ##  ##   ##   **
 **   ##  ## ##  ##   ##  ##  ##      ####     ###    ##   ######   ######    **
 **    ##  ###   ##   ##  ##  ##      ## ##      ##   ##   ##       ##        **
 **     #######   #####   ##   #####  ##  ##  ####    ##    #####   ##        **
 **           ##                                                    ##        **
 **                                                                           **
 **                                                ... make the atoms dance   **
 **                                                                           **
 **            Copyright (C) by CP2K developers group (2000-2023)             **
 **                      J. Chem. Phys. 152, 194103 (2020)                    **
 **                                                                           **
 *******************************************************************************


 TOTAL NUMBERS AND MAXIMUM NUMBERS

  Total number of            - Atomic kinds:                                   2
                             - Atoms:                                          6
                             - Shell sets:                                     6
                             - Shells:                                        22
                             - Primitive Cartesian functions:                 42
                             - Cartesian basis functions:                     48
                             - Spherical basis functions:                     46

  Maximum angular momentum of- Orbital basis functions:                        2
                             - Local part of the GTH pseudopotential:          2
                             - Non-local part of the GTH pseudopotential:      0

 ------------------------------ Linear scaling SCF -----------------------------
 eps_scf:                                                              0.100E-07
 eps_filter:                                                           0.100E-07
 mixing_fraction:                                                      0.450E+00
 max_scf:                                                                     25
 fixed chemical potential (mu)                                                 F
 has unit metric:                                                              F
 Computing inv(S):                                                             T
 Computing sqrt(S):                                                            T
 Computing S preconditioner                                                    F
 S sqrt method:                                                     NEWTONSCHULZ
 S sqrt order:                                                                 3
 Extrapolation order:                                                          1
 Use single precision matrices                                                 F
 S preconditioner type                                                      NONE
 Polarized Atomic Orbitals (PAO)                                               T
 Purification method                                   Trace resetting 4th order
 Cluster type                                                             ATOMIC
 Computing Chebyshev                                                       FALSE
 Using PAO                                                                     T
 -------------------------------------------------------------------------------

 
 PAO|                                  EPS_PAO                           0.1E-04
 PAO|                                  MIXING                            0.5E+00
 PAO|                                  MAX_PAO                              1000
 PAO|                                  MAX_CYCLES                           1000
 PAO|                                  PARAMETERIZATION              EQUIVARIANT
 PAO|                                  PRECONDITION                            F
 PAO|                                  REGULARIZATION                    0.0E+00
 PAO|                                  EPS_PGF                           0.1E-09
 PAO|                                  PENALTY_DISTANCE                  0.1E+00
 PAO|                                  PENALTY_STRENGTH                  0.5E-02
 PAO|                                  LINPOT_PRECONDITION_DELTA         0.0E+00
 PAO|                                  LINPOT_INITGUESS_DELT             0.0E+00
 PAO|                                  LINPOT_REGULARIZATION_DELTA       0.0E+00
 PAO|                                  LINPOT_REGULARIZATION_STRENGTH    0.0E+00
 PAO|                                  OPTIMIZER                              CG
 PAO|                                  CG_INIT_STEPS                           2
 PAO|                                  CG_RESET_LIMIT                    0.1E+00
 PAO|                                  CHECK_UNITARY_TOL                -0.1E+01
 PAO|                                  CHECK_GRADIENT_TOL               -0.1E+01
 PAO|                                  NUM_GRADIENT_ORDER                      2
 PAO|                                  NUM_GRADIENT_EPS                  0.1E-07
 PAO|                                  PRINT%RESTART%WRITE_CYCLES            100
 PAO|                                  RESTART_FILE 
 PAO|                                  PREOPT_DM_FILE 2H2O_ref_LS_DM_SPIN_1_RESTART.dm
 PAO|                                  MACHINE_LEARNING%METHOD       GAUSSIAN_PR
 PAO|                                  MACHINE_LEARNING%PRIOR               ZERO
 PAO|                                  MACHINE_LEARNING%DESCRIPTOR     POTENTIAL
 PAO|                                  MACHINE_LEARNING%TOLERANCE        0.1E-01
 PAO|                                  MACHINE_LEARNING%GP_NOISE_VAR     0.1E+00
 PAO|                                  MACHINE_LEARNING%GP_SCALE         0.5E-01
 

 Calculating atomic Fock matrix for atomic kind: O

 Electronic structure
    Total number of core electrons                                          2.00
    Total number of valence electrons                                       6.00
    Total number of electrons                                               8.00
    Multiplicity                                                   not specified
    S   [  2.00] 2.00
    P      4.00


 *******************************************************************************
                  Iteration          Convergence                     Energy [au]
 *******************************************************************************
                          1        0.708315                     -15.576645311500
                          2        0.608879                     -15.587933561584
                          3        0.102828E-01                 -15.656849565404
                          4        0.113889E-02                 -15.656866888140
                          5        0.434197E-03                 -15.656867072159
                          6        0.263771E-03                 -15.656867091904
                          7        0.478536E-06                 -15.656867103452

 Energy components [Hartree]           Total Energy ::          -15.656867103452
                                        Band Energy ::           -3.000198112285
                                     Kinetic Energy ::           11.759971203220
                                   Potential Energy ::          -27.416838306672
                                      Virial (-V/T) ::            2.331369510426
                                        Core Energy ::          -26.140716385623
                                          XC Energy ::           -3.154051012914
                                     Coulomb Energy ::           13.637900295084
                       Total Pseudopotential Energy ::          -37.935781716540
                       Local Pseudopotential Energy ::          -39.218907440693
                    Nonlocal Pseudopotential Energy ::            1.283125724153
                                        Confinement ::            0.350941276976

 Orbital energies  State     L     Occupation   Energy[a.u.]          Energy[eV]

                       1     0          2.000      -0.864471          -23.523463

                       1     1          4.000      -0.317814           -8.648154


 Total Electron Density at R=0:                                         0.000068

 Calculating atomic Fock matrix for atomic kind: H

 Electronic structure
    Total number of core electrons                                          0.00
    Total number of valence electrons                                       1.00
    Total number of electrons                                               1.00
    Multiplicity                                                   not specified
    S      1.00


 *******************************************************************************
                  Iteration          Convergence                     Energy [au]
 *******************************************************************************
                          1        0.437545E-02                  -0.424159432110
                          2        0.531356E-03                  -0.424178438213
                          3        0.259176E-06                  -0.424178722480

 Energy components [Hartree]           Total Energy ::           -0.424178722480
                                        Band Energy ::           -0.199015229016
                                     Kinetic Energy ::            0.464007633961
                                   Potential Energy ::           -0.888186356441
                                      Virial (-V/T) ::            1.914163240935
                                        Core Energy ::           -0.479160803564
                                          XC Energy ::           -0.244352904054
                                     Coulomb Energy ::            0.299334985138
                       Total Pseudopotential Energy ::           -0.962295316385
                       Local Pseudopotential Energy ::           -0.962295316385
                    Nonlocal Pseudopotential Energy ::            0.000000000000
                                        Confinement ::            0.191268788606

 Orbital energies  State     L     Occupation   Energy[a.u.]          Energy[eV]

                       1     0          1.000      -0.199015           -5.415480


 Total Electron Density at R=0:                                         0.242907
 PAO| Made initial guess for matrix_X with norm:   4.8989794855663558     

     Lanczos converged:  T threshold:   0.100E-02
     Est. extremal eigenvalues:    0.337E+01   0.114E+00
     Est. condition number :    0.295E+02

 Order=           3
     NS sqrt iter    1 1.00000000   0.822E+00       0.001       61.474
     NS sqrt iter    2 1.00000000   0.440E+00       0.001      108.064
     NS sqrt iter    3 1.00000000   0.171E+00       0.001      108.814
     NS sqrt iter    4 1.00000000   0.208E-01       0.001      108.290
     NS sqrt iter    5 1.00000000   0.548E-04       0.001       91.828
     Symmetrizing Results
     Final NS sqrt iter    5 1.00000000   0.207E-08

 PAO| Read restart DM 2H2O_ref_LS_DM_SPIN_1_RESTART.dm with checksum:    43.725499809905230     
 PAO| Quickstep energy from restart density:  -34.451050426071973     
 PAO| ======================= Iteration:         1 =============================

     Lanczos converged:  T threshold:   0.100E-02
     Est. extremal eigenvalues:    0.337E+01   0.114E+00
     Est. condition number :    0.295E+02

 Order=           3
     NS sqrt iter    1 1.00000000   0.822E+00       0.001       61.271
     NS sqrt iter    2 1.00000000   0.440E+00       0.001      103.615
     NS sqrt iter    3 1.00000000   0.171E+00       0.001      104.550
     NS sqrt iter    4 1.00000000   0.208E-01       0.001      103.868
     NS sqrt iter    5 1.00000000   0.548E-04       0.001       86.755
     Symmetrizing Results
     Final NS sqrt iter    5 1.00000000   0.207E-08

     Est. extremal eigenvalues     -0.91913     1.89538  converged:  T
     TRS4 it   1 1.00000000   0.890E+00       0.000       16.128   0.100E-07
     TRS4 it   2 1.00000000   0.695E+00       0.001       32.256   0.100E-07
     TRS4 it   3 1.00000000   0.499E+00       0.001       32.256   0.100E-07
     TRS4 it   4 1.00000000   0.312E+00       0.001       32.256   0.100E-07
     TRS4 it   5 1.00000000   0.155E+00       0.001       32.256   0.100E-07
     TRS4 it   6 1.00000000   0.482E-01       0.001       32.256   0.100E-07
     TRS4 it   7 1.00000000   0.646E-02       0.001       32.256   0.100E-07
     TRS4 it   8 1.00000000   0.164E-03       0.001       32.256   0.100E-07
     TRS4 it   9 1.00000000   0.119E-06       0.001       32.256   0.100E-07
     TRS4 it  10 1.00000000   0.642E-13       0.001       32.256   0.100E-07
     Final TRS4 iteration   10 1.00000000   0.642E-13
     Chemical potential (mu):      -0.06350
 
 PAO| energy:  -7.6144202811283321      penalty:   4.4989723500885835E-033
 PAO|CG| warming up with steepest descent
 PAO|CG| beta:    0.0000000000000000     
 PAO| norm of gradient:  0.78386859813082699     
 PAO|LS| adapt:  T F F
 PAO|LS| adapt: scan_steps:    0.0000000000000000        0.0000000000000000        0.0000000000000000     
 PAO|LS| adapt: energies:   -7.6144202811283321        0.0000000000000000        0.0000000000000000     
 PAO| ======================= Iteration:         2 =============================

     Lanczos converged:  T threshold:   0.100E-02
     Est. extremal eigenvalues:    0.328E+01   0.127E+00
     Est. condition number :    0.259E+02

 Order=           3
     NS sqrt iter    1 1.00000000   0.805E+00       0.001       60.660
     NS sqrt iter    2 1.00000000   0.425E+00       0.001      102.738
     NS sqrt iter    3 1.00000000   0.153E+00       0.001      102.013
     NS sqrt iter    4 1.00000000   0.144E-01       0.001      102.666
     NS sqrt iter    5 1.00000000   0.179E-04       0.001       80.497
     Symmetrizing Results
     Final NS sqrt iter    5 1.00000000   0.479E-09

     Est. extremal eigenvalues     -0.92280     1.84378  converged:  T
     TRS4 it   1 1.00000000   0.888E+00       0.000       16.128   0.100E-07
     TRS4 it   2 1.00000000   0.677E+00       0.001       32.256   0.100E-07
     TRS4 it   3 1.00000000   0.484E+00       0.001       32.256   0.100E-07
     TRS4 it   4 1.00000000   0.293E+00       0.001       32.256   0.100E-07
     TRS4 it   5 1.00000000   0.136E+00       0.001       32.256   0.100E-07
     TRS4 it   6 1.00000000   0.373E-01       0.001       32.256   0.100E-07
     TRS4 it   7 1.00000000   0.390E-02       0.001       32.256   0.100E-07
     TRS4 it   8 1.00000000   0.602E-04       0.001       32.256   0.100E-07
     TRS4 it   9 1.00000000   0.161E-07       0.001       32.256   0.100E-07
     Final TRS4 iteration    9 1.00000000   0.161E-07
     Chemical potential (mu):      -0.05158
 
 PAO| energy:  -7.6699746529481843      penalty:   2.2546462281117398E-008
 PAO|LS| adapt:  T T F
 PAO|LS| adapt: scan_steps:    0.0000000000000000       0.10000000000000001        0.0000000000000000     
 PAO|LS| adapt: energies:   -7.6144202811283321       -7.6699746529481843        0.0000000000000000     
 PAO| ======================= Iteration:         3 =============================

     Lanczos converged:  T threshold:   0.100E-02
     Est. extremal eigenvalues:    0.319E+01   0.137E+00
     Est. condition number :    0.232E+02

 Order=           3
     NS sqrt iter    1 1.00000000   0.788E+00       0.001       60.165
     NS sqrt iter    2 1.00000000   0.408E+00       0.001      101.740
     NS sqrt iter    3 1.00000000   0.136E+00       0.001      101.045
     NS sqrt iter    4 1.00000000   0.996E-02       0.001      100.745
     NS sqrt iter    5 1.00000000   0.618E-05       0.001       79.838
     Symmetrizing Results
     Final NS sqrt iter    5 1.00000000   0.584E-10

     Est. extremal eigenvalues     -0.92623     1.80253  converged:  T
     TRS4 it   1 1.00000000   0.886E+00       0.000       16.128   0.100E-07
     TRS4 it   2 1.00000000   0.661E+00       0.001       32.256   0.100E-07
     TRS4 it   3 1.00000000   0.469E+00       0.001       32.256   0.100E-07
     TRS4 it   4 1.00000000   0.273E+00       0.001       32.256   0.100E-07
     TRS4 it   5 1.00000000   0.118E+00       0.001       32.256   0.100E-07
     TRS4 it   6 1.00000000   0.279E-01       0.001       32.256   0.100E-07
     TRS4 it   7 1.00000000   0.219E-02       0.001       32.256   0.100E-07
     TRS4 it   8 1.00000000   0.191E-04       0.001       32.256   0.100E-07
     TRS4 it   9 1.00000000   0.162E-08       0.001       32.256   0.100E-07
     Final TRS4 iteration    9 1.00000000   0.162E-08
     Chemical potential (mu):      -0.03870
 
 PAO| energy:  -7.7130845201423979      penalty:   3.6074343154384628E-007
 PAO|LS| adapt:  T T F
 PAO|LS| adapt: scan_steps:    0.0000000000000000       0.20000000000000001        0.0000000000000000     
 PAO|LS| adapt: energies:   -7.6144202811283321       -7.7130845201423979        0.0000000000000000     
 PAO| ======================= Iteration:         4 =============================

     Lanczos converged:  T threshold:   0.100E-02
     Est. extremal eigenvalues:    0.299E+01   0.155E+00
     Est. condition number :    0.193E+02

 Order=           3
     NS sqrt iter    1 1.00000000   0.750E+00       0.001       60.775
     NS sqrt iter    2 1.00000000   0.373E+00       0.001      103.152
     NS sqrt iter    3 1.00000000   0.106E+00       0.001      102.195
     NS sqrt iter    4 1.00000000   0.492E-02       0.001      102.044
     NS sqrt iter    5 1.00000000   0.934E-06       0.001       79.863
     Symmetrizing Results
     Final NS sqrt iter    5 1.00000000   0.148E-11

     Est. extremal eigenvalues     -0.93156     1.74300  converged:  T
     TRS4 it   1 1.00000000   0.884E+00       0.000       16.128   0.100E-07
     TRS4 it   2 1.00000000   0.636E+00       0.001       32.256   0.100E-07
     TRS4 it   3 1.00000000   0.441E+00       0.001       32.256   0.100E-07
     TRS4 it   4 1.00000000   0.238E+00       0.001       32.256   0.100E-07
     TRS4 it   5 1.00000000   0.869E-01       0.001       32.256   0.100E-07
     TRS4 it   6 1.00000000   0.147E-01       0.001       32.256   0.100E-07
     TRS4 it   7 1.00000000   0.579E-03       0.001       32.256   0.100E-07
     TRS4 it   8 1.00000000   0.129E-05       0.001       32.256   0.100E-07
     TRS4 it   9 1.00000000   0.740E-11       0.001       32.256   0.100E-07
     Final TRS4 iteration    9 1.00000000   0.740E-11
     Chemical potential (mu):      -0.01040
 
 PAO| energy:  -7.7603556658259079      penalty:   5.7718951850778215E-006
 PAO|LS| Need extra step
 PAO|LS| adapt:  T T F
 PAO|LS| adapt: scan_steps:    0.0000000000000000       0.40000000000000002        0.0000000000000000     
 PAO|LS| adapt: energies:   -7.6144202811283321       -7.7603556658259079        0.0000000000000000     
 PAO| ======================= Iteration:         5 =============================

     Lanczos converged:  T threshold:   0.100E-02
     Est. extremal eigenvalues:    0.263E+01   0.182E+00
     Est. condition number :    0.145E+02

 Order=           3
     NS sqrt iter    1 1.00000000   0.685E+00       0.001       61.081
     NS sqrt iter    2 1.00000000   0.311E+00       0.001      102.874
     NS sqrt iter    3 1.00000000   0.655E-01       0.001      105.385
     NS sqrt iter    4 1.00000000   0.137E-02       0.001      102.945
     NS sqrt iter    5 1.00000000   0.267E-07       0.001       56.244
     Symmetrizing Results
     Final NS sqrt iter    5 1.00000000   0.275E-08

     Est. extremal eigenvalues     -0.93279     1.67696  converged:  T
     TRS4 it   1 1.00000000   0.882E+00       0.000       16.128   0.100E-07
     TRS4 it   2 1.00000000   0.601E+00       0.001       32.256   0.100E-07
     TRS4 it   3 1.00000000   0.396E+00       0.001       32.256   0.100E-07
     TRS4 it   4 1.00000000   0.183E+00       0.001       32.256   0.100E-07
     TRS4 it   5 1.00000000   0.479E-01       0.001       32.256   0.100E-07
     TRS4 it   6 1.00000000   0.405E-02       0.001       32.256   0.100E-07
     TRS4 it   7 1.00000000   0.374E-04       0.001       32.256   0.100E-07
     TRS4 it   8 1.00000000   0.403E-08       0.001       32.256   0.100E-07
     Final TRS4 iteration    8 1.00000000   0.403E-08
     Chemical potential (mu):       0.03786
 
 PAO| energy:  -7.7055700504841234      penalty:   9.2350325204294641E-005
 PAO|LS| Need extra step
 PAO|LS| adapt:  T T T
 PAO|LS| adapt: scan_steps:    0.0000000000000000       0.40000000000000002       0.80000000000000004     
 PAO|LS| adapt: energies:   -7.6144202811283321       -7.7603556658259079       -7.7055700504841234     
 PAO|LS| adapt: suggested step_size:   0.49082235474904712     
 PAO|LS| adapt: predicted energy  -7.7655296887557359     
 PAO| ======================= Iteration:         6 =============================

     Lanczos converged:  T threshold:   0.100E-02
     Est. extremal eigenvalues:    0.290E+01   0.162E+00
     Est. condition number :    0.180E+02

 Order=           3
     NS sqrt iter    1 1.00000000   0.733E+00       0.001       60.276
     NS sqrt iter    2 1.00000000   0.358E+00       0.001      100.823
     NS sqrt iter    3 1.00000000   0.948E-01       0.001      105.071
     NS sqrt iter    4 1.00000000   0.363E-02       0.001      103.663
     NS sqrt iter    5 1.00000000   0.414E-06       0.001       79.153
     Symmetrizing Results
     Final NS sqrt iter    5 1.00000000   0.256E-10

     Est. extremal eigenvalues     -0.93304     1.72324  converged:  T
     TRS4 it   1 1.00000000   0.883E+00       0.000       16.128   0.100E-07
     TRS4 it   2 1.00000000   0.626E+00       0.001       32.256   0.100E-07
     TRS4 it   3 1.00000000   0.429E+00       0.001       32.256   0.100E-07
     TRS4 it   4 1.00000000   0.223E+00       0.001       32.256   0.100E-07
     TRS4 it   5 1.00000000   0.755E-01       0.001       32.256   0.100E-07
     TRS4 it   6 1.00000000   0.108E-01       0.001       32.256   0.100E-07
     TRS4 it   7 1.00000000   0.300E-03       0.001       32.256   0.100E-07
     TRS4 it   8 1.00000000   0.330E-06       0.001       32.256   0.100E-07
     TRS4 it   9 1.00000000   0.481E-12       0.001       32.256   0.100E-07
     Final TRS4 iteration    9 1.00000000   0.481E-12
     Chemical potential (mu):       0.00322
 
 PAO| energy:  -7.7647930012090827      penalty:   1.3085062855384411E-005
 PAO|CG| warming up with steepest descent
 PAO|CG| beta:    0.0000000000000000     
 PAO| norm of gradient:  0.41757632794078348     
 PAO| energy improvement: -0.15037272008075053     
 PAO| step      6                   -7.764793001  0.261E-01  0.491E+00     0.089
 PAO|LS| adapt:  T F F
 PAO|LS| adapt: scan_steps:    0.0000000000000000        0.0000000000000000        0.0000000000000000     
 PAO|LS| adapt: energies:   -7.7647930012090827        0.0000000000000000        0.0000000000000000     
 PAO| ======================= Iteration:         7 =============================

     Lanczos converged:  T threshold:   0.100E-02
     Est. extremal eigenvalues:    0.281E+01   0.176E+00
     Est. condition number :    0.160E+02

 Order=           3
     NS sqrt iter    1 1.00000000   0.716E+00       0.001       60.335
     NS sqrt iter    2 1.00000000   0.337E+00       0.001      101.855
     NS sqrt iter    3 1.00000000   0.792E-01       0.001      102.477
     NS sqrt iter    4 1.00000000   0.220E-02       0.001      101.933
     NS sqrt iter    5 1.00000000   0.101E-06       0.001       73.750
     Symmetrizing Results
     Final NS sqrt iter    5 1.00000000   0.124E-08

     Est. extremal eigenvalues     -0.93474     1.70983  converged:  T
     TRS4 it   1 1.00000000   0.882E+00       0.000       16.128   0.100E-07
     TRS4 it   2 1.00000000   0.624E+00       0.001       32.256   0.100E-07
     TRS4 it   3 1.00000000   0.429E+00       0.001       32.256   0.100E-07
     TRS4 it   4 1.00000000   0.224E+00       0.001       32.256   0.100E-07
     TRS4 it   5 1.00000000   0.761E-01       0.001       32.256   0.100E-07
     TRS4 it   6 1.00000000   0.108E-01       0.001       32.256   0.100E-07
     TRS4 it   7 1.00000000   0.281E-03       0.001       32.256   0.100E-07
     TRS4 it   8 1.00000000   0.274E-06       0.001       32.256   0.100E-07
     TRS4 it   9 1.00000000   0.326E-12       0.001       32.256   0.100E-07
     Final TRS4 iteration    9 1.00000000   0.326E-12
     Chemical potential (mu):       0.00522
 
 PAO| energy:  -7.7586791062650677      penalty:   1.9807818121507069E-005
 PAO|LS| adapt:  T F T
 PAO|LS| adapt: scan_steps:    0.0000000000000000        0.0000000000000000       0.49082235474904712     
 PAO|LS| adapt: energies:   -7.7647930012090827        0.0000000000000000       -7.7586791062650677     
 PAO| ======================= Iteration:         8 =============================

     Lanczos converged:  T threshold:   0.100E-02
     Est. extremal eigenvalues:    0.286E+01   0.169E+00
     Est. condition number :    0.170E+02

 Order=           3
     NS sqrt iter    1 1.00000000   0.724E+00       0.001       61.179
     NS sqrt iter    2 1.00000000   0.348E+00       0.001      102.560
     NS sqrt iter    3 1.00000000   0.869E-01       0.001      105.681
     NS sqrt iter    4 1.00000000   0.284E-02       0.001      103.572
     NS sqrt iter    5 1.00000000   0.209E-06       0.001       77.811
     Symmetrizing Results
     Final NS sqrt iter    5 1.00000000   0.936E-09

     Est. extremal eigenvalues     -0.93486     1.71596  converged:  T
     TRS4 it   1 1.00000000   0.882E+00       0.000       16.128   0.100E-07
     TRS4 it   2 1.00000000   0.625E+00       0.001       32.256   0.100E-07
     TRS4 it   3 1.00000000   0.429E+00       0.001       32.256   0.100E-07
     TRS4 it   4 1.00000000   0.223E+00       0.001       32.256   0.100E-07
     TRS4 it   5 1.00000000   0.755E-01       0.001       32.256   0.100E-07
     TRS4 it   6 1.00000000   0.108E-01       0.001       32.256   0.100E-07
     TRS4 it   7 1.00000000   0.298E-03       0.001       32.256   0.100E-07
     TRS4 it   8 1.00000000   0.319E-06       0.001       32.256   0.100E-07
     TRS4 it   9 1.00000000   0.446E-12       0.001       32.256   0.100E-07
     Final TRS4 iteration    9 1.00000000   0.446E-12
     Chemical potential (mu):       0.00378
 
 PAO| energy:  -7.7844198485318739      penalty:   1.4188487111480650E-005
 PAO|LS| adapt:  T T T
 PAO|LS| adapt: scan_steps:    0.0000000000000000       0.24541117737452356       0.49082235474904712     
 PAO|LS| adapt: energies:   -7.7647930012090827       -7.7844198485318739       -7.7586791062650677     
 PAO|LS| adapt: suggested step_size:   0.22887494335671613     
 PAO|LS| adapt: predicted energy  -7.7845228397634019     
 PAO| ======================= Iteration:         9 =============================

     Lanczos converged:  T threshold:   0.100E-02
     Est. extremal eigenvalues:    0.286E+01   0.168E+00
     Est. condition number :    0.170E+02

 Order=           3
     NS sqrt iter    1 1.00000000   0.725E+00       0.001       61.351
     NS sqrt iter    2 1.00000000   0.348E+00       0.001      101.669
     NS sqrt iter    3 1.00000000   0.874E-01       0.001      106.161
     NS sqrt iter    4 1.00000000   0.289E-02       0.001      104.043
     NS sqrt iter    5 1.00000000   0.219E-06       0.001       78.170
     Symmetrizing Results
     Final NS sqrt iter    5 1.00000000   0.715E-09

     Est. extremal eigenvalues     -0.93480     1.71641  converged:  T
     TRS4 it   1 1.00000000   0.882E+00       0.000       16.128   0.100E-07
     TRS4 it   2 1.00000000   0.625E+00       0.001       32.256   0.100E-07
     TRS4 it   3 1.00000000   0.429E+00       0.001       32.256   0.100E-07
     TRS4 it   4 1.00000000   0.223E+00       0.001       32.256   0.100E-07
     TRS4 it   5 1.00000000   0.755E-01       0.001       32.256   0.100E-07
     TRS4 it   6 1.00000000   0.108E-01       0.001       32.256   0.100E-07
     TRS4 it   7 1.00000000   0.298E-03       0.001       32.256   0.100E-07
     TRS4 it   8 1.00000000   0.321E-06       0.001       32.256   0.100E-07
     TRS4 it   9 1.00000000   0.452E-12       0.001       32.256   0.100E-07
     Final TRS4 iteration    9 1.00000000   0.452E-12
     Chemical potential (mu):       0.00371
 
 PAO| energy:  -7.7845475992222486      penalty:   1.4011729690115024E-005
 PAO|CG| trace_G_new    3.6834101489195872E-002
 PAO|CG| trace_G_prev   0.17436998965650877     
 PAO|CG| trace_G_mix   -1.4478362818907626E-003
 PAO|CG| trace_D   0.17436998965650877     
 PAO|CG| trace_D_Gnew   1.4478362818907626E-003
 PAO|CG| beta:   0.21954430258611690     
 PAO| norm of gradient:  0.19192212350116356     
 PAO| energy improvement:  -1.9754598013165925E-002
 PAO| step      9                   -7.784547599  0.120E-01  0.229E+00     0.056
 PAO|LS| adapt:  T F F
 PAO|LS| adapt: scan_steps:    0.0000000000000000        0.0000000000000000        0.0000000000000000     
 PAO|LS| adapt: energies:   -7.7845475992222486        0.0000000000000000        0.0000000000000000     
 PAO| ======================= Iteration:        10 =============================

     Lanczos converged:  T threshold:   0.100E-02
     Est. extremal eigenvalues:    0.282E+01   0.174E+00
     Est. condition number :    0.163E+02

 Order=           3
     NS sqrt iter    1 1.00000000   0.717E+00       0.001       58.880
     NS sqrt iter    2 1.00000000   0.340E+00       0.001      103.145
     NS sqrt iter    3 1.00000000   0.818E-01       0.001      103.788
     NS sqrt iter    4 1.00000000   0.238E-02       0.001      102.873
     NS sqrt iter    5 1.00000000   0.123E-06       0.001       73.779
     Symmetrizing Results
     Final NS sqrt iter    5 1.00000000   0.139E-08

     Est. extremal eigenvalues     -0.93569     1.71387  converged:  T
     TRS4 it   1 1.00000000   0.881E+00       0.000       16.128   0.100E-07
     TRS4 it   2 1.00000000   0.624E+00       0.001       32.256   0.100E-07
     TRS4 it   3 1.00000000   0.427E+00       0.001       32.256   0.100E-07
     TRS4 it   4 1.00000000   0.221E+00       0.001       32.256   0.100E-07
     TRS4 it   5 1.00000000   0.738E-01       0.001       32.256   0.100E-07
     TRS4 it   6 1.00000000   0.103E-01       0.001       32.256   0.100E-07
     TRS4 it   7 1.00000000   0.264E-03       0.001       32.256   0.100E-07
     TRS4 it   8 1.00000000   0.245E-06       0.001       32.256   0.100E-07
     TRS4 it   9 1.00000000   0.260E-12       0.001       32.256   0.100E-07
     Final TRS4 iteration    9 1.00000000   0.260E-12
     Chemical potential (mu):       0.00675
 
 PAO| energy:  -7.7895802506736977      penalty:   1.4546397803477634E-005
 PAO|LS| adapt:  T T F
 PAO|LS| adapt: scan_steps:    0.0000000000000000       0.22887494335671613        0.0000000000000000     
 PAO|LS| adapt: energies:   -7.7845475992222486       -7.7895802506736977        0.0000000000000000     
 PAO| ======================= Iteration:        11 =============================

     Lanczos converged:  T threshold:   0.100E-02
     Est. extremal eigenvalues:    0.279E+01   0.179E+00
     Est. condition number :    0.155E+02

 Order=           3
     NS sqrt iter    1 1.00000000   0.709E+00       0.001       61.425
     NS sqrt iter    2 1.00000000   0.332E+00       0.001      103.150
     NS sqrt iter    3 1.00000000   0.764E-01       0.001      105.191
     NS sqrt iter    4 1.00000000   0.195E-02       0.001      105.141
     NS sqrt iter    5 1.00000000   0.677E-07       0.001       70.445
     Symmetrizing Results
     Final NS sqrt iter    5 1.00000000   0.532E-09

     Est. extremal eigenvalues     -0.93561     1.71254  converged:  T
     TRS4 it   1 1.00000000   0.880E+00       0.000       16.128   0.100E-07
     TRS4 it   2 1.00000000   0.623E+00       0.001       32.256   0.100E-07
     TRS4 it   3 1.00000000   0.426E+00       0.001       32.256   0.100E-07
     TRS4 it   4 1.00000000   0.219E+00       0.001       32.256   0.100E-07
     TRS4 it   5 1.00000000   0.721E-01       0.001       32.256   0.100E-07
     TRS4 it   6 1.00000000   0.974E-02       0.001       32.256   0.100E-07
     TRS4 it   7 1.00000000   0.233E-03       0.001       32.256   0.100E-07
     TRS4 it   8 1.00000000   0.186E-06       0.001       32.256   0.100E-07
     TRS4 it   9 1.00000000   0.147E-12       0.001       32.256   0.100E-07
     Final TRS4 iteration    9 1.00000000   0.147E-12
     Chemical potential (mu):       0.00989
 
 PAO| energy:  -7.7882045730296952      penalty:   1.5746997407276303E-005
 PAO|LS| adapt:  T T T
 PAO|LS| adapt: scan_steps:    0.0000000000000000       0.22887494335671613       0.45774988671343225     
 PAO|LS| adapt: energies:   -7.7845475992222486       -7.7895802506736977       -7.7882045730296952     
 PAO|LS| adapt: suggested step_size:   0.29417977247593008     
 PAO|LS| adapt: predicted energy  -7.7898411115242636     
 PAO| ======================= Iteration:        12 =============================

     Lanczos converged:  T threshold:   0.100E-02
     Est. extremal eigenvalues:    0.281E+01   0.175E+00
     Est. condition number :    0.160E+02

 Order=           3
     NS sqrt iter    1 1.00000000   0.715E+00       0.001       60.696
     NS sqrt iter    2 1.00000000   0.338E+00       0.001      102.746
     NS sqrt iter    3 1.00000000   0.802E-01       0.001      103.760
     NS sqrt iter    4 1.00000000   0.225E-02       0.001      103.381
     NS sqrt iter    5 1.00000000   0.104E-06       0.001       73.090
     Symmetrizing Results
     Final NS sqrt iter    5 1.00000000   0.120E-08

     Est. extremal eigenvalues     -0.93576     1.71337  converged:  T
     TRS4 it   1 1.00000000   0.881E+00       0.000       16.128   0.100E-07
     TRS4 it   2 1.00000000   0.624E+00       0.001       32.256   0.100E-07
     TRS4 it   3 1.00000000   0.427E+00       0.001       32.256   0.100E-07
     TRS4 it   4 1.00000000   0.220E+00       0.001       32.256   0.100E-07
     TRS4 it   5 1.00000000   0.733E-01       0.001       32.256   0.100E-07
     TRS4 it   6 1.00000000   0.101E-01       0.001       32.256   0.100E-07
     TRS4 it   7 1.00000000   0.255E-03       0.001       32.256   0.100E-07
     TRS4 it   8 1.00000000   0.226E-06       0.001       32.256   0.100E-07
     TRS4 it   9 1.00000000   0.221E-12       0.001       32.256   0.100E-07
     Final TRS4 iteration    9 1.00000000   0.221E-12
     Chemical potential (mu):       0.00764
 
 PAO| energy:  -7.7898248523096267      penalty:   1.4813390946485607E-005
 PAO|CG| trace_G_new    1.1800630666872355E-002
 PAO|CG| trace_G_prev    3.6834101489195872E-002
 PAO|CG| trace_G_mix   -4.5428394214515290E-004
 PAO|CG| trace_D    4.4602954405261033E-002
 PAO|CG| trace_D_Gnew   2.0602275940907484E-004
 PAO|CG| beta:   0.33270567527246736     
 PAO| norm of gradient:  0.10863070775279132     
 PAO| energy improvement:  -5.2772530873781420E-003
 PAO| step     12                   -7.789824852  0.679E-02  0.294E+00     0.056
 PAO|LS| adapt:  T F F
 PAO|LS| adapt: scan_steps:    0.0000000000000000        0.0000000000000000        0.0000000000000000     
 PAO|LS| adapt: energies:   -7.7898248523096267        0.0000000000000000        0.0000000000000000     
 PAO| ======================= Iteration:        13 =============================

     Lanczos converged:  T threshold:   0.100E-02
     Est. extremal eigenvalues:    0.278E+01   0.180E+00
     Est. condition number :    0.155E+02

 Order=           3
     NS sqrt iter    1 1.00000000   0.708E+00       0.001       60.044
     NS sqrt iter    2 1.00000000   0.330E+00       0.001      103.719
     NS sqrt iter    3 1.00000000   0.759E-01       0.001      104.394
     NS sqrt iter    4 1.00000000   0.192E-02       0.001      102.963
     NS sqrt iter    5 1.00000000   0.648E-07       0.001       70.284
     Symmetrizing Results
     Final NS sqrt iter    5 1.00000000   0.505E-09

     Est. extremal eigenvalues     -0.93624     1.70757  converged:  T
     TRS4 it   1 1.00000000   0.880E+00       0.000       16.128   0.100E-07
     TRS4 it   2 1.00000000   0.621E+00       0.001       32.256   0.100E-07
     TRS4 it   3 1.00000000   0.423E+00       0.001       32.256   0.100E-07
     TRS4 it   4 1.00000000   0.215E+00       0.001       32.256   0.100E-07
     TRS4 it   5 1.00000000   0.698E-01       0.001       32.256   0.100E-07
     TRS4 it   6 1.00000000   0.913E-02       0.001       32.256   0.100E-07
     TRS4 it   7 1.00000000   0.205E-03       0.001       32.256   0.100E-07
     TRS4 it   8 1.00000000   0.143E-06       0.001       32.256   0.100E-07
     TRS4 it   9 1.00000000   0.869E-13       0.001       32.256   0.100E-07
     Final TRS4 iteration    9 1.00000000   0.869E-13
     Chemical potential (mu):       0.01208
 
 PAO| energy:  -7.7918945940234190      penalty:   1.5119648053865837E-005
 PAO|LS| adapt:  T T F
 PAO|LS| adapt: scan_steps:    0.0000000000000000       0.29417977247593008        0.0000000000000000     
 PAO|LS| adapt: energies:   -7.7898248523096267       -7.7918945940234190        0.0000000000000000     
 PAO| ======================= Iteration:        14 =============================

     Lanczos converged:  T threshold:   0.100E-02
     Est. extremal eigenvalues:    0.274E+01   0.184E+00
     Est. condition number :    0.149E+02

 Order=           3
     NS sqrt iter    1 1.00000000   0.700E+00       0.001       61.546
     NS sqrt iter    2 1.00000000   0.324E+00       0.001      103.002
     NS sqrt iter    3 1.00000000   0.717E-01       0.001      105.352
     NS sqrt iter    4 1.00000000   0.163E-02       0.001      103.302
     NS sqrt iter    5 1.00000000   0.405E-07       0.001       65.685
     Symmetrizing Results
     Final NS sqrt iter    5 1.00000000   0.343E-09

     Est. extremal eigenvalues     -0.93622     1.70200  converged:  T
     TRS4 it   1 1.00000000   0.880E+00       0.000       16.128   0.100E-07
     TRS4 it   2 1.00000000   0.618E+00       0.001       32.256   0.100E-07
     TRS4 it   3 1.00000000   0.419E+00       0.001       32.256   0.100E-07
     TRS4 it   4 1.00000000   0.211E+00       0.001       32.256   0.100E-07
     TRS4 it   5 1.00000000   0.665E-01       0.001       32.256   0.100E-07
     TRS4 it   6 1.00000000   0.824E-02       0.001       32.256   0.100E-07
     TRS4 it   7 1.00000000   0.165E-03       0.001       32.256   0.100E-07
     TRS4 it   8 1.00000000   0.902E-07       0.001       32.256   0.100E-07
     TRS4 it   9 1.00000000   0.341E-13       0.001       32.256   0.100E-07
     Final TRS4 iteration    9 1.00000000   0.341E-13
     Chemical potential (mu):       0.01641
 
 PAO| energy:  -7.7912512708120643      penalty:   1.5907156564305623E-005
 PAO|LS| adapt:  T T T
 PAO|LS| adapt: scan_steps:    0.0000000000000000       0.29417977247593008       0.58835954495186016     
 PAO|LS| adapt: energies:   -7.7898248523096267       -7.7918945940234190       -7.7912512708120643     
 PAO|LS| adapt: suggested step_size:   0.37151361484238032     
 PAO|LS| adapt: predicted energy  -7.7919883380822705     
 PAO| ======================= Iteration:        15 =============================

     Lanczos converged:  T threshold:   0.100E-02
     Est. extremal eigenvalues:    0.277E+01   0.181E+00
     Est. condition number :    0.153E+02

 Order=           3
     NS sqrt iter    1 1.00000000   0.706E+00       0.001       60.891
     NS sqrt iter    2 1.00000000   0.329E+00       0.001      102.661
     NS sqrt iter    3 1.00000000   0.748E-01       0.001      103.014
     NS sqrt iter    4 1.00000000   0.184E-02       0.001      104.916
     NS sqrt iter    5 1.00000000   0.573E-07       0.001       68.928
     Symmetrizing Results
     Final NS sqrt iter    5 1.00000000   0.478E-09

     Est. extremal eigenvalues     -0.93629     1.70608  converged:  T
     TRS4 it   1 1.00000000   0.880E+00       0.000       16.128   0.100E-07
     TRS4 it   2 1.00000000   0.620E+00       0.001       32.256   0.100E-07
     TRS4 it   3 1.00000000   0.422E+00       0.001       32.256   0.100E-07
     TRS4 it   4 1.00000000   0.214E+00       0.001       32.256   0.100E-07
     TRS4 it   5 1.00000000   0.689E-01       0.001       32.256   0.100E-07
     TRS4 it   6 1.00000000   0.889E-02       0.001       32.256   0.100E-07
     TRS4 it   7 1.00000000   0.193E-03       0.001       32.256   0.100E-07
     TRS4 it   8 1.00000000   0.127E-06       0.001       32.256   0.100E-07
     TRS4 it   9 1.00000000   0.680E-13       0.001       32.256   0.100E-07
     Final TRS4 iteration    9 1.00000000   0.680E-13
     Chemical potential (mu):       0.01323
 
 PAO| energy:  -7.7919852459938443      penalty:   1.5276974457753788E-005
 PAO|CG| trace_G_new    2.6267472550281978E-003
 PAO|CG| trace_G_prev    1.1800630666872355E-002
 PAO|CG| trace_G_mix    6.1772241415424765E-005
 PAO|CG| trace_D    1.6600778576058059E-002
 PAO|CG| trace_D_Gnew   3.4154375612222991E-005
 PAO|CG| beta:   0.21735914681351476     
 PAO| norm of gradient:   5.1251802456383888E-002
 PAO| energy improvement:  -2.1603936842176097E-003
 PAO| step     15                   -7.791985246  0.320E-02  0.372E+00     0.056
 PAO|LS| adapt:  T F F
 PAO|LS| adapt: scan_steps:    0.0000000000000000        0.0000000000000000        0.0000000000000000     
 PAO|LS| adapt: energies:   -7.7919852459938443        0.0000000000000000        0.0000000000000000     
 PAO| ======================= Iteration:        16 =============================

     Lanczos converged:  T threshold:   0.100E-02
     Est. extremal eigenvalues:    0.276E+01   0.181E+00
     Est. condition number :    0.152E+02

 Order=           3
     NS sqrt iter    1 1.00000000   0.704E+00       0.001       60.641
     NS sqrt iter    2 1.00000000   0.327E+00       0.001      103.485
     NS sqrt iter    3 1.00000000   0.740E-01       0.001      103.280
     NS sqrt iter    4 1.00000000   0.178E-02       0.001      103.983
     NS sqrt iter    5 1.00000000   0.517E-07       0.001       67.640
     Symmetrizing Results
     Final NS sqrt iter    5 1.00000000   0.456E-09

     Est. extremal eigenvalues     -0.93631     1.70537  converged:  T
     TRS4 it   1 1.00000000   0.881E+00       0.000       16.128   0.100E-07
     TRS4 it   2 1.00000000   0.619E+00       0.001       32.256   0.100E-07
     TRS4 it   3 1.00000000   0.421E+00       0.001       32.256   0.100E-07
     TRS4 it   4 1.00000000   0.213E+00       0.001       32.256   0.100E-07
     TRS4 it   5 1.00000000   0.678E-01       0.001       32.256   0.100E-07
     TRS4 it   6 1.00000000   0.860E-02       0.001       32.256   0.100E-07
     TRS4 it   7 1.00000000   0.182E-03       0.001       32.256   0.100E-07
     TRS4 it   8 1.00000000   0.113E-06       0.001       32.256   0.100E-07
     TRS4 it   9 1.00000000   0.547E-13       0.001       32.256   0.100E-07
     Final TRS4 iteration    9 1.00000000   0.547E-13
     Chemical potential (mu):       0.01406
 
 PAO| energy:  -7.7921084910621845      penalty:   1.5057870217085888E-005
 PAO|LS| adapt:  T T F
 PAO|LS| adapt: scan_steps:    0.0000000000000000       0.37151361484238032        0.0000000000000000     
 PAO|LS| adapt: energies:   -7.7919852459938443       -7.7921084910621845        0.0000000000000000     
 PAO| ======================= Iteration:        17 =============================

     Lanczos converged:  T threshold:   0.100E-02
     Est. extremal eigenvalues:    0.275E+01   0.182E+00
     Est. condition number :    0.151E+02

 Order=           3
     NS sqrt iter    1 1.00000000   0.702E+00       0.001       62.070
     NS sqrt iter    2 1.00000000   0.326E+00       0.001      101.991
     NS sqrt iter    3 1.00000000   0.734E-01       0.001      103.293
     NS sqrt iter    4 1.00000000   0.172E-02       0.001      102.801
     NS sqrt iter    5 1.00000000   0.468E-07       0.001       67.531
     Symmetrizing Results
     Final NS sqrt iter    5 1.00000000   0.358E-09

     Est. extremal eigenvalues     -0.93622     1.70474  converged:  T
     TRS4 it   1 1.00000000   0.881E+00       0.000       16.128   0.100E-07
     TRS4 it   2 1.00000000   0.618E+00       0.001       32.256   0.100E-07
     TRS4 it   3 1.00000000   0.419E+00       0.001       32.256   0.100E-07
     TRS4 it   4 1.00000000   0.211E+00       0.001       32.256   0.100E-07
     TRS4 it   5 1.00000000   0.666E-01       0.001       32.256   0.100E-07
     TRS4 it   6 1.00000000   0.833E-02       0.001       32.256   0.100E-07
     TRS4 it   7 1.00000000   0.171E-03       0.001       32.256   0.100E-07
     TRS4 it   8 1.00000000   0.102E-06       0.001       32.256   0.100E-07
     TRS4 it   9 1.00000000   0.443E-13       0.001       32.256   0.100E-07
     Final TRS4 iteration    9 1.00000000   0.443E-13
     Chemical potential (mu):       0.01486
 
 PAO| energy:  -7.7905263609444937      penalty:   1.4966045872249992E-005
 PAO|LS| adapt:  T T T
 PAO|LS| adapt: scan_steps:    0.0000000000000000       0.37151361484238032       0.74302722968476065     
 PAO|LS| adapt: energies:   -7.7919852459938443       -7.7921084910621845       -7.7905263609444937     
 PAO|LS| adapt: suggested step_size:   0.21260557432339466     
 PAO|LS| adapt: predicted energy  -7.7922644938002223     
 PAO| ======================= Iteration:        18 =============================

     Lanczos converged:  T threshold:   0.100E-02
     Est. extremal eigenvalues:    0.276E+01   0.181E+00
     Est. condition number :    0.153E+02

 Order=           3
     NS sqrt iter    1 1.00000000   0.705E+00       0.001       61.746
     NS sqrt iter    2 1.00000000   0.328E+00       0.001      101.937
     NS sqrt iter    3 1.00000000   0.743E-01       0.001      102.833
     NS sqrt iter    4 1.00000000   0.180E-02       0.001      106.515
     NS sqrt iter    5 1.00000000   0.540E-07       0.001       68.454
     Symmetrizing Results
     Final NS sqrt iter    5 1.00000000   0.466E-09

     Est. extremal eigenvalues     -0.93632     1.70567  converged:  T
     TRS4 it   1 1.00000000   0.880E+00       0.000       16.128   0.100E-07
     TRS4 it   2 1.00000000   0.620E+00       0.001       32.256   0.100E-07
     TRS4 it   3 1.00000000   0.421E+00       0.001       32.256   0.100E-07
     TRS4 it   4 1.00000000   0.213E+00       0.001       32.256   0.100E-07
     TRS4 it   5 1.00000000   0.683E-01       0.001       32.256   0.100E-07
     TRS4 it   6 1.00000000   0.872E-02       0.001       32.256   0.100E-07
     TRS4 it   7 1.00000000   0.187E-03       0.001       32.256   0.100E-07
     TRS4 it   8 1.00000000   0.119E-06       0.001       32.256   0.100E-07
     TRS4 it   9 1.00000000   0.600E-13       0.001       32.256   0.100E-07
     Final TRS4 iteration    9 1.00000000   0.600E-13
     Chemical potential (mu):       0.01371
 
 PAO| energy:  -7.7922640305311131      penalty:   1.5136291890704963E-005
 PAO|CG| trace_G_new    7.2844769981329641E-004
 PAO|CG| trace_G_prev    2.6267472550281978E-003
 PAO|CG| trace_G_mix    1.5951412995559985E-006
 PAO|CG| trace_D    3.3962034854450934E-003
 PAO|CG| trace_D_Gnew  -1.7321134899159543E-006
 PAO|CG| beta:   0.27671202744092627     
 PAO| norm of gradient:   2.6989770280854492E-002
 PAO| energy improvement:  -2.7878453726870589E-004
 PAO| step     18                   -7.792264031  0.169E-02  0.213E+00     0.056
 PAO|LS| adapt:  T F F
 PAO|LS| adapt: scan_steps:    0.0000000000000000        0.0000000000000000        0.0000000000000000     
 PAO|LS| adapt: energies:   -7.7922640305311131        0.0000000000000000        0.0000000000000000     
 PAO| ======================= Iteration:        19 =============================

     Lanczos converged:  T threshold:   0.100E-02
     Est. extremal eigenvalues:    0.276E+01   0.181E+00
     Est. condition number :    0.153E+02

 Order=           3
     NS sqrt iter    1 1.00000000   0.705E+00       0.001       61.327
     NS sqrt iter    2 1.00000000   0.328E+00       0.001      101.840
     NS sqrt iter    3 1.00000000   0.746E-01       0.001      103.784
     NS sqrt iter    4 1.00000000   0.181E-02       0.001      103.973
     NS sqrt iter    5 1.00000000   0.544E-07       0.001       68.177
     Symmetrizing Results
     Final NS sqrt iter    5 1.00000000   0.463E-09

     Est. extremal eigenvalues     -0.93632     1.70593  converged:  T
     TRS4 it   1 1.00000000   0.881E+00       0.000       16.128   0.100E-07
     TRS4 it   2 1.00000000   0.620E+00       0.001       32.256   0.100E-07
     TRS4 it   3 1.00000000   0.421E+00       0.001       32.256   0.100E-07
     TRS4 it   4 1.00000000   0.213E+00       0.001       32.256   0.100E-07
     TRS4 it   5 1.00000000   0.682E-01       0.001       32.256   0.100E-07
     TRS4 it   6 1.00000000   0.871E-02       0.001       32.256   0.100E-07
     TRS4 it   7 1.00000000   0.187E-03       0.001       32.256   0.100E-07
     TRS4 it   8 1.00000000   0.121E-06       0.001       32.256   0.100E-07
     TRS4 it   9 1.00000000   0.621E-13       0.001       32.256   0.100E-07
     Final TRS4 iteration    9 1.00000000   0.621E-13
     Chemical potential (mu):       0.01344
 
 PAO| energy:  -7.7923822354053280      penalty:   1.4846639839049653E-005
 PAO|LS| adapt:  T T F
 PAO|LS| adapt: scan_steps:    0.0000000000000000       0.21260557432339466        0.0000000000000000     
 PAO|LS| adapt: energies:   -7.7922640305311131       -7.7923822354053280        0.0000000000000000     
 PAO| ======================= Iteration:        20 =============================

     Lanczos converged:  T threshold:   0.100E-02
     Est. extremal eigenvalues:    0.276E+01   0.181E+00
     Est. condition number :    0.153E+02

 Order=           3
     NS sqrt iter    1 1.00000000   0.705E+00       0.001       61.061
     NS sqrt iter    2 1.00000000   0.328E+00       0.001      104.209
     NS sqrt iter    3 1.00000000   0.748E-01       0.001      104.339
     NS sqrt iter    4 1.00000000   0.182E-02       0.001      104.285
     NS sqrt iter    5 1.00000000   0.549E-07       0.001       68.681
     Symmetrizing Results
     Final NS sqrt iter    5 1.00000000   0.471E-09

     Est. extremal eigenvalues     -0.93632     1.70620  converged:  T
     TRS4 it   1 1.00000000   0.881E+00       0.000       16.128   0.100E-07
     TRS4 it   2 1.00000000   0.620E+00       0.001       32.256   0.100E-07
     TRS4 it   3 1.00000000   0.421E+00       0.001       32.256   0.100E-07
     TRS4 it   4 1.00000000   0.213E+00       0.001       32.256   0.100E-07
     TRS4 it   5 1.00000000   0.681E-01       0.001       32.256   0.100E-07
     TRS4 it   6 1.00000000   0.871E-02       0.001       32.256   0.100E-07
     TRS4 it   7 1.00000000   0.188E-03       0.001       32.256   0.100E-07
     TRS4 it   8 1.00000000   0.122E-06       0.001       32.256   0.100E-07
     TRS4 it   9 1.00000000   0.636E-13       0.001       32.256   0.100E-07
     Final TRS4 iteration    9 1.00000000   0.636E-13
     Chemical potential (mu):       0.01316
 
 PAO| energy:  -7.7924265137363742      penalty:   1.4569443416229115E-005
 PAO|LS| adapt:  T T F
 PAO|LS| adapt: scan_steps:    0.0000000000000000       0.42521114864678933        0.0000000000000000     
 PAO|LS| adapt: energies:   -7.7922640305311131       -7.7924265137363742        0.0000000000000000     
 PAO| ======================= Iteration:        21 =============================

     Lanczos converged:  T threshold:   0.100E-02
     Est. extremal eigenvalues:    0.277E+01   0.181E+00
     Est. condition number :    0.153E+02

 Order=           3
     NS sqrt iter    1 1.00000000   0.704E+00       0.001       61.793
     NS sqrt iter    2 1.00000000   0.329E+00       0.001      103.411
     NS sqrt iter    3 1.00000000   0.752E-01       0.001      103.022
     NS sqrt iter    4 1.00000000   0.184E-02       0.001      101.828
     NS sqrt iter    5 1.00000000   0.560E-07       0.001       68.877
     Symmetrizing Results
     Final NS sqrt iter    5 1.00000000   0.491E-09

     Est. extremal eigenvalues     -0.93631     1.70675  converged:  T
     TRS4 it   1 1.00000000   0.881E+00       0.000       16.128   0.100E-07
     TRS4 it   2 1.00000000   0.619E+00       0.001       32.256   0.100E-07
     TRS4 it   3 1.00000000   0.421E+00       0.001       32.256   0.100E-07
     TRS4 it   4 1.00000000   0.213E+00       0.001       32.256   0.100E-07
     TRS4 it   5 1.00000000   0.679E-01       0.001       32.256   0.100E-07
     TRS4 it   6 1.00000000   0.869E-02       0.001       32.256   0.100E-07
     TRS4 it   7 1.00000000   0.189E-03       0.001       32.256   0.100E-07
     TRS4 it   8 1.00000000   0.126E-06       0.001       32.256   0.100E-07
     TRS4 it   9 1.00000000   0.694E-13       0.001       32.256   0.100E-07
     Final TRS4 iteration    9 1.00000000   0.694E-13
     Chemical potential (mu):       0.01261
 
 PAO| energy:  -7.7922908940156450      penalty:   1.4051841255670212E-005
 PAO|LS| Need extra step
 PAO|LS| adapt:  T T T
 PAO|LS| adapt: scan_steps:    0.0000000000000000       0.42521114864678933       0.85042229729357866     
 PAO|LS| adapt: energies:   -7.7922640305311131       -7.7924265137363742       -7.7922908940156450     
 PAO|LS| adapt: suggested step_size:   0.44437005672617641     
 PAO|LS| adapt: predicted energy  -7.7924268163360537     
 PAO| ======================= Iteration:        22 =============================

     Lanczos converged:  T threshold:   0.100E-02
     Est. extremal eigenvalues:    0.276E+01   0.181E+00
     Est. condition number :    0.153E+02

 Order=           3
     NS sqrt iter    1 1.00000000   0.705E+00       0.001       60.930
     NS sqrt iter    2 1.00000000   0.328E+00       0.001      101.591
     NS sqrt iter    3 1.00000000   0.748E-01       0.001      101.777
     NS sqrt iter    4 1.00000000   0.182E-02       0.001      105.998
     NS sqrt iter    5 1.00000000   0.550E-07       0.001       68.341
     Symmetrizing Results
     Final NS sqrt iter    5 1.00000000   0.472E-09

     Est. extremal eigenvalues     -0.93632     1.70623  converged:  T
     TRS4 it   1 1.00000000   0.881E+00       0.000       16.128   0.100E-07
     TRS4 it   2 1.00000000   0.620E+00       0.001       32.256   0.100E-07
     TRS4 it   3 1.00000000   0.421E+00       0.001       32.256   0.100E-07
     TRS4 it   4 1.00000000   0.213E+00       0.001       32.256   0.100E-07
     TRS4 it   5 1.00000000   0.681E-01       0.001       32.256   0.100E-07
     TRS4 it   6 1.00000000   0.871E-02       0.001       32.256   0.100E-07
     TRS4 it   7 1.00000000   0.188E-03       0.001       32.256   0.100E-07
     TRS4 it   8 1.00000000   0.123E-06       0.001       32.256   0.100E-07
     TRS4 it   9 1.00000000   0.644E-13       0.001       32.256   0.100E-07
     Final TRS4 iteration    9 1.00000000   0.644E-13
     Chemical potential (mu):       0.01313
 
 PAO| energy:  -7.7924268522116984      penalty:   1.4545069666394934E-005
 PAO|CG| trace_G_new    2.2211075452355773E-004
 PAO|CG| trace_G_prev    7.2844769981329641E-004
 PAO|CG| trace_G_mix    3.0261488106210280E-006
 PAO|CG| trace_D    9.8945205253164509E-004
 PAO|CG| trace_D_Gnew  -1.8655190261551167E-006
 PAO|CG| beta:   0.30075543620920053     
 PAO| norm of gradient:   1.4903380640765964E-002
 PAO| energy improvement:  -1.6282168058534552E-004
 PAO| step     22                   -7.792426852  0.931E-03  0.444E+00     0.072
 PAO|LS| adapt:  T F F
 PAO|LS| adapt: scan_steps:    0.0000000000000000        0.0000000000000000        0.0000000000000000     
 PAO|LS| adapt: energies:   -7.7924268522116984        0.0000000000000000        0.0000000000000000     
 PAO| ======================= Iteration:        23 =============================

     Lanczos converged:  T threshold:   0.100E-02
     Est. extremal eigenvalues:    0.277E+01   0.181E+00
     Est. condition number :    0.153E+02

 Order=           3
     NS sqrt iter    1 1.00000000   0.705E+00       0.001       61.258
     NS sqrt iter    2 1.00000000   0.328E+00       0.001      103.627
     NS sqrt iter    3 1.00000000   0.748E-01       0.001      103.445
     NS sqrt iter    4 1.00000000   0.182E-02       0.001      102.814
     NS sqrt iter    5 1.00000000   0.550E-07       0.001       68.534
     Symmetrizing Results
     Final NS sqrt iter    5 1.00000000   0.479E-09

     Est. extremal eigenvalues     -0.93632     1.70621  converged:  T
     TRS4 it   1 1.00000000   0.881E+00       0.000       16.128   0.100E-07
     TRS4 it   2 1.00000000   0.620E+00       0.001       32.256   0.100E-07
     TRS4 it   3 1.00000000   0.421E+00       0.001       32.256   0.100E-07
     TRS4 it   4 1.00000000   0.213E+00       0.001       32.256   0.100E-07
     TRS4 it   5 1.00000000   0.682E-01       0.001       32.256   0.100E-07
     TRS4 it   6 1.00000000   0.875E-02       0.001       32.256   0.100E-07
     TRS4 it   7 1.00000000   0.190E-03       0.001       32.256   0.100E-07
     TRS4 it   8 1.00000000   0.126E-06       0.001       32.256   0.100E-07
     TRS4 it   9 1.00000000   0.680E-13       0.001       32.256   0.100E-07
     Final TRS4 iteration    9 1.00000000   0.680E-13
     Chemical potential (mu):       0.01282
 
 PAO| energy:  -7.7924760327527238      penalty:   1.3862446250553702E-005
 PAO|LS| adapt:  T T F
 PAO|LS| adapt: scan_steps:    0.0000000000000000       0.44437005672617641        0.0000000000000000     
 PAO|LS| adapt: energies:   -7.7924268522116984       -7.7924760327527238        0.0000000000000000     
 PAO| ======================= Iteration:        24 =============================

     Lanczos converged:  T threshold:   0.100E-02
     Est. extremal eigenvalues:    0.277E+01   0.181E+00
     Est. condition number :    0.153E+02

 Order=           3
     NS sqrt iter    1 1.00000000   0.705E+00       0.001       60.730
     NS sqrt iter    2 1.00000000   0.329E+00       0.001      104.250
     NS sqrt iter    3 1.00000000   0.749E-01       0.001      102.410
     NS sqrt iter    4 1.00000000   0.182E-02       0.001      102.417
     NS sqrt iter    5 1.00000000   0.551E-07       0.001       68.882
     Symmetrizing Results
     Final NS sqrt iter    5 1.00000000   0.485E-09

     Est. extremal eigenvalues     -0.93631     1.70618  converged:  T
     TRS4 it   1 1.00000000   0.880E+00       0.000       16.128   0.100E-07
     TRS4 it   2 1.00000000   0.620E+00       0.001       32.256   0.100E-07
     TRS4 it   3 1.00000000   0.421E+00       0.001       32.256   0.100E-07
     TRS4 it   4 1.00000000   0.213E+00       0.001       32.256   0.100E-07
     TRS4 it   5 1.00000000   0.683E-01       0.001       32.256   0.100E-07
     TRS4 it   6 1.00000000   0.879E-02       0.001       32.256   0.100E-07
     TRS4 it   7 1.00000000   0.192E-03       0.001       32.256   0.100E-07
     TRS4 it   8 1.00000000   0.129E-06       0.001       32.256   0.100E-07
     TRS4 it   9 1.00000000   0.717E-13       0.001       32.256   0.100E-07
     Final TRS4 iteration    9 1.00000000   0.717E-13
     Chemical potential (mu):       0.01251
 
 PAO| energy:  -7.7924250435026465      penalty:   1.3208124648229395E-005
 PAO|LS| adapt:  T T T
 PAO|LS| adapt: scan_steps:    0.0000000000000000       0.44437005672617641       0.88874011345235282     
 PAO|LS| adapt: energies:   -7.7924268522116984       -7.7924760327527238       -7.7924250435026465     
 PAO|LS| adapt: suggested step_size:   0.44035818780276964     
 PAO|LS| adapt: predicted energy  -7.7924760368350778     
 PAO| ======================= Iteration:        25 =============================

     Lanczos converged:  T threshold:   0.100E-02
     Est. extremal eigenvalues:    0.277E+01   0.181E+00
     Est. condition number :    0.153E+02

 Order=           3
     NS sqrt iter    1 1.00000000   0.705E+00       0.001       61.666
     NS sqrt iter    2 1.00000000   0.328E+00       0.001      103.611
     NS sqrt iter    3 1.00000000   0.748E-01       0.001      103.100
     NS sqrt iter    4 1.00000000   0.182E-02       0.001      103.827
     NS sqrt iter    5 1.00000000   0.550E-07       0.001       70.362
     Symmetrizing Results
     Final NS sqrt iter    5 1.00000000   0.479E-09

     Est. extremal eigenvalues     -0.93632     1.70621  converged:  T
     TRS4 it   1 1.00000000   0.881E+00       0.000       16.128   0.100E-07
     TRS4 it   2 1.00000000   0.620E+00       0.001       32.256   0.100E-07
     TRS4 it   3 1.00000000   0.421E+00       0.001       32.256   0.100E-07
     TRS4 it   4 1.00000000   0.213E+00       0.001       32.256   0.100E-07
     TRS4 it   5 1.00000000   0.682E-01       0.001       32.256   0.100E-07
     TRS4 it   6 1.00000000   0.875E-02       0.001       32.256   0.100E-07
     TRS4 it   7 1.00000000   0.190E-03       0.001       32.256   0.100E-07
     TRS4 it   8 1.00000000   0.126E-06       0.001       32.256   0.100E-07
     TRS4 it   9 1.00000000   0.690E-13       0.001       32.256   0.100E-07
     Final TRS4 iteration    9 1.00000000   0.690E-13
     Chemical potential (mu):       0.01282
 
 PAO| energy:  -7.7924760354051674      penalty:   1.3868481604500320E-005
 PAO|CG| trace_G_new    7.9036148080240270E-005
 PAO|CG| trace_G_prev    2.2211075452355773E-004
 PAO|CG| trace_G_mix    6.9763228038797422E-007
 PAO|CG| trace_D    3.1273261463731432E-004
 PAO|CG| trace_D_Gnew  -3.5642246829358190E-007
 PAO|CG| beta:   0.35270023717623938     
 PAO| norm of gradient:   8.8902276731386513E-003
 PAO| energy improvement:  -4.9183193469026776E-005
 PAO| step     25                   -7.792476035  0.556E-03  0.440E+00     0.055
 PAO|LS| adapt:  T F F
 PAO|LS| adapt: scan_steps:    0.0000000000000000        0.0000000000000000        0.0000000000000000     
 PAO|LS| adapt: energies:   -7.7924760354051674        0.0000000000000000        0.0000000000000000     
 PAO| ======================= Iteration:        26 =============================

     Lanczos converged:  T threshold:   0.100E-02
     Est. extremal eigenvalues:    0.276E+01   0.181E+00
     Est. condition number :    0.153E+02

 Order=           3
     NS sqrt iter    1 1.00000000   0.704E+00       0.001       61.494
     NS sqrt iter    2 1.00000000   0.328E+00       0.001      102.243
     NS sqrt iter    3 1.00000000   0.747E-01       0.001      103.201
     NS sqrt iter    4 1.00000000   0.182E-02       0.001      103.462
     NS sqrt iter    5 1.00000000   0.547E-07       0.001       68.649
     Symmetrizing Results
     Final NS sqrt iter    5 1.00000000   0.476E-09

     Est. extremal eigenvalues     -0.93632     1.70603  converged:  T
     TRS4 it   1 1.00000000   0.881E+00       0.000       16.128   0.100E-07
     TRS4 it   2 1.00000000   0.620E+00       0.001       32.256   0.100E-07
     TRS4 it   3 1.00000000   0.421E+00       0.001       32.256   0.100E-07
     TRS4 it   4 1.00000000   0.213E+00       0.001       32.256   0.100E-07
     TRS4 it   5 1.00000000   0.681E-01       0.001       32.256   0.100E-07
     TRS4 it   6 1.00000000   0.873E-02       0.001       32.256   0.100E-07
     TRS4 it   7 1.00000000   0.189E-03       0.001       32.256   0.100E-07
     TRS4 it   8 1.00000000   0.125E-06       0.001       32.256   0.100E-07
     TRS4 it   9 1.00000000   0.669E-13       0.001       32.256   0.100E-07
     Final TRS4 iteration    9 1.00000000   0.669E-13
     Chemical potential (mu):       0.01294
 
 PAO| energy:  -7.7924799498894028      penalty:   1.3148579101287118E-005
 PAO|LS| adapt:  T T F
 PAO|LS| adapt: scan_steps:    0.0000000000000000       0.44035818780276964        0.0000000000000000     
 PAO|LS| adapt: energies:   -7.7924760354051674       -7.7924799498894028        0.0000000000000000     
 PAO| ======================= Iteration:        27 =============================

     Lanczos converged:  T threshold:   0.100E-02
     Est. extremal eigenvalues:    0.276E+01   0.181E+00
     Est. condition number :    0.153E+02

 Order=           3
     NS sqrt iter    1 1.00000000   0.704E+00       0.001       60.852
     NS sqrt iter    2 1.00000000   0.328E+00       0.001      103.084
     NS sqrt iter    3 1.00000000   0.746E-01       0.001      102.625
     NS sqrt iter    4 1.00000000   0.181E-02       0.001      102.856
     NS sqrt iter    5 1.00000000   0.544E-07       0.001       67.634
     Symmetrizing Results
     Final NS sqrt iter    5 1.00000000   0.486E-09

     Est. extremal eigenvalues     -0.93632     1.70586  converged:  T
     TRS4 it   1 1.00000000   0.881E+00       0.000       16.128   0.100E-07
     TRS4 it   2 1.00000000   0.619E+00       0.001       32.256   0.100E-07
     TRS4 it   3 1.00000000   0.421E+00       0.001       32.256   0.100E-07
     TRS4 it   4 1.00000000   0.213E+00       0.001       32.256   0.100E-07
     TRS4 it   5 1.00000000   0.680E-01       0.001       32.256   0.100E-07
     TRS4 it   6 1.00000000   0.872E-02       0.001       32.256   0.100E-07
     TRS4 it   7 1.00000000   0.189E-03       0.001       32.256   0.100E-07
     TRS4 it   8 1.00000000   0.123E-06       0.001       32.256   0.100E-07
     TRS4 it   9 1.00000000   0.658E-13       0.001       32.256   0.100E-07
     Final TRS4 iteration    9 1.00000000   0.658E-13
     Chemical potential (mu):       0.01304
 
 PAO| energy:  -7.7924218733118273      penalty:   1.2452058479150232E-005
 PAO|LS| adapt:  T T T
 PAO|LS| adapt: scan_steps:    0.0000000000000000       0.44035818780276964       0.88071637560553928     
 PAO|LS| adapt: energies:   -7.7924760354051674       -7.7924799498894028       -7.7924218733118273     
 PAO|LS| adapt: suggested step_size:   0.24798592820519111     
 PAO|LS| adapt: predicted energy  -7.7924858651219155     
 PAO| ======================= Iteration:        28 =============================

     Lanczos converged:  T threshold:   0.100E-02
     Est. extremal eigenvalues:    0.277E+01   0.181E+00
     Est. condition number :    0.153E+02

 Order=           3
     NS sqrt iter    1 1.00000000   0.704E+00       0.001       60.899
     NS sqrt iter    2 1.00000000   0.328E+00       0.001      103.402
     NS sqrt iter    3 1.00000000   0.748E-01       0.001      102.736
     NS sqrt iter    4 1.00000000   0.182E-02       0.001      103.523
     NS sqrt iter    5 1.00000000   0.549E-07       0.001       70.256
     Symmetrizing Results
     Final NS sqrt iter    5 1.00000000   0.477E-09

     Est. extremal eigenvalues     -0.93632     1.70611  converged:  T
     TRS4 it   1 1.00000000   0.881E+00       0.000       16.128   0.100E-07
     TRS4 it   2 1.00000000   0.620E+00       0.001       32.256   0.100E-07
     TRS4 it   3 1.00000000   0.421E+00       0.001       32.256   0.100E-07
     TRS4 it   4 1.00000000   0.213E+00       0.001       32.256   0.100E-07
     TRS4 it   5 1.00000000   0.681E-01       0.001       32.256   0.100E-07
     TRS4 it   6 1.00000000   0.874E-02       0.001       32.256   0.100E-07
     TRS4 it   7 1.00000000   0.190E-03       0.001       32.256   0.100E-07
     TRS4 it   8 1.00000000   0.125E-06       0.001       32.256   0.100E-07
     TRS4 it   9 1.00000000   0.675E-13       0.001       32.256   0.100E-07
     Final TRS4 iteration    9 1.00000000   0.675E-13
     Chemical potential (mu):       0.01289
 
 PAO| energy:  -7.7924858563515862      penalty:   1.3460176793837768E-005
 PAO|CG| trace_G_new    3.0898171008102510E-005
 PAO|CG| trace_G_prev    7.9036148080240270E-005
 PAO|CG| trace_G_mix    4.7336868765351727E-008
 PAO|CG| trace_D    1.1819071073541294E-004
 PAO|CG| trace_D_Gnew  -2.4333936892899984E-008
 PAO|CG| beta:   0.39033828050446367     
 PAO| norm of gradient:   5.5586123275600460E-003
 PAO| energy improvement:  -9.8209464187704043E-006
 PAO| step     28                   -7.792485856  0.347E-03  0.248E+00     0.056
 PAO|LS| adapt:  T F F
 PAO|LS| adapt: scan_steps:    0.0000000000000000        0.0000000000000000        0.0000000000000000     
 PAO|LS| adapt: energies:   -7.7924858563515862        0.0000000000000000        0.0000000000000000     
 PAO| ======================= Iteration:        29 =============================

     Lanczos converged:  T threshold:   0.100E-02
     Est. extremal eigenvalues:    0.276E+01   0.181E+00
     Est. condition number :    0.153E+02

 Order=           3
     NS sqrt iter    1 1.00000000   0.704E+00       0.001       61.124
     NS sqrt iter    2 1.00000000   0.328E+00       0.001      102.862
     NS sqrt iter    3 1.00000000   0.747E-01       0.001      101.975
     NS sqrt iter    4 1.00000000   0.182E-02       0.001      103.223
     NS sqrt iter    5 1.00000000   0.548E-07       0.001       69.514
     Symmetrizing Results
     Final NS sqrt iter    5 1.00000000   0.476E-09

     Est. extremal eigenvalues     -0.93632     1.70610  converged:  T
     TRS4 it   1 1.00000000   0.881E+00       0.000       16.128   0.100E-07
     TRS4 it   2 1.00000000   0.620E+00       0.001       32.256   0.100E-07
     TRS4 it   3 1.00000000   0.421E+00       0.001       32.256   0.100E-07
     TRS4 it   4 1.00000000   0.213E+00       0.001       32.256   0.100E-07
     TRS4 it   5 1.00000000   0.681E-01       0.001       32.256   0.100E-07
     TRS4 it   6 1.00000000   0.872E-02       0.001       32.256   0.100E-07
     TRS4 it   7 1.00000000   0.189E-03       0.001       32.256   0.100E-07
     TRS4 it   8 1.00000000   0.124E-06       0.001       32.256   0.100E-07
     TRS4 it   9 1.00000000   0.653E-13       0.001       32.256   0.100E-07
     Final TRS4 iteration    9 1.00000000   0.653E-13
     Chemical potential (mu):       0.01301
 
 PAO| energy:  -7.7924926148312732      penalty:   1.3033973984078891E-005
 PAO|LS| adapt:  T T F
 PAO|LS| adapt: scan_steps:    0.0000000000000000       0.24798592820519111        0.0000000000000000     
 PAO|LS| adapt: energies:   -7.7924858563515862       -7.7924926148312732        0.0000000000000000     
 PAO| ======================= Iteration:        30 =============================

     Lanczos converged:  T threshold:   0.100E-02
     Est. extremal eigenvalues:    0.276E+01   0.181E+00
     Est. condition number :    0.153E+02

 Order=           3
     NS sqrt iter    1 1.00000000   0.704E+00       0.001       62.169
     NS sqrt iter    2 1.00000000   0.328E+00       0.001      102.982
     NS sqrt iter    3 1.00000000   0.747E-01       0.001      104.272
     NS sqrt iter    4 1.00000000   0.181E-02       0.001      104.217
     NS sqrt iter    5 1.00000000   0.547E-07       0.001       68.405
     Symmetrizing Results
     Final NS sqrt iter    5 1.00000000   0.488E-09

     Est. extremal eigenvalues     -0.93632     1.70608  converged:  T
     TRS4 it   1 1.00000000   0.881E+00       0.000       16.128   0.100E-07
     TRS4 it   2 1.00000000   0.619E+00       0.001       32.256   0.100E-07
     TRS4 it   3 1.00000000   0.421E+00       0.001       32.256   0.100E-07
     TRS4 it   4 1.00000000   0.213E+00       0.001       32.256   0.100E-07
     TRS4 it   5 1.00000000   0.680E-01       0.001       32.256   0.100E-07
     TRS4 it   6 1.00000000   0.870E-02       0.001       32.256   0.100E-07
     TRS4 it   7 1.00000000   0.188E-03       0.001       32.256   0.100E-07
     TRS4 it   8 1.00000000   0.122E-06       0.001       32.256   0.100E-07
     TRS4 it   9 1.00000000   0.642E-13       0.001       32.256   0.100E-07
     Final TRS4 iteration    9 1.00000000   0.642E-13
     Chemical potential (mu):       0.01313
 
 PAO| energy:  -7.7924975637161973      penalty:   1.2615401806730676E-005
 PAO|LS| adapt:  T T F
 PAO|LS| adapt: scan_steps:    0.0000000000000000       0.49597185641038222        0.0000000000000000     
 PAO|LS| adapt: energies:   -7.7924858563515862       -7.7924975637161973        0.0000000000000000     
 PAO| ======================= Iteration:        31 =============================

     Lanczos converged:  T threshold:   0.100E-02
     Est. extremal eigenvalues:    0.276E+01   0.181E+00
     Est. condition number :    0.153E+02

 Order=           3
     NS sqrt iter    1 1.00000000   0.704E+00       0.001       60.827
     NS sqrt iter    2 1.00000000   0.328E+00       0.001      103.212
     NS sqrt iter    3 1.00000000   0.745E-01       0.001      103.261
     NS sqrt iter    4 1.00000000   0.181E-02       0.001      104.118
     NS sqrt iter    5 1.00000000   0.546E-07       0.001       69.129
     Symmetrizing Results
     Final NS sqrt iter    5 1.00000000   0.487E-09

     Est. extremal eigenvalues     -0.93632     1.70605  converged:  T
     TRS4 it   1 1.00000000   0.881E+00       0.000       16.128   0.100E-07
     TRS4 it   2 1.00000000   0.619E+00       0.001       32.256   0.100E-07
     TRS4 it   3 1.00000000   0.421E+00       0.001       32.256   0.100E-07
     TRS4 it   4 1.00000000   0.213E+00       0.001       32.256   0.100E-07
     TRS4 it   5 1.00000000   0.678E-01       0.001       32.256   0.100E-07
     TRS4 it   6 1.00000000   0.866E-02       0.001       32.256   0.100E-07
     TRS4 it   7 1.00000000   0.186E-03       0.001       32.256   0.100E-07
     TRS4 it   8 1.00000000   0.120E-06       0.001       32.256   0.100E-07
     TRS4 it   9 1.00000000   0.615E-13       0.001       32.256   0.100E-07
     Final TRS4 iteration    9 1.00000000   0.615E-13
     Chemical potential (mu):       0.01338
 
 PAO| energy:  -7.7925020192873067      penalty:   1.1800999342126968E-005
 PAO|LS| Need extra step
 PAO|LS| adapt:  T T F
 PAO|LS| adapt: scan_steps:    0.0000000000000000       0.99194371282076443        0.0000000000000000     
 PAO|LS| adapt: energies:   -7.7924858563515862       -7.7925020192873067        0.0000000000000000     
 PAO| ======================= Iteration:        32 =============================

     Lanczos converged:  T threshold:   0.100E-02
     Est. extremal eigenvalues:    0.276E+01   0.181E+00
     Est. condition number :    0.153E+02

 Order=           3
[...]
     Symmetrizing Results
     Final NS sqrt iter    5 1.00000000   0.323E-09

     Est. extremal eigenvalues     -0.93600     1.62741  converged:  T
     TRS4 it   1 1.00000000   0.881E+00       0.000       16.128   0.100E-07
     TRS4 it   2 1.00000000   0.632E+00       0.000       32.256   0.100E-07
     TRS4 it   3 1.00000000   0.453E+00       0.000       32.256   0.100E-07
     TRS4 it   4 1.00000000   0.275E+00       0.000       32.256   0.100E-07
     TRS4 it   5 1.00000000   0.135E+00       0.000       32.256   0.100E-07
     TRS4 it   6 1.00000000   0.411E-01       0.000       32.256   0.100E-07
     TRS4 it   7 1.00000000   0.526E-02       0.000       32.256   0.100E-07
     TRS4 it   8 1.00000000   0.116E-03       0.000       32.256   0.100E-07
     TRS4 it   9 1.00000000   0.607E-07       0.000       32.256   0.100E-07
     Final TRS4 iteration    9 1.00000000   0.607E-07
     Chemical potential (mu):      -0.07222
 
 PAO| energy:  -7.7915422543227351      penalty:   2.7273640997996143E-008
 PAO|CG| warming up with steepest descent
 PAO|CG| beta:    0.0000000000000000     
 PAO| norm of gradient:   1.4096358321476533E-004
 PAO| energy improvement:  -5.8272062730679863E-009
 PAO| step    412                   -7.791542254  0.881E-05  0.262E+00     0.045
 PAO| converged after          412  steps :-)
 PAO| Recalculating energy after mixing.

     Lanczos converged:  T threshold:   0.100E-02
     Est. extremal eigenvalues:    0.249E+01   0.191E+00
     Est. condition number :    0.130E+02

 Order=           3
     NS sqrt iter    1 1.00000000   0.631E+00       0.001       64.512
     NS sqrt iter    2 1.00000000   0.274E+00       0.001      110.592
     NS sqrt iter    3 1.00000000   0.483E-01       0.001      110.592
     NS sqrt iter    4 1.00000000   0.743E-03       0.001      110.592
     NS sqrt iter    5 1.00000000   0.539E-08       0.001       38.144
     Symmetrizing Results
     Final NS sqrt iter    5 1.00000000   0.323E-09

     Est. extremal eigenvalues     -0.93600     1.62741  converged:  T
     TRS4 it   1 1.00000000   0.881E+00       0.000       16.128   0.100E-07
     TRS4 it   2 1.00000000   0.632E+00       0.000       32.256   0.100E-07
     TRS4 it   3 1.00000000   0.453E+00       0.000       32.256   0.100E-07
     TRS4 it   4 1.00000000   0.275E+00       0.000       32.256   0.100E-07
     TRS4 it   5 1.00000000   0.135E+00       0.000       32.256   0.100E-07
     TRS4 it   6 1.00000000   0.411E-01       0.000       32.256   0.100E-07
     TRS4 it   7 1.00000000   0.526E-02       0.000       32.256   0.100E-07
     TRS4 it   8 1.00000000   0.116E-03       0.000       32.256   0.100E-07
     TRS4 it   9 1.00000000   0.607E-07       0.000       32.256   0.100E-07
     Final TRS4 iteration    9 1.00000000   0.607E-07
     Chemical potential (mu):      -0.07222
 
 PAO| energy:  -7.7915422528659146      penalty:   2.7562862125037286E-008
 PAO| Writing restart file.
     Est. extremal eigenvalues     -0.93600     1.62741  converged:  T
     TRS4 it   1 1.00000000   0.881E+00       0.000       16.128   0.100E-07
     TRS4 it   2 1.00000000   0.632E+00       0.000       32.256   0.100E-07
     TRS4 it   3 1.00000000   0.453E+00       0.000       32.256   0.100E-07
     TRS4 it   4 1.00000000   0.275E+00       0.000       32.256   0.100E-07
     TRS4 it   5 1.00000000   0.135E+00       0.000       32.256   0.100E-07
     TRS4 it   6 1.00000000   0.411E-01       0.000       32.256   0.100E-07
     TRS4 it   7 1.00000000   0.526E-02       0.000       32.256   0.100E-07
     TRS4 it   8 1.00000000   0.116E-03       0.000       32.256   0.100E-07
     TRS4 it   9 1.00000000   0.607E-07       0.000       32.256   0.100E-07
     Final TRS4 iteration    9 1.00000000   0.607E-07
     Chemical potential (mu):      -0.07222

 SCF     1       -34.450513024       -34.450513024    0.968014

*********************************************************
 Using MIXING_FRACTION=0.450 to mix KS matrix:  iscf=  2
 KS_nw=0.450*KS + 0.550*KS_old
*********************************************************
     Est. extremal eigenvalues     -0.93601     1.62741  converged:  T
     TRS4 it   1 1.00000000   0.881E+00       0.000       16.128   0.100E-07
     TRS4 it   2 1.00000000   0.632E+00       0.000       32.256   0.100E-07
     TRS4 it   3 1.00000000   0.453E+00       0.000       32.256   0.100E-07
     TRS4 it   4 1.00000000   0.275E+00       0.000       32.256   0.100E-07
     TRS4 it   5 1.00000000   0.135E+00       0.000       32.256   0.100E-07
     TRS4 it   6 1.00000000   0.411E-01       0.000       32.256   0.100E-07
     TRS4 it   7 1.00000000   0.526E-02       0.000       32.256   0.100E-07
     TRS4 it   8 1.00000000   0.116E-03       0.000       32.256   0.100E-07
     TRS4 it   9 1.00000000   0.608E-07       0.000       32.256   0.100E-07
     Final TRS4 iteration    9 1.00000000   0.608E-07
     Chemical potential (mu):      -0.07222

 SCF     2       -34.450513024        -0.000000000    0.958447


 SCF run converged in     2 steps.

 PAO| Storing density matrix for ASPC guess in slot:           1

 ENERGY| Total FORCE_EVAL ( QS ) energy [a.u.]:              -34.450513024495024

 -------------------------------------------------------------------------------
 -                                                                             -
 -                                DBCSR STATISTICS                             -
 -                                                                             -
 -------------------------------------------------------------------------------
 COUNTER                                    TOTAL       BLAS       SMM       ACC
 flops     5 x     5 x     4                20000       0.0%    100.0%      0.0%
 flops    13 x     5 x     4                20800       0.0%    100.0%      0.0%
 flops     5 x    13 x     4                20800       0.0%    100.0%      0.0%
 flops    13 x    13 x     4                40560       0.0%    100.0%      0.0%
 flops     4 x     4 x     5              3237120       0.0%    100.0%      0.0%
 flops     5 x     4 x     5              3955200       0.0%    100.0%      0.0%
 flops     4 x     4 x    13              4208256       0.0%    100.0%      0.0%
 flops    13 x     4 x     5              5141760       0.0%    100.0%      0.0%
 flops     5 x     4 x    13              5141760       0.0%    100.0%      0.0%
 flops     5 x     4 x     4              6532800       0.0%    100.0%      0.0%
 flops    13 x     4 x    13              6684288       0.0%    100.0%      0.0%
 flops    13 x     4 x     4              8760544       0.0%    100.0%      0.0%
 flops     4 x     4 x     4            412588288       0.0%    100.0%      0.0%
 flops inhomo. stacks                           0       0.0%      0.0%      0.0%
 flops total                       456.352176E+06       0.0%    100.0%      0.0%
 flops max/rank                    456.352176E+06       0.0%    100.0%      0.0%
 matmuls inhomo. stacks                         0       0.0%      0.0%      0.0%
 matmuls total                            3360289       0.0%    100.0%      0.0%
 number of processed stacks                 26848       0.0%    100.0%      0.0%
 average stack size                                     0.0     125.2       0.0
 marketing flops                   740.703360E+06
 -------------------------------------------------------------------------------
 # multiplications                          22317
 max memory usage/rank             506.609664E+06
 # max total images/rank                        1
 # max 3D layers                                1
 # MPI messages exchanged                       0
 -------------------------------------------------------------------------------

 -------------------------------------------------------------------------------
 -                                                                             -
 -                                DBM STATISTICS                               -
 -                                                                             -
 -------------------------------------------------------------------------------
    M  x    N  x    K                                          COUNT     PERCENT
 -------------------------------------------------------------------------------

 -------------------------------------------------------------------------------
 -                                                                             -
 -                                GRID STATISTICS                              -
 -                                                                             -
 -------------------------------------------------------------------------------
 LP    KERNEL             BACKEND                              COUNT     PERCENT
 2     collocate ortho    REF                                  38220      30.75%
 2     integrate ortho    REF                                  38220      30.75%
 3     collocate ortho    REF                                  19660      15.82%
 3     integrate ortho    REF                                  19660      15.82%
 4     collocate ortho    REF                                   4270       3.44%
 4     integrate ortho    REF                                   4270       3.44%
 0     collocate general  REF                                      6       0.00%
 -------------------------------------------------------------------------------

 MEMORY| Estimated peak process memory [MiB]                                 484

 -------------------------------------------------------------------------------
 -                                                                             -
 -                           R E F E R E N C E S                               -
 -                                                                             -
 -------------------------------------------------------------------------------
 
 CP2K version 2023.1 (Development Version), the CP2K developers group (2023).
 CP2K is freely available from https://www.cp2k.org/ .

 Kuehne,Thomas D.; Iannuzzi,Marcella; Del Ben,Mauro;
 Rybkin,Vladimir V.; Seewald,Patrick; Stein,Frederick; Laino,Teodoro;
 Khaliullin,Rustam Z.; Schuett,Ole; Schiffmann,Florian; Golze,Dorothea;
 Wilhelm,Jan; Chulkov,Sergey; Bani-Hashemian,Mohammad Hossein;
 Weber,Valery; Borstnik,Urban; Taillefumier,Mathieu;
 Jakobovits,Alice Shoshana; Lazzaro,Alfio; Pabst,Hans; Mueller,Tiziano;
 Schade,Robert; Guidon,Manuel; Andermatt,Samuel; Holmberg,Nico;
 Schenter,Gregory K.; Hehn,Anna; Bussy,Augustin; Belleflamme,Fabian;
 Tabacchi,Gloria; Gloess,Andreas; Lass,Michael; Bethune,Iain;
 Mundy,Christopher J.; Plessl,Christian; Watkins,Matt;
 VandeVondele,Joost; Krack,Matthias; Hutter,Juerg. 
 The Journal of Chemical Physics, 152 (19), (2020). 
 CP2K: An electronic structure and molecular dynamics software package -
 Quickstep: Efficient and accurate electronic structure calculations.
 https://doi.org/10.1063/5.0007045

 Schuett, O; VandeVondele, J. 
 Journal of Chemical Theory and Computation, 14, (2018). 
 Machine Learning Adaptive Basis Sets for Efficient Large Scale
 Density Functional Theory Simulation.
 https://doi.org/10.1021/acs.jctc.8b00378

 Schuett, Ole; Messmer, Peter; Hutter, Juerg; VandeVondele, Joost. 
 Electronic Structure Calculations on Graphics Processing Units, John
 Wiley & Sons, Ltd, 173-190 (2016). 
 GPU-Accelerated Sparse Matrix-Matrix Multiplication for
 Linear Scaling Density Functional Theory.
 https://doi.org/10.1002/9781118670712.ch8

 Heinecke, A; Henry, G; Hutchinson, M; Pabst, H. 
 Proceedings of Intl. Supercomputing Conference, 981-991 (2016). 
 LIBXSMM: Accelerating Small Matrix Multiplications
 by Runtime Code Generation.
 https://doi.org/10.1109/SC.2016.83

 Borstnik, U; VandeVondele, J; Weber, V; Hutter, J. 
 PARALLEL COMPUTING, 40 (5-6), 47-58 (2014). 
 Sparse matrix multiplication: The distributed block-compressed sparse
 row library.
 https://doi.org/10.1016/j.parco.2014.03.012

 Hutter, J; Iannuzzi, M; Schiffmann, F; VandeVondele, J. 
 WIREs Comput Mol Sci., 4 (1), 15-25 (2014). 
 CP2K: atomistic simulations of condensed matter systems.
 https://doi.org/10.1002/wcms.1159

 VandeVondele, J; Borstnik, U; Hutter, J. 
 JOURNAL OF CHEMICAL THEORY AND COMPUTATION, 8 (10), 3565-3573 (2012). 
 Linear Scaling Self-Consistent Field Calculations with Millions of Atoms
 in the Condensed Phase.
 https://doi.org/10.1021/ct200897x

 VandeVondele, J; Hutter, J. 
 JOURNAL OF CHEMICAL PHYSICS, 127 (11), 114105 (2007). 
 Gaussian basis sets for accurate calculations on molecular systems in
 gas and condensed phases.
 https://doi.org/10.1063/1.2770708

 Krack, M. 
 THEORETICAL CHEMISTRY ACCOUNTS, 114 (1-3), 145-152 (2005). 
 Pseudopotentials for H to Kr optimized for gradient-corrected
 exchange-correlation functionals.
 https://doi.org/10.1007/s00214-005-0655-y

 VandeVondele, J; Krack, M; Mohamed, F; Parrinello, M; Chassaing, T;
 Hutter, J. COMPUTER PHYSICS COMMUNICATIONS, 167 (2), 103-128 (2005). 
 QUICKSTEP: Fast and accurate density functional calculations using a
 mixed Gaussian and plane waves approach.
 https://doi.org/10.1016/j.cpc.2004.12.014

 Frigo, M; Johnson, SG. 
 PROCEEDINGS OF THE IEEE, 93 (2), 216-231 (2005). 
 The design and implementation of FFTW3.
 https://doi.org/10.1109/JPROC.2004.840301

 Niklasson, AMN; Tymczak, CJ; Challacombe, M. 
 JOURNAL OF CHEMICAL PHYSICS, 118 (19), 8611-8620 (2003). 
 Trace resetting density matrix purification in O(N)
 self-consistent-field theory.
 https://doi.org/10.1063/1.1559913

 Hartwigsen, C; Goedecker, S; Hutter, J. 
 PHYSICAL REVIEW B, 58 (7), 3641-3662 (1998). 
 Relativistic separable dual-space Gaussian pseudopotentials from H to Rn.
 https://doi.org/10.1103/PhysRevB.58.3641

 Lippert, G; Hutter, J; Parrinello, M. 
 MOLECULAR PHYSICS, 92 (3), 477-487 (1997). 
 A hybrid Gaussian and plane wave density functional scheme.
 https://doi.org/10.1080/002689797170220

 Perdew, JP; Burke, K; Ernzerhof, M. 
 PHYSICAL REVIEW LETTERS, 77 (18), 3865-3868 (1996). 
 Generalized gradient approximation made simple.
 https://doi.org/10.1103/PhysRevLett.77.3865

 Goedecker, S; Teter, M; Hutter, J. 
 PHYSICAL REVIEW B, 54 (3), 1703-1710 (1996). 
 Separable dual-space Gaussian pseudopotentials.
 https://doi.org/10.1103/PhysRevB.54.1703


 -------------------------------------------------------------------------------
 -                                                                             -
 -                                T I M I N G                                  -
 -                                                                             -
 -------------------------------------------------------------------------------
 SUBROUTINE                       CALLS  ASD         SELF TIME        TOTAL TIME
                                MAXIMUM       AVERAGE  MAXIMUM  AVERAGE  MAXIMUM
 CP2K                                 1  1.0    0.009    0.009   28.203   28.203
 qs_energies                          1  2.0    0.000    0.000   27.738   27.738
 ls_scf                               1  3.0    0.000    0.000   27.637   27.637
 ls_scf_main                          4  4.0    0.001    0.001   16.930   16.930
 ls_scf_dm_to_ks                      9  5.0    0.000    0.000   16.846   16.846
 qs_ks_update_qs_env                 10  6.0    0.000    0.000   13.548   13.548
 rebuild_ks_matrix                   10  7.0    0.000    0.000   13.547   13.547
 qs_ks_build_kohn_sham_matrix        10  8.0    0.002    0.002   13.547   13.547
 pao_update                           4  4.0    0.010    0.010    8.017    8.017
 qs_vxc_create                       10  9.0    0.000    0.000    7.675    7.675
 xc_vxc_pw_create                    10 10.0    0.112    0.112    7.675    7.675
 pao_calc_energy                    415  5.0    0.004    0.004    7.232    7.232
 pw_transfer                        191 11.1    0.018    0.018    6.794    6.794
 fft_wrap_pw1pw2                    171 12.3    0.003    0.003    6.626    6.626
 fft_wrap_pw1pw2_200                111 13.7    0.536    0.536    6.382    6.382
 qs_rho_update_rho_low               10  6.0    0.000    0.000    5.944    5.944
 calculate_rho_elec                  10  7.0    0.039    0.039    5.944    5.944
 dbcsr_multiply_generic           22317  8.4    0.358    0.358    5.682    5.682
 xc_rho_set_and_dset_create          10 11.0    0.152    0.152    5.183    5.183
 sum_up_and_integrate                10  9.0    0.072    0.072    4.643    4.643
 integrate_v_rspace                  10 10.0    0.001    0.001    4.571    4.571
 xc_pw_derive                        60 12.0    0.001    0.001    4.217    4.217
 grid_integrate_task_list            10 11.0    3.976    3.976    3.976    3.976
 grid_collocate_task_list            10  8.0    3.908    3.908    3.908    3.908
 pao_dm_trs4                        415  6.0    0.004    0.004    3.740    3.740
 density_matrix_trs4                424  7.0    0.125    0.125    3.590    3.590
 ls_scf_init_matrix_S               419  7.0    0.004    0.004    3.455    3.455
 pao_rebuild_S                      415  6.0    0.002    0.002    3.430    3.430
 matrix_sqrt_Newton_Schulz          419  8.0    0.095    0.095    3.111    3.111
 fft3d_s                            172 14.2    3.002    3.002    3.032    3.032
 pao_guess_initial_P                  1  4.0    0.000    0.000    2.651    2.651
 pao_read_preopt_dm                   1  5.0    0.000    0.000    2.651    2.651
 xc_functional_eval                  10 12.0    0.000    0.000    2.383    2.383
 pbe_lda_eval                        10 13.0    2.383    2.383    2.383    2.383
 xc_pw_divergence                    10 11.0    0.000    0.000    2.313    2.313
 make_m2s                         44634  9.4    0.136    0.136    2.135    2.135
 multiply_cannon                  22317  9.4    0.877    0.877    2.126    2.126
 density_rs2pw                       10  8.0    0.001    0.001    1.997    1.997
 make_images                      44634 10.4    0.524    0.524    1.891    1.891
 pw_scatter_s                        90 14.7    1.595    1.595    1.595    1.595
 pw_gather_s                         81 13.8    1.438    1.438    1.438    1.438
 arnoldi_extremal                   843  8.5    0.004    0.004    1.175    1.175
 arnoldi_normal_ev                  843  9.5    0.013    0.013    1.171    1.171
 build_subspace                     843 10.5    0.049    0.049    0.897    0.897
 dbcsr_matrix_vector_mult         20221 11.5    0.097    0.097    0.835    0.835
 pao_calc_AB                        547  5.8    0.001    0.001    0.782    0.782
 pao_calc_AB_equi                   547  6.8    0.029    0.029    0.781    0.781
 pw_derive                           60 13.0    0.730    0.730    0.730    0.730
 pao_calc_grad_lnv_wrt_AB           131  7.0    0.006    0.006    0.692    0.692
 dbcsr_finalize                   53396  9.6    0.123    0.123    0.625    0.625
 dbcsr_create_new                171405 10.7    0.377    0.377    0.601    0.601
 potential_pw2rs                     10 11.0    0.002    0.002    0.595    0.595
 pw_copy                            120 11.8    0.578    0.578    0.578    0.578
 multiply_cannon_loop             22317 10.4    0.072    0.072    0.568    0.568
 -------------------------------------------------------------------------------

 The number of warnings for this run is : 0
 
 -------------------------------------------------------------------------------
  **** **** ******  **  PROGRAM ENDED AT                 2023-02-01 10:45:48.149
 ***** ** ***  *** **   PROGRAM RAN ON                                    moritz
 **    ****   ******    PROGRAM RAN BY                                       ole
 ***** **    ** ** **   PROGRAM PROCESS ID                                148615
  **** **  *******  **  PROGRAM STOPPED IN /home/ole/git/pao_ml_equivar/2H2O_rot
                                           ations/phi_32
