 DBCSR| CPU Multiplication driver                                           XSMM (U)
 DBCSR| Multrec recursion limit                                              512 (U)
 DBCSR| Multiplication stack size                                           1000 (D)
 DBCSR| Maximum elements for images                                    UNLIMITED (U)
 DBCSR| Multiplicative factor virtual images                                   1 (U)
 DBCSR| Use multiplication densification                                       T (D)
 DBCSR| Multiplication size stacks                                             3 (U)
 DBCSR| Use memory pool for CPU allocation                                     F (U)
 DBCSR| OMP: Current number of threads                                         1
 DBCSR| OMP: Max number of threads                                             1
 DBCSR| Split modifier for TAS multiplication algorithm                  1.0E+00 (U)


  **** **** ******  **  PROGRAM STARTED AT               2023-02-01 10:43:54.931
 ***** ** ***  *** **   PROGRAM STARTED ON                                moritz
 **    ****   ******    PROGRAM STARTED BY                                   ole
 ***** **    ** ** **   PROGRAM PROCESS ID                                148504
  **** **  *******  **  PROGRAM STARTED IN /home/ole/git/pao_ml_equivar/2H2O_rot
                                           ations/rand_08

 CP2K| version string:                 CP2K version 2023.1 (Development Version)
 CP2K| source code revision number:                                  git:03b4147
 CP2K| cp2kflags: omp libint fftw3 libxc quip xsmm spglib libvori libbqb libtorc
 CP2K|            h
 CP2K| is freely available from                            https://www.cp2k.org/
 CP2K| Program compiled at                           Mi 01 Feb 2023 10:36:52 CET
 CP2K| Program compiled on                                                moritz
 CP2K| Program compiled for                                                local
 CP2K| Data directory path                               /home/ole/git/cp2k/data
 CP2K| Input file name                                            2H2O_pao44.inp

 GLOBAL| Force Environment number                                              1
 GLOBAL| Basis set file name                                        BASIS_MOLOPT
 GLOBAL| Potential file name                                      GTH_POTENTIALS
 GLOBAL| MM Potential file name                                     MM_POTENTIAL
 GLOBAL| Coordinate file name                                         coords.xyz
 GLOBAL| Method name                                                        CP2K
 GLOBAL| Project name                                                 2H2O_pao44
 GLOBAL| Run type                                                         ENERGY
 GLOBAL| FFT library                                                       FFTW3
 GLOBAL| Diagonalization library                                       ScaLAPACK
 GLOBAL| DGEMM library                                                      BLAS
 GLOBAL| Orthonormality check for eigenvectors                          DISABLED
 GLOBAL| Matrix multiplication library                                 ScaLAPACK
 GLOBAL| All-to-all communication in single precision                          F
 GLOBAL| FFTs using library dependent lengths                                  F
 GLOBAL| Grid backend                                                       AUTO
 GLOBAL| Global print level                                                  LOW
 GLOBAL| MPI I/O enabled                                                       T
 GLOBAL| Total number of message passing processes                             1
 GLOBAL| Number of threads for this process                                    1
 GLOBAL| This output is from process                                           0
 GLOBAL| Stack size for threads created by OpenMP (OMP_STACKSIZE)        default
 GLOBAL| CPU model name           AMD Ryzen Threadripper 3970X 32-Core Processor
 GLOBAL| CPUID                                                              1002
 GLOBAL| Compiled for CPUID                                                    0

 *** HINT in environment.F:884 :: The compiler target flags (generic) used ***
 *** to build this binary cannot exploit all extensions of this CPU model  ***
 *** (x86_avx2). Consider compiler target flags as part of FCFLAGS and     ***
 *** CFLAGS (ARCH file).                                                   ***


 MEMORY| system memory details [Kb]
 MEMORY|                        rank 0           min           max       average
 MEMORY| MemTotal            131773860     131773860     131773860     131773860
 MEMORY| MemFree             115344536     115344536     115344536     115344536
 MEMORY| Buffers                301492        301492        301492        301492
 MEMORY| Cached                7000768       7000768       7000768       7000768
 MEMORY| Slab                   776600        776600        776600        776600
 MEMORY| SReclaimable           330700        330700        330700        330700
 MEMORY| MemLikelyFree       122977496     122977496     122977496     122977496


 GENERATE|  Preliminary Number of Bonds generated:                             0
 GENERATE|  Achieved consistency in connectivity generation.

 *******************************************************************************
 *******************************************************************************
 **                                                                           **
 **     #####                         ##              ##                      **
 **    ##   ##            ##          ##              ##                      **
 **   ##     ##                       ##            ######                    **
 **   ##     ##  ##   ##  ##   #####  ##  ##   ####   ##    #####    #####    **
 **   ##     ##  ##   ##  ##  ##      ## ##   ##      ##   ##   ##  ##   ##   **
 **   ##  ## ##  ##   ##  ##  ##      ####     ###    ##   ######   ######    **
 **    ##  ###   ##   ##  ##  ##      ## ##      ##   ##   ##       ##        **
 **     #######   #####   ##   #####  ##  ##  ####    ##    #####   ##        **
 **           ##                                                    ##        **
 **                                                                           **
 **                                                ... make the atoms dance   **
 **                                                                           **
 **            Copyright (C) by CP2K developers group (2000-2023)             **
 **                      J. Chem. Phys. 152, 194103 (2020)                    **
 **                                                                           **
 *******************************************************************************


 TOTAL NUMBERS AND MAXIMUM NUMBERS

  Total number of            - Atomic kinds:                                   2
                             - Atoms:                                          6
                             - Shell sets:                                     6
                             - Shells:                                        22
                             - Primitive Cartesian functions:                 42
                             - Cartesian basis functions:                     48
                             - Spherical basis functions:                     46

  Maximum angular momentum of- Orbital basis functions:                        2
                             - Local part of the GTH pseudopotential:          2
                             - Non-local part of the GTH pseudopotential:      0

 ------------------------------ Linear scaling SCF -----------------------------
 eps_scf:                                                              0.100E-07
 eps_filter:                                                           0.100E-07
 mixing_fraction:                                                      0.450E+00
 max_scf:                                                                     25
 fixed chemical potential (mu)                                                 F
 has unit metric:                                                              F
 Computing inv(S):                                                             T
 Computing sqrt(S):                                                            T
 Computing S preconditioner                                                    F
 S sqrt method:                                                     NEWTONSCHULZ
 S sqrt order:                                                                 3
 Extrapolation order:                                                          1
 Use single precision matrices                                                 F
 S preconditioner type                                                      NONE
 Polarized Atomic Orbitals (PAO)                                               T
 Purification method                                   Trace resetting 4th order
 Cluster type                                                             ATOMIC
 Computing Chebyshev                                                       FALSE
 Using PAO                                                                     T
 -------------------------------------------------------------------------------

 
 PAO|                                  EPS_PAO                           0.1E-04
 PAO|                                  MIXING                            0.5E+00
 PAO|                                  MAX_PAO                              1000
 PAO|                                  MAX_CYCLES                           1000
 PAO|                                  PARAMETERIZATION              EQUIVARIANT
 PAO|                                  PRECONDITION                            F
 PAO|                                  REGULARIZATION                    0.0E+00
 PAO|                                  EPS_PGF                           0.1E-09
 PAO|                                  PENALTY_DISTANCE                  0.1E+00
 PAO|                                  PENALTY_STRENGTH                  0.5E-02
 PAO|                                  LINPOT_PRECONDITION_DELTA         0.0E+00
 PAO|                                  LINPOT_INITGUESS_DELT             0.0E+00
 PAO|                                  LINPOT_REGULARIZATION_DELTA       0.0E+00
 PAO|                                  LINPOT_REGULARIZATION_STRENGTH    0.0E+00
 PAO|                                  OPTIMIZER                              CG
 PAO|                                  CG_INIT_STEPS                           2
 PAO|                                  CG_RESET_LIMIT                    0.1E+00
 PAO|                                  CHECK_UNITARY_TOL                -0.1E+01
 PAO|                                  CHECK_GRADIENT_TOL               -0.1E+01
 PAO|                                  NUM_GRADIENT_ORDER                      2
 PAO|                                  NUM_GRADIENT_EPS                  0.1E-07
 PAO|                                  PRINT%RESTART%WRITE_CYCLES            100
 PAO|                                  RESTART_FILE 
 PAO|                                  PREOPT_DM_FILE 2H2O_ref_LS_DM_SPIN_1_RESTART.dm
 PAO|                                  MACHINE_LEARNING%METHOD       GAUSSIAN_PR
 PAO|                                  MACHINE_LEARNING%PRIOR               ZERO
 PAO|                                  MACHINE_LEARNING%DESCRIPTOR     POTENTIAL
 PAO|                                  MACHINE_LEARNING%TOLERANCE        0.1E-01
 PAO|                                  MACHINE_LEARNING%GP_NOISE_VAR     0.1E+00
 PAO|                                  MACHINE_LEARNING%GP_SCALE         0.5E-01
 

 Calculating atomic Fock matrix for atomic kind: O

 Electronic structure
    Total number of core electrons                                          2.00
    Total number of valence electrons                                       6.00
    Total number of electrons                                               8.00
    Multiplicity                                                   not specified
    S   [  2.00] 2.00
    P      4.00


 *******************************************************************************
                  Iteration          Convergence                     Energy [au]
 *******************************************************************************
                          1        0.708315                     -15.576645311500
                          2        0.608879                     -15.587933561584
                          3        0.102828E-01                 -15.656849565404
                          4        0.113889E-02                 -15.656866888140
                          5        0.434197E-03                 -15.656867072159
                          6        0.263771E-03                 -15.656867091904
                          7        0.478536E-06                 -15.656867103452

 Energy components [Hartree]           Total Energy ::          -15.656867103452
                                        Band Energy ::           -3.000198112285
                                     Kinetic Energy ::           11.759971203220
                                   Potential Energy ::          -27.416838306672
                                      Virial (-V/T) ::            2.331369510426
                                        Core Energy ::          -26.140716385623
                                          XC Energy ::           -3.154051012914
                                     Coulomb Energy ::           13.637900295084
                       Total Pseudopotential Energy ::          -37.935781716540
                       Local Pseudopotential Energy ::          -39.218907440693
                    Nonlocal Pseudopotential Energy ::            1.283125724153
                                        Confinement ::            0.350941276976

 Orbital energies  State     L     Occupation   Energy[a.u.]          Energy[eV]

                       1     0          2.000      -0.864471          -23.523463

                       1     1          4.000      -0.317814           -8.648154


 Total Electron Density at R=0:                                         0.000068

 Calculating atomic Fock matrix for atomic kind: H

 Electronic structure
    Total number of core electrons                                          0.00
    Total number of valence electrons                                       1.00
    Total number of electrons                                               1.00
    Multiplicity                                                   not specified
    S      1.00


 *******************************************************************************
                  Iteration          Convergence                     Energy [au]
 *******************************************************************************
                          1        0.437545E-02                  -0.424159432110
                          2        0.531356E-03                  -0.424178438213
                          3        0.259176E-06                  -0.424178722480

 Energy components [Hartree]           Total Energy ::           -0.424178722480
                                        Band Energy ::           -0.199015229016
                                     Kinetic Energy ::            0.464007633961
                                   Potential Energy ::           -0.888186356441
                                      Virial (-V/T) ::            1.914163240935
                                        Core Energy ::           -0.479160803564
                                          XC Energy ::           -0.244352904054
                                     Coulomb Energy ::            0.299334985138
                       Total Pseudopotential Energy ::           -0.962295316385
                       Local Pseudopotential Energy ::           -0.962295316385
                    Nonlocal Pseudopotential Energy ::            0.000000000000
                                        Confinement ::            0.191268788606

 Orbital energies  State     L     Occupation   Energy[a.u.]          Energy[eV]

                       1     0          1.000      -0.199015           -5.415480


 Total Electron Density at R=0:                                         0.242907
 PAO| Made initial guess for matrix_X with norm:   4.8989794855663558     

     Lanczos converged:  T threshold:   0.100E-02
     Est. extremal eigenvalues:    0.337E+01   0.114E+00
     Est. condition number :    0.296E+02

 Order=           3
     NS sqrt iter    1 1.00000000   0.823E+00       0.001       56.789
     NS sqrt iter    2 1.00000000   0.440E+00       0.001      109.721
     NS sqrt iter    3 1.00000000   0.171E+00       0.001      110.592
     NS sqrt iter    4 1.00000000   0.207E-01       0.001      110.592
     NS sqrt iter    5 1.00000000   0.548E-04       0.001       92.800
     Symmetrizing Results
     Final NS sqrt iter    5 1.00000000   0.258E-08

 PAO| Read restart DM 2H2O_ref_LS_DM_SPIN_1_RESTART.dm with checksum:    70.451156931097955     
 PAO| Quickstep energy from restart density:  -34.450368179600041     
 PAO| ======================= Iteration:         1 =============================

     Lanczos converged:  T threshold:   0.100E-02
     Est. extremal eigenvalues:    0.337E+01   0.114E+00
     Est. condition number :    0.296E+02

 Order=           3
     NS sqrt iter    1 1.00000000   0.823E+00       0.001       56.468
     NS sqrt iter    2 1.00000000   0.440E+00       0.001      102.045
     NS sqrt iter    3 1.00000000   0.171E+00       0.001      105.749
     NS sqrt iter    4 1.00000000   0.207E-01       0.001      101.021
     NS sqrt iter    5 1.00000000   0.548E-04       0.001       87.933
     Symmetrizing Results
     Final NS sqrt iter    5 1.00000000   0.258E-08

     Est. extremal eigenvalues     -0.91877     1.89094  converged:  T
     TRS4 it   1 1.00000000   0.891E+00       0.000       16.128   0.100E-07
     TRS4 it   2 1.00000000   0.694E+00       0.001       32.256   0.100E-07
     TRS4 it   3 1.00000000   0.499E+00       0.001       32.256   0.100E-07
     TRS4 it   4 1.00000000   0.312E+00       0.001       32.256   0.100E-07
     TRS4 it   5 1.00000000   0.155E+00       0.001       32.256   0.100E-07
     TRS4 it   6 1.00000000   0.484E-01       0.001       32.256   0.100E-07
     TRS4 it   7 1.00000000   0.652E-02       0.001       32.256   0.100E-07
     TRS4 it   8 1.00000000   0.167E-03       0.001       32.256   0.100E-07
     TRS4 it   9 1.00000000   0.125E-06       0.001       32.256   0.100E-07
     TRS4 it  10 1.00000000   0.704E-13       0.001       32.256   0.100E-07
     Final TRS4 iteration   10 1.00000000   0.704E-13
     Chemical potential (mu):      -0.06253
 
 PAO| energy:  -7.6016505766571960      penalty:   3.3896367021215347E-033
 PAO|CG| warming up with steepest descent
 PAO|CG| beta:    0.0000000000000000     
 PAO| norm of gradient:  0.78391065835772922     
 PAO|LS| adapt:  T F F
 PAO|LS| adapt: scan_steps:    0.0000000000000000        0.0000000000000000        0.0000000000000000     
 PAO|LS| adapt: energies:   -7.6016505766571960        0.0000000000000000        0.0000000000000000     
 PAO| ======================= Iteration:         2 =============================

     Lanczos converged:  T threshold:   0.100E-02
     Est. extremal eigenvalues:    0.328E+01   0.126E+00
     Est. condition number :    0.260E+02

 Order=           3
     NS sqrt iter    1 1.00000000   0.806E+00       0.001       61.294
     NS sqrt iter    2 1.00000000   0.424E+00       0.001      106.713
     NS sqrt iter    3 1.00000000   0.153E+00       0.001      105.167
     NS sqrt iter    4 1.00000000   0.143E-01       0.001      102.587
     NS sqrt iter    5 1.00000000   0.178E-04       0.001       81.765
     Symmetrizing Results
     Final NS sqrt iter    5 1.00000000   0.483E-09

     Est. extremal eigenvalues     -0.92244     1.83650  converged:  T
     TRS4 it   1 1.00000000   0.888E+00       0.000       16.128   0.100E-07
     TRS4 it   2 1.00000000   0.675E+00       0.001       32.256   0.100E-07
     TRS4 it   3 1.00000000   0.483E+00       0.001       32.256   0.100E-07
     TRS4 it   4 1.00000000   0.292E+00       0.001       32.256   0.100E-07
     TRS4 it   5 1.00000000   0.136E+00       0.001       32.256   0.100E-07
     TRS4 it   6 1.00000000   0.372E-01       0.001       32.256   0.100E-07
     TRS4 it   7 1.00000000   0.391E-02       0.001       32.256   0.100E-07
     TRS4 it   8 1.00000000   0.609E-04       0.001       32.256   0.100E-07
     TRS4 it   9 1.00000000   0.165E-07       0.001       32.256   0.100E-07
     Final TRS4 iteration    9 1.00000000   0.165E-07
     Chemical potential (mu):      -0.05065
 
 PAO| energy:  -7.6572000697869722      penalty:   2.2566065606284339E-008
 PAO|LS| adapt:  T T F
 PAO|LS| adapt: scan_steps:    0.0000000000000000       0.10000000000000001        0.0000000000000000     
 PAO|LS| adapt: energies:   -7.6016505766571960       -7.6572000697869722        0.0000000000000000     
 PAO| ======================= Iteration:         3 =============================

     Lanczos converged:  T threshold:   0.100E-02
     Est. extremal eigenvalues:    0.319E+01   0.138E+00
     Est. condition number :    0.232E+02

 Order=           3
     NS sqrt iter    1 1.00000000   0.788E+00       0.001       61.385
     NS sqrt iter    2 1.00000000   0.408E+00       0.001      103.815
     NS sqrt iter    3 1.00000000   0.136E+00       0.001      103.347
     NS sqrt iter    4 1.00000000   0.987E-02       0.001      105.895
     NS sqrt iter    5 1.00000000   0.607E-05       0.001       82.601
     Symmetrizing Results
     Final NS sqrt iter    5 1.00000000   0.566E-10

     Est. extremal eigenvalues     -0.92587     1.79264  converged:  T
     TRS4 it   1 1.00000000   0.885E+00       0.000       16.128   0.100E-07
     TRS4 it   2 1.00000000   0.659E+00       0.001       32.256   0.100E-07
     TRS4 it   3 1.00000000   0.467E+00       0.001       32.256   0.100E-07
     TRS4 it   4 1.00000000   0.272E+00       0.001       32.256   0.100E-07
     TRS4 it   5 1.00000000   0.117E+00       0.001       32.256   0.100E-07
     TRS4 it   6 1.00000000   0.278E-01       0.001       32.256   0.100E-07
     TRS4 it   7 1.00000000   0.218E-02       0.001       32.256   0.100E-07
     TRS4 it   8 1.00000000   0.189E-04       0.001       32.256   0.100E-07
     TRS4 it   9 1.00000000   0.160E-08       0.001       32.256   0.100E-07
     Final TRS4 iteration    9 1.00000000   0.160E-08
     Chemical potential (mu):      -0.03782
 
 PAO| energy:  -7.7002864635778847      penalty:   3.6105715755882923E-007
 PAO|LS| adapt:  T T F
 PAO|LS| adapt: scan_steps:    0.0000000000000000       0.20000000000000001        0.0000000000000000     
 PAO|LS| adapt: energies:   -7.6016505766571960       -7.7002864635778847        0.0000000000000000     
 PAO| ======================= Iteration:         4 =============================

     Lanczos converged:  T threshold:   0.100E-02
     Est. extremal eigenvalues:    0.299E+01   0.156E+00
     Est. condition number :    0.192E+02

 Order=           3
     NS sqrt iter    1 1.00000000   0.750E+00       0.001       58.427
     NS sqrt iter    2 1.00000000   0.373E+00       0.001      101.674
     NS sqrt iter    3 1.00000000   0.106E+00       0.001      103.805
     NS sqrt iter    4 1.00000000   0.483E-02       0.001      104.924
     NS sqrt iter    5 1.00000000   0.859E-06       0.001       79.348
     Symmetrizing Results
     Final NS sqrt iter    5 1.00000000   0.124E-11

     Est. extremal eigenvalues     -0.93119     1.72884  converged:  T
     TRS4 it   1 1.00000000   0.881E+00       0.000       16.128   0.100E-07
     TRS4 it   2 1.00000000   0.632E+00       0.001       32.256   0.100E-07
     TRS4 it   3 1.00000000   0.438E+00       0.001       32.256   0.100E-07
     TRS4 it   4 1.00000000   0.235E+00       0.001       32.256   0.100E-07
     TRS4 it   5 1.00000000   0.856E-01       0.001       32.256   0.100E-07
     TRS4 it   6 1.00000000   0.144E-01       0.001       32.256   0.100E-07
     TRS4 it   7 1.00000000   0.559E-03       0.001       32.256   0.100E-07
     TRS4 it   8 1.00000000   0.121E-05       0.001       32.256   0.100E-07
     TRS4 it   9 1.00000000   0.656E-11       0.001       32.256   0.100E-07
     Final TRS4 iteration    9 1.00000000   0.656E-11
     Chemical potential (mu):      -0.00965
 
 PAO| energy:  -7.7474849806179833      penalty:   5.7769153838192809E-006
 PAO|LS| Need extra step
 PAO|LS| adapt:  T T F
 PAO|LS| adapt: scan_steps:    0.0000000000000000       0.40000000000000002        0.0000000000000000     
 PAO|LS| adapt: energies:   -7.6016505766571960       -7.7474849806179833        0.0000000000000000     
 PAO| ======================= Iteration:         5 =============================

     Lanczos converged:  T threshold:   0.100E-02
     Est. extremal eigenvalues:    0.263E+01   0.184E+00
     Est. condition number :    0.143E+02

 Order=           3
     NS sqrt iter    1 1.00000000   0.684E+00       0.001       60.201
     NS sqrt iter    2 1.00000000   0.310E+00       0.001      103.833
     NS sqrt iter    3 1.00000000   0.650E-01       0.001      100.504
     NS sqrt iter    4 1.00000000   0.131E-02       0.001      103.239
     NS sqrt iter    5 1.00000000   0.213E-07       0.001       54.392
     Symmetrizing Results
     Final NS sqrt iter    5 1.00000000   0.311E-08

     Est. extremal eigenvalues     -0.93240     1.65806  converged:  T
     TRS4 it   1 1.00000000   0.877E+00       0.000       16.128   0.100E-07
     TRS4 it   2 1.00000000   0.595E+00       0.001       32.256   0.100E-07
     TRS4 it   3 1.00000000   0.389E+00       0.001       32.256   0.100E-07
     TRS4 it   4 1.00000000   0.178E+00       0.001       32.256   0.100E-07
     TRS4 it   5 1.00000000   0.460E-01       0.001       32.256   0.100E-07
     TRS4 it   6 1.00000000   0.378E-02       0.001       32.256   0.100E-07
     TRS4 it   7 1.00000000   0.330E-04       0.001       32.256   0.100E-07
     TRS4 it   8 1.00000000   0.316E-08       0.001       32.256   0.100E-07
     Final TRS4 iteration    8 1.00000000   0.316E-08
     Chemical potential (mu):       0.03868
 
 PAO| energy:  -7.6926400404091826      penalty:   9.2430653044175520E-005
 PAO|LS| Need extra step
 PAO|LS| adapt:  T T T
 PAO|LS| adapt: scan_steps:    0.0000000000000000       0.40000000000000002       0.80000000000000004     
 PAO|LS| adapt: energies:   -7.6016505766571960       -7.7474849806179833       -7.6926400404091826     
 PAO|LS| adapt: suggested step_size:   0.49068144419995147     
 PAO|LS| adapt: predicted energy  -7.7526418906054895     
 PAO| ======================= Iteration:         6 =============================

     Lanczos converged:  T threshold:   0.100E-02
     Est. extremal eigenvalues:    0.290E+01   0.163E+00
     Est. condition number :    0.178E+02

 Order=           3
     NS sqrt iter    1 1.00000000   0.733E+00       0.001       60.507
     NS sqrt iter    2 1.00000000   0.357E+00       0.001      103.270
     NS sqrt iter    3 1.00000000   0.945E-01       0.001      103.771
     NS sqrt iter    4 1.00000000   0.354E-02       0.001      103.123
     NS sqrt iter    5 1.00000000   0.369E-06       0.001       81.811
     Symmetrizing Results
     Final NS sqrt iter    5 1.00000000   0.143E-09

     Est. extremal eigenvalues     -0.93266     1.70761  converged:  T
     TRS4 it   1 1.00000000   0.880E+00       0.000       16.128   0.100E-07
     TRS4 it   2 1.00000000   0.622E+00       0.001       32.256   0.100E-07
     TRS4 it   3 1.00000000   0.425E+00       0.001       32.256   0.100E-07
     TRS4 it   4 1.00000000   0.220E+00       0.001       32.256   0.100E-07
     TRS4 it   5 1.00000000   0.739E-01       0.001       32.256   0.100E-07
     TRS4 it   6 1.00000000   0.105E-01       0.001       32.256   0.100E-07
     TRS4 it   7 1.00000000   0.285E-03       0.001       32.256   0.100E-07
     TRS4 it   8 1.00000000   0.302E-06       0.001       32.256   0.100E-07
     TRS4 it   9 1.00000000   0.402E-12       0.001       32.256   0.100E-07
     Final TRS4 iteration    9 1.00000000   0.402E-12
     Chemical potential (mu):       0.00388
 
 PAO| energy:  -7.7518921574827369      penalty:   1.3081411047688685E-005
 PAO|CG| warming up with steepest descent
 PAO|CG| beta:    0.0000000000000000     
 PAO| norm of gradient:  0.41716142931719191     
 PAO| energy improvement: -0.15024158082554084     
 PAO| step      6                   -7.751892157  0.261E-01  0.491E+00     0.093
 PAO|LS| adapt:  T F F
 PAO|LS| adapt: scan_steps:    0.0000000000000000        0.0000000000000000        0.0000000000000000     
 PAO|LS| adapt: energies:   -7.7518921574827369        0.0000000000000000        0.0000000000000000     
 PAO| ======================= Iteration:         7 =============================

     Lanczos converged:  T threshold:   0.100E-02
     Est. extremal eigenvalues:    0.281E+01   0.177E+00
     Est. condition number :    0.159E+02

 Order=           3
     NS sqrt iter    1 1.00000000   0.716E+00       0.001       61.416
     NS sqrt iter    2 1.00000000   0.337E+00       0.001      103.136
     NS sqrt iter    3 1.00000000   0.788E-01       0.001      102.819
     NS sqrt iter    4 1.00000000   0.213E-02       0.001      106.238
     NS sqrt iter    5 1.00000000   0.888E-07       0.001       74.693
     Symmetrizing Results
     Final NS sqrt iter    5 1.00000000   0.113E-08

     Est. extremal eigenvalues     -0.93436     1.69427  converged:  T
     TRS4 it   1 1.00000000   0.879E+00       0.000       16.128   0.100E-07
     TRS4 it   2 1.00000000   0.620E+00       0.001       32.256   0.100E-07
     TRS4 it   3 1.00000000   0.425E+00       0.001       32.256   0.100E-07
     TRS4 it   4 1.00000000   0.221E+00       0.001       32.256   0.100E-07
     TRS4 it   5 1.00000000   0.746E-01       0.001       32.256   0.100E-07
     TRS4 it   6 1.00000000   0.104E-01       0.001       32.256   0.100E-07
     TRS4 it   7 1.00000000   0.267E-03       0.001       32.256   0.100E-07
     TRS4 it   8 1.00000000   0.252E-06       0.001       32.256   0.100E-07
     TRS4 it   9 1.00000000   0.276E-12       0.001       32.256   0.100E-07
     Final TRS4 iteration    9 1.00000000   0.276E-12
     Chemical potential (mu):       0.00566
 
 PAO| energy:  -7.7458582884803944      penalty:   1.9764850014024542E-005
 PAO|LS| adapt:  T F T
 PAO|LS| adapt: scan_steps:    0.0000000000000000        0.0000000000000000       0.49068144419995147     
 PAO|LS| adapt: energies:   -7.7518921574827369        0.0000000000000000       -7.7458582884803944     
 PAO| ======================= Iteration:         8 =============================

     Lanczos converged:  T threshold:   0.100E-02
     Est. extremal eigenvalues:    0.286E+01   0.170E+00
     Est. condition number :    0.168E+02

 Order=           3
     NS sqrt iter    1 1.00000000   0.724E+00       0.001       60.719
     NS sqrt iter    2 1.00000000   0.347E+00       0.001      103.712
     NS sqrt iter    3 1.00000000   0.865E-01       0.001      106.368
     NS sqrt iter    4 1.00000000   0.277E-02       0.001      105.943
     NS sqrt iter    5 1.00000000   0.185E-06       0.001       79.872
     Symmetrizing Results
     Final NS sqrt iter    5 1.00000000   0.111E-08

     Est. extremal eigenvalues     -0.93449     1.70031  converged:  T
     TRS4 it   1 1.00000000   0.879E+00       0.000       16.128   0.100E-07
     TRS4 it   2 1.00000000   0.620E+00       0.001       32.256   0.100E-07
     TRS4 it   3 1.00000000   0.424E+00       0.001       32.256   0.100E-07
     TRS4 it   4 1.00000000   0.220E+00       0.001       32.256   0.100E-07
     TRS4 it   5 1.00000000   0.740E-01       0.001       32.256   0.100E-07
     TRS4 it   6 1.00000000   0.105E-01       0.001       32.256   0.100E-07
     TRS4 it   7 1.00000000   0.283E-03       0.001       32.256   0.100E-07
     TRS4 it   8 1.00000000   0.293E-06       0.001       32.256   0.100E-07
     TRS4 it   9 1.00000000   0.377E-12       0.001       32.256   0.100E-07
     Final TRS4 iteration    9 1.00000000   0.377E-12
     Chemical potential (mu):       0.00432
 
 PAO| energy:  -7.7714921278617402      penalty:   1.4177295281145563E-005
 PAO|LS| adapt:  T T T
 PAO|LS| adapt: scan_steps:    0.0000000000000000       0.24534072209997573       0.49068144419995147     
 PAO|LS| adapt: energies:   -7.7518921574827369       -7.7714921278617402       -7.7458582884803944     
 PAO|LS| adapt: suggested step_size:   0.22897736705720628     
 PAO|LS| adapt: predicted energy  -7.7715927372713010     
 PAO| ======================= Iteration:         9 =============================

     Lanczos converged:  T threshold:   0.100E-02
     Est. extremal eigenvalues:    0.286E+01   0.170E+00
     Est. condition number :    0.169E+02

 Order=           3
     NS sqrt iter    1 1.00000000   0.725E+00       0.001       59.031
     NS sqrt iter    2 1.00000000   0.348E+00       0.001      103.978
     NS sqrt iter    3 1.00000000   0.870E-01       0.001      105.082
     NS sqrt iter    4 1.00000000   0.281E-02       0.001      106.809
     NS sqrt iter    5 1.00000000   0.194E-06       0.001       79.047
     Symmetrizing Results
     Final NS sqrt iter    5 1.00000000   0.117E-08

     Est. extremal eigenvalues     -0.93443     1.70075  converged:  T
     TRS4 it   1 1.00000000   0.879E+00       0.000       16.128   0.100E-07
     TRS4 it   2 1.00000000   0.620E+00       0.001       32.256   0.100E-07
     TRS4 it   3 1.00000000   0.424E+00       0.001       32.256   0.100E-07
     TRS4 it   4 1.00000000   0.220E+00       0.001       32.256   0.100E-07
     TRS4 it   5 1.00000000   0.740E-01       0.001       32.256   0.100E-07
     TRS4 it   6 1.00000000   0.105E-01       0.001       32.256   0.100E-07
     TRS4 it   7 1.00000000   0.284E-03       0.001       32.256   0.100E-07
     TRS4 it   8 1.00000000   0.295E-06       0.001       32.256   0.100E-07
     TRS4 it   9 1.00000000   0.382E-12       0.001       32.256   0.100E-07
     Final TRS4 iteration    9 1.00000000   0.382E-12
     Chemical potential (mu):       0.00425
 
 PAO| energy:  -7.7716171186214105      penalty:   1.4003305734868474E-005
 PAO|CG| trace_G_new    3.6716673912479042E-002
 PAO|CG| trace_G_prev   0.17402365810996251     
 PAO|CG| trace_G_mix   -1.4413193540625769E-003
 PAO|CG| trace_D   0.17402365810996251     
 PAO|CG| trace_D_Gnew   1.4413193540625769E-003
 PAO|CG| beta:   0.21926899871527955     
 PAO| norm of gradient:  0.19161595422218641     
 PAO| energy improvement:  -1.9724961138673613E-002
 PAO| step      9                   -7.771617119  0.120E-01  0.229E+00     0.058
 PAO|LS| adapt:  T F F
 PAO|LS| adapt: scan_steps:    0.0000000000000000        0.0000000000000000        0.0000000000000000     
 PAO|LS| adapt: energies:   -7.7716171186214105        0.0000000000000000        0.0000000000000000     
 PAO| ======================= Iteration:        10 =============================

     Lanczos converged:  T threshold:   0.100E-02
     Est. extremal eigenvalues:    0.282E+01   0.176E+00
     Est. condition number :    0.161E+02

 Order=           3
     NS sqrt iter    1 1.00000000   0.717E+00       0.001       56.665
     NS sqrt iter    2 1.00000000   0.339E+00       0.001       98.842
     NS sqrt iter    3 1.00000000   0.814E-01       0.001      100.953
     NS sqrt iter    4 1.00000000   0.231E-02       0.001      104.268
     NS sqrt iter    5 1.00000000   0.107E-06       0.001       70.078
     Symmetrizing Results
     Final NS sqrt iter    5 1.00000000   0.131E-08

     Est. extremal eigenvalues     -0.93532     1.69701  converged:  T
     TRS4 it   1 1.00000000   0.878E+00       0.000       16.128   0.100E-07
     TRS4 it   2 1.00000000   0.619E+00       0.001       32.256   0.100E-07
     TRS4 it   3 1.00000000   0.423E+00       0.001       32.256   0.100E-07
     TRS4 it   4 1.00000000   0.217E+00       0.001       32.256   0.100E-07
     TRS4 it   5 1.00000000   0.721E-01       0.001       32.256   0.100E-07
     TRS4 it   6 1.00000000   0.991E-02       0.001       32.256   0.100E-07
     TRS4 it   7 1.00000000   0.249E-03       0.001       32.256   0.100E-07
     TRS4 it   8 1.00000000   0.222E-06       0.001       32.256   0.100E-07
     TRS4 it   9 1.00000000   0.214E-12       0.001       32.256   0.100E-07
     Final TRS4 iteration    9 1.00000000   0.214E-12
     Chemical potential (mu):       0.00725
 
 PAO| energy:  -7.7766298743772193      penalty:   1.4533791810992326E-005
 PAO|LS| adapt:  T T F
 PAO|LS| adapt: scan_steps:    0.0000000000000000       0.22897736705720628        0.0000000000000000     
 PAO|LS| adapt: energies:   -7.7716171186214105       -7.7766298743772193        0.0000000000000000     
 PAO| ======================= Iteration:        11 =============================

     Lanczos converged:  T threshold:   0.100E-02
     Est. extremal eigenvalues:    0.278E+01   0.182E+00
     Est. condition number :    0.153E+02

 Order=           3
     NS sqrt iter    1 1.00000000   0.709E+00       0.001       55.107
     NS sqrt iter    2 1.00000000   0.331E+00       0.001      100.035
     NS sqrt iter    3 1.00000000   0.760E-01       0.001      102.923
     NS sqrt iter    4 1.00000000   0.189E-02       0.001      104.950
     NS sqrt iter    5 1.00000000   0.580E-07       0.001       69.544
     Symmetrizing Results
     Final NS sqrt iter    5 1.00000000   0.427E-09

     Est. extremal eigenvalues     -0.93524     1.69451  converged:  T
     TRS4 it   1 1.00000000   0.877E+00       0.000       16.128   0.100E-07
     TRS4 it   2 1.00000000   0.618E+00       0.001       32.256   0.100E-07
     TRS4 it   3 1.00000000   0.421E+00       0.001       32.256   0.100E-07
     TRS4 it   4 1.00000000   0.215E+00       0.001       32.256   0.100E-07
     TRS4 it   5 1.00000000   0.703E-01       0.001       32.256   0.100E-07
     TRS4 it   6 1.00000000   0.936E-02       0.001       32.256   0.100E-07
     TRS4 it   7 1.00000000   0.219E-03       0.001       32.256   0.100E-07
     TRS4 it   8 1.00000000   0.166E-06       0.001       32.256   0.100E-07
     TRS4 it   9 1.00000000   0.118E-12       0.001       32.256   0.100E-07
     Final TRS4 iteration    9 1.00000000   0.118E-12
     Chemical potential (mu):       0.01036
 
 PAO| energy:  -7.7752400974455620      penalty:   1.5727209592815861E-005
 PAO|LS| adapt:  T T T
 PAO|LS| adapt: scan_steps:    0.0000000000000000       0.22897736705720628       0.45795473411441256     
 PAO|LS| adapt: energies:   -7.7716171186214105       -7.7766298743772193       -7.7752400974455620     
 PAO|LS| adapt: suggested step_size:   0.29376267878878459     
 PAO|LS| adapt: predicted energy  -7.7768861396748949     
 PAO| ======================= Iteration:        12 =============================

     Lanczos converged:  T threshold:   0.100E-02
     Est. extremal eigenvalues:    0.281E+01   0.177E+00
     Est. condition number :    0.159E+02

 Order=           3
     NS sqrt iter    1 1.00000000   0.715E+00       0.001       61.259
     NS sqrt iter    2 1.00000000   0.337E+00       0.001      101.637
     NS sqrt iter    3 1.00000000   0.799E-01       0.001      105.493
     NS sqrt iter    4 1.00000000   0.218E-02       0.001      105.452
     NS sqrt iter    5 1.00000000   0.900E-07       0.001       74.180
     Symmetrizing Results
     Final NS sqrt iter    5 1.00000000   0.110E-08

     Est. extremal eigenvalues     -0.93539     1.69618  converged:  T
     TRS4 it   1 1.00000000   0.877E+00       0.000       16.128   0.100E-07
     TRS4 it   2 1.00000000   0.619E+00       0.001       32.256   0.100E-07
     TRS4 it   3 1.00000000   0.422E+00       0.001       32.256   0.100E-07
     TRS4 it   4 1.00000000   0.217E+00       0.001       32.256   0.100E-07
     TRS4 it   5 1.00000000   0.716E-01       0.001       32.256   0.100E-07
     TRS4 it   6 1.00000000   0.975E-02       0.001       32.256   0.100E-07
     TRS4 it   7 1.00000000   0.240E-03       0.001       32.256   0.100E-07
     TRS4 it   8 1.00000000   0.204E-06       0.001       32.256   0.100E-07
     TRS4 it   9 1.00000000   0.180E-12       0.001       32.256   0.100E-07
     Final TRS4 iteration    9 1.00000000   0.180E-12
     Chemical potential (mu):       0.00812
 
 PAO| energy:  -7.7768699844911824      penalty:   1.4796596373204533E-005
 PAO|CG| trace_G_new    1.1768745211221784E-002
 PAO|CG| trace_G_prev    3.6716673912479042E-002
 PAO|CG| trace_G_mix   -4.5567192428665106E-004
 PAO|CG| trace_D    4.4451465585829492E-002
 PAO|CG| trace_D_Gnew   2.0715560146730401E-004
 PAO|CG| beta:   0.33293912091949251     
 PAO| norm of gradient:  0.10848384769734978     
 PAO| energy improvement:  -5.2528658697719166E-003
 PAO| step     12                   -7.776869984  0.678E-02  0.294E+00     0.059
 PAO|LS| adapt:  T F F
 PAO|LS| adapt: scan_steps:    0.0000000000000000        0.0000000000000000        0.0000000000000000     
 PAO|LS| adapt: energies:   -7.7768699844911824        0.0000000000000000        0.0000000000000000     
 PAO| ======================= Iteration:        13 =============================

     Lanczos converged:  T threshold:   0.100E-02
     Est. extremal eigenvalues:    0.278E+01   0.182E+00
     Est. condition number :    0.153E+02

 Order=           3
     NS sqrt iter    1 1.00000000   0.707E+00       0.001       60.243
     NS sqrt iter    2 1.00000000   0.330E+00       0.001      102.212
     NS sqrt iter    3 1.00000000   0.755E-01       0.001      102.461
     NS sqrt iter    4 1.00000000   0.185E-02       0.001      103.417
     NS sqrt iter    5 1.00000000   0.554E-07       0.001       68.722
     Symmetrizing Results
     Final NS sqrt iter    5 1.00000000   0.414E-09

     Est. extremal eigenvalues     -0.93587     1.68963  converged:  T
     TRS4 it   1 1.00000000   0.877E+00       0.000       16.128   0.100E-07
     TRS4 it   2 1.00000000   0.616E+00       0.001       32.256   0.100E-07
     TRS4 it   3 1.00000000   0.418E+00       0.001       32.256   0.100E-07
     TRS4 it   4 1.00000000   0.212E+00       0.001       32.256   0.100E-07
     TRS4 it   5 1.00000000   0.681E-01       0.001       32.256   0.100E-07
     TRS4 it   6 1.00000000   0.877E-02       0.001       32.256   0.100E-07
     TRS4 it   7 1.00000000   0.192E-03       0.001       32.256   0.100E-07
     TRS4 it   8 1.00000000   0.127E-06       0.001       32.256   0.100E-07
     TRS4 it   9 1.00000000   0.704E-13       0.001       32.256   0.100E-07
     Final TRS4 iteration    9 1.00000000   0.704E-13
     Chemical potential (mu):       0.01251
 
 PAO| energy:  -7.7789346099354519      penalty:   1.5098152074071523E-005
 PAO|LS| adapt:  T T F
 PAO|LS| adapt: scan_steps:    0.0000000000000000       0.29376267878878459        0.0000000000000000     
 PAO|LS| adapt: energies:   -7.7768699844911824       -7.7789346099354519        0.0000000000000000     
 PAO| ======================= Iteration:        14 =============================

     Lanczos converged:  T threshold:   0.100E-02
     Est. extremal eigenvalues:    0.274E+01   0.186E+00
     Est. condition number :    0.148E+02

 Order=           3
     NS sqrt iter    1 1.00000000   0.700E+00       0.001       58.670
     NS sqrt iter    2 1.00000000   0.323E+00       0.001       99.838
     NS sqrt iter    3 1.00000000   0.713E-01       0.001      103.507
     NS sqrt iter    4 1.00000000   0.157E-02       0.001       99.712
     NS sqrt iter    5 1.00000000   0.341E-07       0.001       62.964
     Symmetrizing Results
     Final NS sqrt iter    5 1.00000000   0.387E-09

     Est. extremal eigenvalues     -0.93586     1.68338  converged:  T
     TRS4 it   1 1.00000000   0.876E+00       0.000       16.128   0.100E-07
     TRS4 it   2 1.00000000   0.613E+00       0.001       32.256   0.100E-07
     TRS4 it   3 1.00000000   0.414E+00       0.001       32.256   0.100E-07
     TRS4 it   4 1.00000000   0.207E+00       0.001       32.256   0.100E-07
     TRS4 it   5 1.00000000   0.647E-01       0.001       32.256   0.100E-07
     TRS4 it   6 1.00000000   0.788E-02       0.001       32.256   0.100E-07
     TRS4 it   7 1.00000000   0.153E-03       0.001       32.256   0.100E-07
     TRS4 it   8 1.00000000   0.791E-07       0.001       32.256   0.100E-07
     Final TRS4 iteration    8 1.00000000   0.791E-07
     Chemical potential (mu):       0.01420
 
 PAO| energy:  -7.7783044820866873      penalty:   1.5877459515846287E-005
 PAO|LS| adapt:  T T T
 PAO|LS| adapt: scan_steps:    0.0000000000000000       0.29376267878878459       0.58752535757756918     
 PAO|LS| adapt: energies:   -7.7768699844911824       -7.7789346099354519       -7.7783044820866873     
 PAO|LS| adapt: suggested step_size:   0.37195199902468840     
 PAO|LS| adapt: predicted energy  -7.7790300631702998     
 PAO| ======================= Iteration:        15 =============================

     Lanczos converged:  T threshold:   0.100E-02
     Est. extremal eigenvalues:    0.277E+01   0.183E+00
     Est. condition number :    0.151E+02

 Order=           3
     NS sqrt iter    1 1.00000000   0.705E+00       0.001       62.620
     NS sqrt iter    2 1.00000000   0.328E+00       0.001      105.341
     NS sqrt iter    3 1.00000000   0.743E-01       0.001      102.857
     NS sqrt iter    4 1.00000000   0.177E-02       0.001      105.793
     NS sqrt iter    5 1.00000000   0.487E-07       0.001       70.016
     Symmetrizing Results
     Final NS sqrt iter    5 1.00000000   0.396E-09

     Est. extremal eigenvalues     -0.93592     1.68794  converged:  T
     TRS4 it   1 1.00000000   0.877E+00       0.000       16.128   0.100E-07
     TRS4 it   2 1.00000000   0.615E+00       0.001       32.256   0.100E-07
     TRS4 it   3 1.00000000   0.417E+00       0.001       32.256   0.100E-07
     TRS4 it   4 1.00000000   0.210E+00       0.001       32.256   0.100E-07
     TRS4 it   5 1.00000000   0.671E-01       0.001       32.256   0.100E-07
     TRS4 it   6 1.00000000   0.852E-02       0.001       32.256   0.100E-07
     TRS4 it   7 1.00000000   0.180E-03       0.001       32.256   0.100E-07
     TRS4 it   8 1.00000000   0.112E-06       0.001       32.256   0.100E-07
     TRS4 it   9 1.00000000   0.535E-13       0.001       32.256   0.100E-07
     Final TRS4 iteration    9 1.00000000   0.535E-13
     Chemical potential (mu):       0.01367
 
 PAO| energy:  -7.7790269685750868      penalty:   1.5255840899104999E-005
 PAO|CG| trace_G_new    2.6189143717938791E-003
 PAO|CG| trace_G_prev    1.1768745211221784E-002
 PAO|CG| trace_G_mix    6.2092778360771914E-005
 PAO|CG| trace_D    1.6558181230166998E-002
 PAO|CG| trace_D_Gnew   3.3597318797364209E-005
 PAO|CG| beta:   0.21725524238515384     
 PAO| norm of gradient:   5.1175329718467659E-002
 PAO| energy improvement:  -2.1569840839044119E-003
 PAO| step     15                   -7.779026969  0.320E-02  0.372E+00     0.057
 PAO|LS| adapt:  T F F
 PAO|LS| adapt: scan_steps:    0.0000000000000000        0.0000000000000000        0.0000000000000000     
 PAO|LS| adapt: energies:   -7.7790269685750868        0.0000000000000000        0.0000000000000000     
 PAO| ======================= Iteration:        16 =============================

     Lanczos converged:  T threshold:   0.100E-02
     Est. extremal eigenvalues:    0.276E+01   0.184E+00
     Est. condition number :    0.150E+02

 Order=           3
     NS sqrt iter    1 1.00000000   0.703E+00       0.001       61.602
     NS sqrt iter    2 1.00000000   0.327E+00       0.001      101.353
     NS sqrt iter    3 1.00000000   0.736E-01       0.001      103.019
     NS sqrt iter    4 1.00000000   0.172E-02       0.001      105.483
     NS sqrt iter    5 1.00000000   0.439E-07       0.001       65.504
     Symmetrizing Results
     Final NS sqrt iter    5 1.00000000   0.413E-09

     Est. extremal eigenvalues     -0.93595     1.68692  converged:  T
     TRS4 it   1 1.00000000   0.877E+00       0.000       16.128   0.100E-07
     TRS4 it   2 1.00000000   0.614E+00       0.001       32.256   0.100E-07
     TRS4 it   3 1.00000000   0.416E+00       0.001       32.256   0.100E-07
     TRS4 it   4 1.00000000   0.209E+00       0.001       32.256   0.100E-07
     TRS4 it   5 1.00000000   0.660E-01       0.001       32.256   0.100E-07
     TRS4 it   6 1.00000000   0.823E-02       0.001       32.256   0.100E-07
     TRS4 it   7 1.00000000   0.170E-03       0.001       32.256   0.100E-07
     TRS4 it   8 1.00000000   0.999E-07       0.001       32.256   0.100E-07
     TRS4 it   9 1.00000000   0.430E-13       0.001       32.256   0.100E-07
     Final TRS4 iteration    9 1.00000000   0.430E-13
     Chemical potential (mu):       0.01447
 
 PAO| energy:  -7.7791490055555643      penalty:   1.5035562214133085E-005
 PAO|LS| adapt:  T T F
 PAO|LS| adapt: scan_steps:    0.0000000000000000       0.37195199902468840        0.0000000000000000     
 PAO|LS| adapt: energies:   -7.7790269685750868       -7.7791490055555643        0.0000000000000000     
 PAO| ======================= Iteration:        17 =============================

     Lanczos converged:  T threshold:   0.100E-02
     Est. extremal eigenvalues:    0.275E+01   0.184E+00
     Est. condition number :    0.149E+02

 Order=           3
     NS sqrt iter    1 1.00000000   0.701E+00       0.001       62.643
     NS sqrt iter    2 1.00000000   0.325E+00       0.001      104.038
     NS sqrt iter    3 1.00000000   0.729E-01       0.001      105.442
     NS sqrt iter    4 1.00000000   0.166E-02       0.001      104.012
     NS sqrt iter    5 1.00000000   0.396E-07       0.001       67.207
     Symmetrizing Results
     Final NS sqrt iter    5 1.00000000   0.345E-09

     Est. extremal eigenvalues     -0.93585     1.68597  converged:  T
     TRS4 it   1 1.00000000   0.877E+00       0.000       16.128   0.100E-07
     TRS4 it   2 1.00000000   0.613E+00       0.001       32.256   0.100E-07
     TRS4 it   3 1.00000000   0.414E+00       0.001       32.256   0.100E-07
     TRS4 it   4 1.00000000   0.207E+00       0.001       32.256   0.100E-07
     TRS4 it   5 1.00000000   0.648E-01       0.001       32.256   0.100E-07
     TRS4 it   6 1.00000000   0.796E-02       0.001       32.256   0.100E-07
     TRS4 it   7 1.00000000   0.159E-03       0.001       32.256   0.100E-07
     TRS4 it   8 1.00000000   0.892E-07       0.001       32.256   0.100E-07
     TRS4 it   9 1.00000000   0.349E-13       0.001       32.256   0.100E-07
     Final TRS4 iteration    9 1.00000000   0.349E-13
     Chemical potential (mu):       0.01525
 
 PAO| energy:  -7.7775668272910501      penalty:   1.4942393040095874E-005
 PAO|LS| adapt:  T T T
 PAO|LS| adapt: scan_steps:    0.0000000000000000       0.37195199902468840       0.74390399804937679     
 PAO|LS| adapt: energies:   -7.7790269685750868       -7.7791490055555643       -7.7775668272910501     
 PAO|LS| adapt: suggested step_size:   0.21261107332531878     
 PAO|LS| adapt: predicted energy  -7.7793053834379657     
 PAO| ======================= Iteration:        18 =============================

     Lanczos converged:  T threshold:   0.100E-02
     Est. extremal eigenvalues:    0.276E+01   0.183E+00
     Est. condition number :    0.151E+02

 Order=           3
     NS sqrt iter    1 1.00000000   0.704E+00       0.001       57.069
     NS sqrt iter    2 1.00000000   0.327E+00       0.001       99.112
     NS sqrt iter    3 1.00000000   0.739E-01       0.001      100.031
     NS sqrt iter    4 1.00000000   0.174E-02       0.001      106.250
     NS sqrt iter    5 1.00000000   0.459E-07       0.001       67.440
     Symmetrizing Results
     Final NS sqrt iter    5 1.00000000   0.389E-09

     Est. extremal eigenvalues     -0.93595     1.68735  converged:  T
     TRS4 it   1 1.00000000   0.877E+00       0.000       16.128   0.100E-07
     TRS4 it   2 1.00000000   0.614E+00       0.001       32.256   0.100E-07
     TRS4 it   3 1.00000000   0.416E+00       0.001       32.256   0.100E-07
     TRS4 it   4 1.00000000   0.209E+00       0.001       32.256   0.100E-07
     TRS4 it   5 1.00000000   0.665E-01       0.001       32.256   0.100E-07
     TRS4 it   6 1.00000000   0.836E-02       0.001       32.256   0.100E-07
     TRS4 it   7 1.00000000   0.174E-03       0.001       32.256   0.100E-07
     TRS4 it   8 1.00000000   0.105E-06       0.001       32.256   0.100E-07
     TRS4 it   9 1.00000000   0.465E-13       0.001       32.256   0.100E-07
     Final TRS4 iteration    9 1.00000000   0.465E-13
     Chemical potential (mu):       0.01413
 
 PAO| energy:  -7.7793049307571804      penalty:   1.5114649766700571E-005
 PAO|CG| trace_G_new    7.2479240508417425E-004
 PAO|CG| trace_G_prev    2.6189143717938791E-003
 PAO|CG| trace_G_mix    1.3597175813844424E-006
 PAO|CG| trace_D    3.3858594949643700E-003
 PAO|CG| trace_D_Gnew  -1.6744884873910498E-006
 PAO|CG| beta:   0.27623380714324758     
 PAO| norm of gradient:   2.6921968818869362E-002
 PAO| energy improvement:  -2.7796218209363843E-004
 PAO| step     18                   -7.779304931  0.168E-02  0.213E+00     0.058
 PAO|LS| adapt:  T F F
 PAO|LS| adapt: scan_steps:    0.0000000000000000        0.0000000000000000        0.0000000000000000     
 PAO|LS| adapt: energies:   -7.7793049307571804        0.0000000000000000        0.0000000000000000     
 PAO| ======================= Iteration:        19 =============================

     Lanczos converged:  T threshold:   0.100E-02
     Est. extremal eigenvalues:    0.276E+01   0.183E+00
     Est. condition number :    0.151E+02

 Order=           3
     NS sqrt iter    1 1.00000000   0.704E+00       0.001       59.901
     NS sqrt iter    2 1.00000000   0.327E+00       0.001       99.268
     NS sqrt iter    3 1.00000000   0.741E-01       0.001       98.416
     NS sqrt iter    4 1.00000000   0.175E-02       0.001       99.694
     NS sqrt iter    5 1.00000000   0.463E-07       0.001       63.834
     Symmetrizing Results
     Final NS sqrt iter    5 1.00000000   0.382E-09

     Est. extremal eigenvalues     -0.93595     1.68761  converged:  T
     TRS4 it   1 1.00000000   0.877E+00       0.000       16.128   0.100E-07
     TRS4 it   2 1.00000000   0.614E+00       0.001       32.256   0.100E-07
     TRS4 it   3 1.00000000   0.416E+00       0.001       32.256   0.100E-07
     TRS4 it   4 1.00000000   0.209E+00       0.001       32.256   0.100E-07
     TRS4 it   5 1.00000000   0.664E-01       0.001       32.256   0.100E-07
     TRS4 it   6 1.00000000   0.835E-02       0.001       32.256   0.100E-07
     TRS4 it   7 1.00000000   0.175E-03       0.001       32.256   0.100E-07
     TRS4 it   8 1.00000000   0.107E-06       0.001       32.256   0.100E-07
     TRS4 it   9 1.00000000   0.497E-13       0.001       32.256   0.100E-07
     Final TRS4 iteration    9 1.00000000   0.497E-13
     Chemical potential (mu):       0.01384
 
 PAO| energy:  -7.7794224427622574      penalty:   1.4825246145219132E-005
 PAO|LS| adapt:  T T F
 PAO|LS| adapt: scan_steps:    0.0000000000000000       0.21261107332531878        0.0000000000000000     
 PAO|LS| adapt: energies:   -7.7793049307571804       -7.7794224427622574        0.0000000000000000     
 PAO| ======================= Iteration:        20 =============================

     Lanczos converged:  T threshold:   0.100E-02
     Est. extremal eigenvalues:    0.276E+01   0.183E+00
     Est. condition number :    0.151E+02

 Order=           3
     NS sqrt iter    1 1.00000000   0.704E+00       0.001       62.264
     NS sqrt iter    2 1.00000000   0.328E+00       0.001      102.854
     NS sqrt iter    3 1.00000000   0.743E-01       0.001      105.768
     NS sqrt iter    4 1.00000000   0.176E-02       0.001      105.464
     NS sqrt iter    5 1.00000000   0.468E-07       0.001       70.135
     Symmetrizing Results
     Final NS sqrt iter    5 1.00000000   0.394E-09

     Est. extremal eigenvalues     -0.93595     1.68787  converged:  T
     TRS4 it   1 1.00000000   0.877E+00       0.000       16.128   0.100E-07
     TRS4 it   2 1.00000000   0.614E+00       0.001       32.256   0.100E-07
     TRS4 it   3 1.00000000   0.416E+00       0.001       32.256   0.100E-07
     TRS4 it   4 1.00000000   0.209E+00       0.001       32.256   0.100E-07
     TRS4 it   5 1.00000000   0.663E-01       0.001       32.256   0.100E-07
     TRS4 it   6 1.00000000   0.834E-02       0.001       32.256   0.100E-07
     TRS4 it   7 1.00000000   0.175E-03       0.001       32.256   0.100E-07
     TRS4 it   8 1.00000000   0.108E-06       0.001       32.256   0.100E-07
     TRS4 it   9 1.00000000   0.509E-13       0.001       32.256   0.100E-07
     Final TRS4 iteration    9 1.00000000   0.509E-13
     Chemical potential (mu):       0.01356
 
 PAO| energy:  -7.7794662021336709      penalty:   1.4548258552796257E-005
 PAO|LS| adapt:  T T F
 PAO|LS| adapt: scan_steps:    0.0000000000000000       0.42522214665063757        0.0000000000000000     
 PAO|LS| adapt: energies:   -7.7793049307571804       -7.7794662021336709        0.0000000000000000     
 PAO| ======================= Iteration:        21 =============================

     Lanczos converged:  T threshold:   0.100E-02
     Est. extremal eigenvalues:    0.276E+01   0.183E+00
     Est. condition number :    0.151E+02

 Order=           3
     NS sqrt iter    1 1.00000000   0.704E+00       0.001       61.502
     NS sqrt iter    2 1.00000000   0.328E+00       0.001      105.288
     NS sqrt iter    3 1.00000000   0.748E-01       0.001      105.744
     NS sqrt iter    4 1.00000000   0.178E-02       0.001      105.325
     NS sqrt iter    5 1.00000000   0.478E-07       0.001       68.465
     Symmetrizing Results
     Final NS sqrt iter    5 1.00000000   0.388E-09

     Est. extremal eigenvalues     -0.93594     1.68842  converged:  T
     TRS4 it   1 1.00000000   0.877E+00       0.000       16.128   0.100E-07
     TRS4 it   2 1.00000000   0.614E+00       0.001       32.256   0.100E-07
     TRS4 it   3 1.00000000   0.416E+00       0.001       32.256   0.100E-07
     TRS4 it   4 1.00000000   0.209E+00       0.001       32.256   0.100E-07
     TRS4 it   5 1.00000000   0.661E-01       0.001       32.256   0.100E-07
     TRS4 it   6 1.00000000   0.833E-02       0.001       32.256   0.100E-07
     TRS4 it   7 1.00000000   0.177E-03       0.001       32.256   0.100E-07
     TRS4 it   8 1.00000000   0.112E-06       0.001       32.256   0.100E-07
     TRS4 it   9 1.00000000   0.555E-13       0.001       32.256   0.100E-07
     Final TRS4 iteration    9 1.00000000   0.555E-13
     Chemical potential (mu):       0.01298
 
 PAO| energy:  -7.7793301110176074      penalty:   1.4030953491585313E-005
 PAO|LS| Need extra step
 PAO|LS| adapt:  T T T
 PAO|LS| adapt: scan_steps:    0.0000000000000000       0.42522214665063757       0.85044429330127513     
 PAO|LS| adapt: energies:   -7.7793049307571804       -7.7794662021336709       -7.7793301110176074     
 PAO|LS| adapt: suggested step_size:   0.44322576960257337     
 PAO|LS| adapt: predicted energy  -7.7794664686625428     
 PAO| ======================= Iteration:        22 =============================

     Lanczos converged:  T threshold:   0.100E-02
     Est. extremal eigenvalues:    0.276E+01   0.183E+00
     Est. condition number :    0.151E+02

 Order=           3
     NS sqrt iter    1 1.00000000   0.704E+00       0.001       61.177
     NS sqrt iter    2 1.00000000   0.328E+00       0.001      106.852
     NS sqrt iter    3 1.00000000   0.743E-01       0.001      107.465
     NS sqrt iter    4 1.00000000   0.176E-02       0.001      108.355
     NS sqrt iter    5 1.00000000   0.468E-07       0.001       70.272
     Symmetrizing Results
     Final NS sqrt iter    5 1.00000000   0.395E-09

     Est. extremal eigenvalues     -0.93595     1.68790  converged:  T
     TRS4 it   1 1.00000000   0.877E+00       0.000       16.128   0.100E-07
     TRS4 it   2 1.00000000   0.614E+00       0.001       32.256   0.100E-07
     TRS4 it   3 1.00000000   0.416E+00       0.001       32.256   0.100E-07
     TRS4 it   4 1.00000000   0.209E+00       0.001       32.256   0.100E-07
     TRS4 it   5 1.00000000   0.663E-01       0.001       32.256   0.100E-07
     TRS4 it   6 1.00000000   0.834E-02       0.001       32.256   0.100E-07
     TRS4 it   7 1.00000000   0.175E-03       0.001       32.256   0.100E-07
     TRS4 it   8 1.00000000   0.109E-06       0.001       32.256   0.100E-07
     TRS4 it   9 1.00000000   0.507E-13       0.001       32.256   0.100E-07
     Final TRS4 iteration    9 1.00000000   0.507E-13
     Chemical potential (mu):       0.01353
 
 PAO| energy:  -7.7794665017561933      penalty:   1.4525368175717804E-005
 PAO|CG| trace_G_new    2.1877526242743779E-004
 PAO|CG| trace_G_prev    7.2479240508417425E-004
 PAO|CG| trace_G_mix    2.9616074575247695E-006
 PAO|CG| trace_D    9.8407590797405776E-004
 PAO|CG| trace_D_Gnew  -1.8321708403459826E-006
 PAO|CG| beta:   0.29775926659282442     
 PAO| norm of gradient:   1.4791053459014939E-002
 PAO| energy improvement:  -1.6157099901281669E-004
 PAO| step     22                   -7.779466502  0.924E-03  0.443E+00     0.074
 PAO|LS| adapt:  T F F
 PAO|LS| adapt: scan_steps:    0.0000000000000000        0.0000000000000000        0.0000000000000000     
 PAO|LS| adapt: energies:   -7.7794665017561933        0.0000000000000000        0.0000000000000000     
 PAO| ======================= Iteration:        23 =============================

     Lanczos converged:  T threshold:   0.100E-02
     Est. extremal eigenvalues:    0.276E+01   0.183E+00
     Est. condition number :    0.151E+02

 Order=           3
     NS sqrt iter    1 1.00000000   0.704E+00       0.001       61.757
     NS sqrt iter    2 1.00000000   0.328E+00       0.001      105.137
     NS sqrt iter    3 1.00000000   0.744E-01       0.001      105.468
     NS sqrt iter    4 1.00000000   0.176E-02       0.001      106.640
     NS sqrt iter    5 1.00000000   0.469E-07       0.001       68.044
     Symmetrizing Results
     Final NS sqrt iter    5 1.00000000   0.398E-09

     Est. extremal eigenvalues     -0.93595     1.68799  converged:  T
     TRS4 it   1 1.00000000   0.877E+00       0.000       16.128   0.100E-07
     TRS4 it   2 1.00000000   0.614E+00       0.001       32.256   0.100E-07
     TRS4 it   3 1.00000000   0.416E+00       0.001       32.256   0.100E-07
     TRS4 it   4 1.00000000   0.209E+00       0.001       32.256   0.100E-07
     TRS4 it   5 1.00000000   0.664E-01       0.001       32.256   0.100E-07
     TRS4 it   6 1.00000000   0.839E-02       0.001       32.256   0.100E-07
     TRS4 it   7 1.00000000   0.178E-03       0.001       32.256   0.100E-07
     TRS4 it   8 1.00000000   0.112E-06       0.001       32.256   0.100E-07
     TRS4 it   9 1.00000000   0.538E-13       0.001       32.256   0.100E-07
     Final TRS4 iteration    9 1.00000000   0.538E-13
     Chemical potential (mu):       0.01320
 
 PAO| energy:  -7.7795148469553750      penalty:   1.3846796863829653E-005
 PAO|LS| adapt:  T T F
 PAO|LS| adapt: scan_steps:    0.0000000000000000       0.44322576960257337        0.0000000000000000     
 PAO|LS| adapt: energies:   -7.7794665017561933       -7.7795148469553750        0.0000000000000000     
 PAO| ======================= Iteration:        24 =============================

     Lanczos converged:  T threshold:   0.100E-02
     Est. extremal eigenvalues:    0.276E+01   0.183E+00
     Est. condition number :    0.151E+02

 Order=           3
     NS sqrt iter    1 1.00000000   0.704E+00       0.001       59.334
     NS sqrt iter    2 1.00000000   0.328E+00       0.001      104.319
     NS sqrt iter    3 1.00000000   0.745E-01       0.001      105.667
     NS sqrt iter    4 1.00000000   0.176E-02       0.001      102.930
     NS sqrt iter    5 1.00000000   0.470E-07       0.001       67.740
     Symmetrizing Results
     Final NS sqrt iter    5 1.00000000   0.403E-09

     Est. extremal eigenvalues     -0.93594     1.68807  converged:  T
     TRS4 it   1 1.00000000   0.877E+00       0.000       16.128   0.100E-07
     TRS4 it   2 1.00000000   0.614E+00       0.001       32.256   0.100E-07
     TRS4 it   3 1.00000000   0.416E+00       0.001       32.256   0.100E-07
     TRS4 it   4 1.00000000   0.209E+00       0.001       32.256   0.100E-07
     TRS4 it   5 1.00000000   0.666E-01       0.001       32.256   0.100E-07
     TRS4 it   6 1.00000000   0.844E-02       0.001       32.256   0.100E-07
     TRS4 it   7 1.00000000   0.180E-03       0.001       32.256   0.100E-07
     TRS4 it   8 1.00000000   0.115E-06       0.001       32.256   0.100E-07
     TRS4 it   9 1.00000000   0.577E-13       0.001       32.256   0.100E-07
     Final TRS4 iteration    9 1.00000000   0.577E-13
     Chemical potential (mu):       0.01286
 
 PAO| energy:  -7.7794648570883655      penalty:   1.3196083440792679E-005
 PAO|LS| adapt:  T T T
 PAO|LS| adapt: scan_steps:    0.0000000000000000       0.44322576960257337       0.88645153920514674     
 PAO|LS| adapt: energies:   -7.7794665017561933       -7.7795148469553750       -7.7794648570883655     
 PAO|LS| adapt: suggested step_size:   0.43951926290099685     
 PAO|LS| adapt: predicted energy  -7.7795148503937881     
 PAO| ======================= Iteration:        25 =============================

     Lanczos converged:  T threshold:   0.100E-02
     Est. extremal eigenvalues:    0.276E+01   0.183E+00
     Est. condition number :    0.151E+02

 Order=           3
     NS sqrt iter    1 1.00000000   0.704E+00       0.001       60.851
     NS sqrt iter    2 1.00000000   0.328E+00       0.001      101.992
     NS sqrt iter    3 1.00000000   0.744E-01       0.001      102.547
     NS sqrt iter    4 1.00000000   0.176E-02       0.001      101.573
     NS sqrt iter    5 1.00000000   0.469E-07       0.001       69.264
     Symmetrizing Results
     Final NS sqrt iter    5 1.00000000   0.398E-09

     Est. extremal eigenvalues     -0.93595     1.68798  converged:  T
     TRS4 it   1 1.00000000   0.877E+00       0.000       16.128   0.100E-07
     TRS4 it   2 1.00000000   0.614E+00       0.001       32.256   0.100E-07
     TRS4 it   3 1.00000000   0.416E+00       0.001       32.256   0.100E-07
     TRS4 it   4 1.00000000   0.209E+00       0.001       32.256   0.100E-07
     TRS4 it   5 1.00000000   0.664E-01       0.001       32.256   0.100E-07
     TRS4 it   6 1.00000000   0.839E-02       0.001       32.256   0.100E-07
     TRS4 it   7 1.00000000   0.178E-03       0.001       32.256   0.100E-07
     TRS4 it   8 1.00000000   0.112E-06       0.001       32.256   0.100E-07
     TRS4 it   9 1.00000000   0.542E-13       0.001       32.256   0.100E-07
     Final TRS4 iteration    9 1.00000000   0.542E-13
     Chemical potential (mu):       0.01320
 
 PAO| energy:  -7.7795148491222346      penalty:   1.3852355126740198E-005
 PAO|CG| trace_G_new    7.6755393037845481E-005
 PAO|CG| trace_G_prev    2.1877526242743779E-004
 PAO|CG| trace_G_mix    6.5508504221864677E-007
 PAO|CG| trace_D    3.0711509571232289E-004
 PAO|CG| trace_D_Gnew  -3.4310906118252532E-007
 PAO|CG| beta:   0.34784695102750651     
 PAO| norm of gradient:   8.7610155254882107E-003
 PAO| energy improvement:  -4.8347366041312512E-005
 PAO| step     25                   -7.779514849  0.548E-03  0.440E+00     0.056
 PAO|LS| adapt:  T F F
 PAO|LS| adapt: scan_steps:    0.0000000000000000        0.0000000000000000        0.0000000000000000     
 PAO|LS| adapt: energies:   -7.7795148491222346        0.0000000000000000        0.0000000000000000     
 PAO| ======================= Iteration:        26 =============================

     Lanczos converged:  T threshold:   0.100E-02
     Est. extremal eigenvalues:    0.276E+01   0.183E+00
     Est. condition number :    0.151E+02

 Order=           3
     NS sqrt iter    1 1.00000000   0.704E+00       0.001       61.336
     NS sqrt iter    2 1.00000000   0.328E+00       0.001       97.175
     NS sqrt iter    3 1.00000000   0.743E-01       0.001      104.947
     NS sqrt iter    4 1.00000000   0.175E-02       0.001      105.414
     NS sqrt iter    5 1.00000000   0.466E-07       0.001       68.774
     Symmetrizing Results
     Final NS sqrt iter    5 1.00000000   0.397E-09

     Est. extremal eigenvalues     -0.93595     1.68786  converged:  T
     TRS4 it   1 1.00000000   0.877E+00       0.000       16.128   0.100E-07
     TRS4 it   2 1.00000000   0.614E+00       0.001       32.256   0.100E-07
     TRS4 it   3 1.00000000   0.416E+00       0.001       32.256   0.100E-07
     TRS4 it   4 1.00000000   0.209E+00       0.001       32.256   0.100E-07
     TRS4 it   5 1.00000000   0.664E-01       0.001       32.256   0.100E-07
     TRS4 it   6 1.00000000   0.838E-02       0.001       32.256   0.100E-07
     TRS4 it   7 1.00000000   0.177E-03       0.001       32.256   0.100E-07
     TRS4 it   8 1.00000000   0.111E-06       0.001       32.256   0.100E-07
     TRS4 it   9 1.00000000   0.528E-13       0.001       32.256   0.100E-07
     Final TRS4 iteration    9 1.00000000   0.528E-13
     Chemical potential (mu):       0.01329
 
 PAO| energy:  -7.7795181728949379      penalty:   1.3138129875098755E-005
 PAO|LS| adapt:  T T F
 PAO|LS| adapt: scan_steps:    0.0000000000000000       0.43951926290099685        0.0000000000000000     
 PAO|LS| adapt: energies:   -7.7795148491222346       -7.7795181728949379        0.0000000000000000     
 PAO| ======================= Iteration:        27 =============================

     Lanczos converged:  T threshold:   0.100E-02
     Est. extremal eigenvalues:    0.276E+01   0.183E+00
     Est. condition number :    0.151E+02

 Order=           3
     NS sqrt iter    1 1.00000000   0.704E+00       0.001       60.099
     NS sqrt iter    2 1.00000000   0.327E+00       0.001      102.350
     NS sqrt iter    3 1.00000000   0.742E-01       0.001      100.765
     NS sqrt iter    4 1.00000000   0.175E-02       0.001      100.521
     NS sqrt iter    5 1.00000000   0.462E-07       0.001       65.391
     Symmetrizing Results
     Final NS sqrt iter    5 1.00000000   0.392E-09

     Est. extremal eigenvalues     -0.93595     1.68774  converged:  T
     TRS4 it   1 1.00000000   0.877E+00       0.000       16.128   0.100E-07
     TRS4 it   2 1.00000000   0.614E+00       0.001       32.256   0.100E-07
     TRS4 it   3 1.00000000   0.416E+00       0.001       32.256   0.100E-07
     TRS4 it   4 1.00000000   0.209E+00       0.001       32.256   0.100E-07
     TRS4 it   5 1.00000000   0.663E-01       0.001       32.256   0.100E-07
     TRS4 it   6 1.00000000   0.837E-02       0.001       32.256   0.100E-07
     TRS4 it   7 1.00000000   0.177E-03       0.001       32.256   0.100E-07
     TRS4 it   8 1.00000000   0.110E-06       0.001       32.256   0.100E-07
     TRS4 it   9 1.00000000   0.526E-13       0.001       32.256   0.100E-07
     Final TRS4 iteration    9 1.00000000   0.526E-13
     Chemical potential (mu):       0.01338
 
 PAO| energy:  -7.7794604695184129      penalty:   1.2446809097131945E-005
 PAO|LS| adapt:  T T T
 PAO|LS| adapt: scan_steps:    0.0000000000000000       0.43951926290099685       0.87903852580199371     
 PAO|LS| adapt: energies:   -7.7795148491222346       -7.7795181728949379       -7.7794604695184129     
 PAO|LS| adapt: suggested step_size:   0.24369753690853721     
 PAO|LS| adapt: predicted energy  -7.7795242299149461     
 PAO| ======================= Iteration:        28 =============================

     Lanczos converged:  T threshold:   0.100E-02
     Est. extremal eigenvalues:    0.276E+01   0.183E+00
     Est. condition number :    0.151E+02

 Order=           3
     NS sqrt iter    1 1.00000000   0.704E+00       0.001       59.223
     NS sqrt iter    2 1.00000000   0.328E+00       0.001      100.172
     NS sqrt iter    3 1.00000000   0.743E-01       0.001       98.513
     NS sqrt iter    4 1.00000000   0.176E-02       0.001       99.611
     NS sqrt iter    5 1.00000000   0.467E-07       0.001       67.316
     Symmetrizing Results
     Final NS sqrt iter    5 1.00000000   0.398E-09

     Est. extremal eigenvalues     -0.93595     1.68792  converged:  T
     TRS4 it   1 1.00000000   0.877E+00       0.000       16.128   0.100E-07
     TRS4 it   2 1.00000000   0.614E+00       0.001       32.256   0.100E-07
     TRS4 it   3 1.00000000   0.416E+00       0.001       32.256   0.100E-07
     TRS4 it   4 1.00000000   0.209E+00       0.001       32.256   0.100E-07
     TRS4 it   5 1.00000000   0.664E-01       0.001       32.256   0.100E-07
     TRS4 it   6 1.00000000   0.838E-02       0.001       32.256   0.100E-07
     TRS4 it   7 1.00000000   0.178E-03       0.001       32.256   0.100E-07
     TRS4 it   8 1.00000000   0.111E-06       0.001       32.256   0.100E-07
     TRS4 it   9 1.00000000   0.537E-13       0.001       32.256   0.100E-07
     Final TRS4 iteration    9 1.00000000   0.537E-13
     Chemical potential (mu):       0.01325
 
 PAO| energy:  -7.7795242211303712      penalty:   1.3453496230877014E-005
 PAO|CG| trace_G_new    2.8709071470251516E-005
 PAO|CG| trace_G_prev    7.6755393037845481E-005
 PAO|CG| trace_G_mix    4.0699489869644955E-008
 PAO|CG| trace_D    1.1415425112416956E-004
 PAO|CG| trace_D_Gnew  -2.2510490583399804E-008
 PAO|CG| beta:   0.37350303145795199     
 PAO| norm of gradient:   5.3580846830048809E-003
 PAO| energy improvement:  -9.3720081366654995E-006
 PAO| step     28                   -7.779524221  0.335E-03  0.244E+00     0.057
 PAO|LS| adapt:  T F F
 PAO|LS| adapt: scan_steps:    0.0000000000000000        0.0000000000000000        0.0000000000000000     
 PAO|LS| adapt: energies:   -7.7795242211303712        0.0000000000000000        0.0000000000000000     
 PAO| ======================= Iteration:        29 =============================

     Lanczos converged:  T threshold:   0.100E-02
     Est. extremal eigenvalues:    0.276E+01   0.183E+00
     Est. condition number :    0.151E+02

 Order=           3
     NS sqrt iter    1 1.00000000   0.704E+00       0.001       58.981
     NS sqrt iter    2 1.00000000   0.328E+00       0.001       99.877
     NS sqrt iter    3 1.00000000   0.743E-01       0.001      100.375
     NS sqrt iter    4 1.00000000   0.175E-02       0.001       97.670
     NS sqrt iter    5 1.00000000   0.466E-07       0.001       67.081
     Symmetrizing Results
     Final NS sqrt iter    5 1.00000000   0.397E-09

     Est. extremal eigenvalues     -0.93595     1.68790  converged:  T
     TRS4 it   1 1.00000000   0.877E+00       0.000       16.128   0.100E-07
     TRS4 it   2 1.00000000   0.614E+00       0.001       32.256   0.100E-07
     TRS4 it   3 1.00000000   0.416E+00       0.001       32.256   0.100E-07
     TRS4 it   4 1.00000000   0.209E+00       0.001       32.256   0.100E-07
     TRS4 it   5 1.00000000   0.663E-01       0.001       32.256   0.100E-07
     TRS4 it   6 1.00000000   0.837E-02       0.001       32.256   0.100E-07
     TRS4 it   7 1.00000000   0.177E-03       0.001       32.256   0.100E-07
     TRS4 it   8 1.00000000   0.110E-06       0.001       32.256   0.100E-07
     TRS4 it   9 1.00000000   0.529E-13       0.001       32.256   0.100E-07
     Final TRS4 iteration    9 1.00000000   0.529E-13
     Chemical potential (mu):       0.01336
 
 PAO| energy:  -7.7795303987844164      penalty:   1.3042114297789711E-005
 PAO|LS| adapt:  T T F
 PAO|LS| adapt: scan_steps:    0.0000000000000000       0.24369753690853721        0.0000000000000000     
 PAO|LS| adapt: energies:   -7.7795242211303712       -7.7795303987844164        0.0000000000000000     
 PAO| ======================= Iteration:        30 =============================

     Lanczos converged:  T threshold:   0.100E-02
     Est. extremal eigenvalues:    0.276E+01   0.183E+00
     Est. condition number :    0.151E+02

 Order=           3
     NS sqrt iter    1 1.00000000   0.704E+00       0.001       59.355
     NS sqrt iter    2 1.00000000   0.327E+00       0.001       99.545
     NS sqrt iter    3 1.00000000   0.742E-01       0.001       99.034
     NS sqrt iter    4 1.00000000   0.175E-02       0.001      100.691
     NS sqrt iter    5 1.00000000   0.465E-07       0.001       66.057
     Symmetrizing Results
     Final NS sqrt iter    5 1.00000000   0.393E-09

     Est. extremal eigenvalues     -0.93595     1.68789  converged:  T
     TRS4 it   1 1.00000000   0.877E+00       0.000       16.128   0.100E-07
     TRS4 it   2 1.00000000   0.614E+00       0.001       32.256   0.100E-07
     TRS4 it   3 1.00000000   0.416E+00       0.001       32.256   0.100E-07
     TRS4 it   4 1.00000000   0.209E+00       0.001       32.256   0.100E-07
     TRS4 it   5 1.00000000   0.663E-01       0.001       32.256   0.100E-07
     TRS4 it   6 1.00000000   0.835E-02       0.001       32.256   0.100E-07
     TRS4 it   7 1.00000000   0.176E-03       0.001       32.256   0.100E-07
     TRS4 it   8 1.00000000   0.109E-06       0.001       32.256   0.100E-07
     TRS4 it   9 1.00000000   0.511E-13       0.001       32.256   0.100E-07
     Final TRS4 iteration    9 1.00000000   0.511E-13
     Chemical potential (mu):       0.01347
 
 PAO| energy:  -7.7795349349019896      penalty:   1.2637792938789254E-005
 PAO|LS| adapt:  T T F
 PAO|LS| adapt: scan_steps:    0.0000000000000000       0.48739507381707442        0.0000000000000000     
 PAO|LS| adapt: energies:   -7.7795242211303712       -7.7795349349019896        0.0000000000000000     
 PAO| ======================= Iteration:        31 =============================

     Lanczos converged:  T threshold:   0.100E-02
     Est. extremal eigenvalues:    0.276E+01   0.183E+00
     Est. condition number :    0.151E+02

 Order=           3
     NS sqrt iter    1 1.00000000   0.703E+00       0.001       59.179
     NS sqrt iter    2 1.00000000   0.327E+00       0.001       99.201
     NS sqrt iter    3 1.00000000   0.741E-01       0.001       99.349
     NS sqrt iter    4 1.00000000   0.175E-02       0.001       99.945
     NS sqrt iter    5 1.00000000   0.462E-07       0.001       67.189
     Symmetrizing Results
     Final NS sqrt iter    5 1.00000000   0.387E-09

     Est. extremal eigenvalues     -0.93596     1.68785  converged:  T
     TRS4 it   1 1.00000000   0.877E+00       0.000       16.128   0.100E-07
     TRS4 it   2 1.00000000   0.614E+00       0.001       32.256   0.100E-07
     TRS4 it   3 1.00000000   0.416E+00       0.001       32.256   0.100E-07
     TRS4 it   4 1.00000000   0.209E+00       0.001       32.256   0.100E-07
     TRS4 it   5 1.00000000   0.661E-01       0.001       32.256   0.100E-07
     TRS4 it   6 1.00000000   0.832E-02       0.001       32.256   0.100E-07
     TRS4 it   7 1.00000000   0.174E-03       0.001       32.256   0.100E-07
     TRS4 it   8 1.00000000   0.107E-06       0.001       32.256   0.100E-07
     TRS4 it   9 1.00000000   0.493E-13       0.001       32.256   0.100E-07
     Final TRS4 iteration    9 1.00000000   0.493E-13
     Chemical potential (mu):       0.01369
 
 PAO| energy:  -7.7795390822396184      penalty:   1.1850206016481210E-005
 PAO|LS| Need extra step
 PAO|LS| adapt:  T T F
 PAO|LS| adapt: scan_steps:    0.0000000000000000       0.97479014763414884        0.0000000000000000     
 PAO|LS| adapt: energies:   -7.7795242211303712       -7.7795390822396184        0.0000000000000000     
 PAO| ======================= Iteration:        32 =============================

     Lanczos converged:  T threshold:   0.100E-02
     Est. extremal eigenvalues:    0.276E+01   0.183E+00
     Est. condition number :    0.151E+02

 Order=           3
     NS sqrt iter    1 1.00000000   0.702E+00       0.001       57.950
[...]
     Est. condition number :    0.130E+02

 Order=           3
     NS sqrt iter    1 1.00000000   0.629E+00       0.001       61.488
     NS sqrt iter    2 1.00000000   0.273E+00       0.001      104.082
     NS sqrt iter    3 1.00000000   0.479E-01       0.001       98.828
     NS sqrt iter    4 1.00000000   0.736E-03       0.001      105.430
     NS sqrt iter    5 1.00000000   0.526E-08       0.001       38.144
     Symmetrizing Results
     Final NS sqrt iter    5 1.00000000   0.315E-09

     Est. extremal eigenvalues     -0.93565     1.63138  converged:  T
     TRS4 it   1 1.00000000   0.884E+00       0.000       16.128   0.100E-07
     TRS4 it   2 1.00000000   0.633E+00       0.001       32.256   0.100E-07
     TRS4 it   3 1.00000000   0.454E+00       0.001       32.256   0.100E-07
     TRS4 it   4 1.00000000   0.276E+00       0.001       32.256   0.100E-07
     TRS4 it   5 1.00000000   0.136E+00       0.001       32.256   0.100E-07
     TRS4 it   6 1.00000000   0.418E-01       0.001       32.256   0.100E-07
     TRS4 it   7 1.00000000   0.547E-02       0.001       32.256   0.100E-07
     TRS4 it   8 1.00000000   0.126E-03       0.001       32.256   0.100E-07
     TRS4 it   9 1.00000000   0.719E-07       0.001       32.256   0.100E-07
     Final TRS4 iteration    9 1.00000000   0.719E-07
     Chemical potential (mu):      -0.07166
 
 PAO| energy:  -7.7787824147164111      penalty:   2.7847846652346771E-008
 PAO|CG| warming up with steepest descent
 PAO|CG| beta:    0.0000000000000000     
 PAO| norm of gradient:   1.2921354575387234E-004
 PAO| energy improvement:  -5.3795146115476200E-009
 PAO| step    409                   -7.778782415  0.808E-05  0.257E+00     0.076
 PAO| converged after          409  steps :-)
 PAO| Recalculating energy after mixing.

     Lanczos converged:  T threshold:   0.100E-02
     Est. extremal eigenvalues:    0.248E+01   0.191E+00
     Est. condition number :    0.130E+02

 Order=           3
     NS sqrt iter    1 1.00000000   0.629E+00       0.001       62.531
     NS sqrt iter    2 1.00000000   0.273E+00       0.001      107.025
     NS sqrt iter    3 1.00000000   0.479E-01       0.001      105.283
     NS sqrt iter    4 1.00000000   0.736E-03       0.001      104.053
     NS sqrt iter    5 1.00000000   0.526E-08       0.001       38.144
     Symmetrizing Results
     Final NS sqrt iter    5 1.00000000   0.315E-09

     Est. extremal eigenvalues     -0.93565     1.63137  converged:  T
     TRS4 it   1 1.00000000   0.884E+00       0.000       16.128   0.100E-07
     TRS4 it   2 1.00000000   0.633E+00       0.001       32.256   0.100E-07
     TRS4 it   3 1.00000000   0.454E+00       0.001       32.256   0.100E-07
     TRS4 it   4 1.00000000   0.276E+00       0.001       32.256   0.100E-07
     TRS4 it   5 1.00000000   0.136E+00       0.001       32.256   0.100E-07
     TRS4 it   6 1.00000000   0.418E-01       0.001       32.256   0.100E-07
     TRS4 it   7 1.00000000   0.547E-02       0.001       32.256   0.100E-07
     TRS4 it   8 1.00000000   0.126E-03       0.001       32.256   0.100E-07
     TRS4 it   9 1.00000000   0.719E-07       0.001       32.256   0.100E-07
     Final TRS4 iteration    9 1.00000000   0.719E-07
     Chemical potential (mu):      -0.07166
 
 PAO| energy:  -7.7787824133715135      penalty:   2.8137431375406955E-008
 PAO| Writing restart file.
     Est. extremal eigenvalues     -0.93565     1.63137  converged:  T
     TRS4 it   1 1.00000000   0.884E+00       0.000       16.128   0.100E-07
     TRS4 it   2 1.00000000   0.633E+00       0.001       32.256   0.100E-07
     TRS4 it   3 1.00000000   0.454E+00       0.001       32.256   0.100E-07
     TRS4 it   4 1.00000000   0.276E+00       0.001       32.256   0.100E-07
     TRS4 it   5 1.00000000   0.136E+00       0.001       32.256   0.100E-07
     TRS4 it   6 1.00000000   0.418E-01       0.001       32.256   0.100E-07
     TRS4 it   7 1.00000000   0.547E-02       0.001       32.256   0.100E-07
     TRS4 it   8 1.00000000   0.126E-03       0.001       32.256   0.100E-07
     TRS4 it   9 1.00000000   0.719E-07       0.001       32.256   0.100E-07
     Final TRS4 iteration    9 1.00000000   0.719E-07
     Chemical potential (mu):      -0.07166

 SCF     1       -34.449830651       -34.449830651    2.328125

*********************************************************
 Using MIXING_FRACTION=0.450 to mix KS matrix:  iscf=  2
 KS_nw=0.450*KS + 0.550*KS_old
*********************************************************
     Est. extremal eigenvalues     -0.93566     1.63138  converged:  T
     TRS4 it   1 1.00000000   0.884E+00       0.000       16.128   0.100E-07
     TRS4 it   2 1.00000000   0.633E+00       0.000       32.256   0.100E-07
     TRS4 it   3 1.00000000   0.454E+00       0.000       32.256   0.100E-07
     TRS4 it   4 1.00000000   0.276E+00       0.000       32.256   0.100E-07
     TRS4 it   5 1.00000000   0.136E+00       0.000       32.256   0.100E-07
     TRS4 it   6 1.00000000   0.418E-01       0.000       32.256   0.100E-07
     TRS4 it   7 1.00000000   0.547E-02       0.000       32.256   0.100E-07
     TRS4 it   8 1.00000000   0.127E-03       0.000       32.256   0.100E-07
     TRS4 it   9 1.00000000   0.719E-07       0.000       32.256   0.100E-07
     Final TRS4 iteration    9 1.00000000   0.719E-07
     Chemical potential (mu):      -0.07166

 SCF     2       -34.449830651        -0.000000000    1.574296


 SCF run converged in     2 steps.

 PAO| Storing density matrix for ASPC guess in slot:           1

 ENERGY| Total FORCE_EVAL ( QS ) energy [a.u.]:              -34.449830651317882

 -------------------------------------------------------------------------------
 -                                                                             -
 -                                DBCSR STATISTICS                             -
 -                                                                             -
 -------------------------------------------------------------------------------
 COUNTER                                    TOTAL       BLAS       SMM       ACC
 flops     5 x     5 x     4                20000       0.0%    100.0%      0.0%
 flops    13 x     5 x     4                20800       0.0%    100.0%      0.0%
 flops     5 x    13 x     4                20800       0.0%    100.0%      0.0%
 flops    13 x    13 x     4                40560       0.0%    100.0%      0.0%
 flops     4 x     4 x     5              3214080       0.0%    100.0%      0.0%
 flops     5 x     4 x     5              3926400       0.0%    100.0%      0.0%
 flops     4 x     4 x    13              4178304       0.0%    100.0%      0.0%
 flops    13 x     4 x     5              5104320       0.0%    100.0%      0.0%
 flops     5 x     4 x    13              5104320       0.0%    100.0%      0.0%
 flops     5 x     4 x     4              6559520       0.0%    100.0%      0.0%
 flops    13 x     4 x    13              6635616       0.0%    100.0%      0.0%
 flops    13 x     4 x     4              8878272       0.0%    100.0%      0.0%
 flops     4 x     4 x     4            409469696       0.0%    100.0%      0.0%
 flops inhomo. stacks                           0       0.0%      0.0%      0.0%
 flops total                       453.172688E+06       0.0%    100.0%      0.0%
 flops max/rank                    453.172688E+06       0.0%    100.0%      0.0%
 matmuls inhomo. stacks                         0       0.0%      0.0%      0.0%
 matmuls total                            3335835       0.0%    100.0%      0.0%
 number of processed stacks                 26653       0.0%    100.0%      0.0%
 average stack size                                     0.0     125.2       0.0
 marketing flops                   735.331008E+06
 -------------------------------------------------------------------------------
 # multiplications                          22155
 max memory usage/rank             506.642432E+06
 # max total images/rank                        1
 # max 3D layers                                1
 # MPI messages exchanged                       0
 -------------------------------------------------------------------------------

 -------------------------------------------------------------------------------
 -                                                                             -
 -                                DBM STATISTICS                               -
 -                                                                             -
 -------------------------------------------------------------------------------
    M  x    N  x    K                                          COUNT     PERCENT
 -------------------------------------------------------------------------------

 -------------------------------------------------------------------------------
 -                                                                             -
 -                                GRID STATISTICS                              -
 -                                                                             -
 -------------------------------------------------------------------------------
 LP    KERNEL             BACKEND                              COUNT     PERCENT
 2     collocate ortho    REF                                  38340      30.83%
 2     integrate ortho    REF                                  38340      30.83%
 3     collocate ortho    REF                                  19630      15.78%
 3     integrate ortho    REF                                  19630      15.78%
 4     collocate ortho    REF                                   4210       3.39%
 4     integrate ortho    REF                                   4210       3.39%
 0     collocate general  REF                                      6       0.00%
 -------------------------------------------------------------------------------

 MEMORY| Estimated peak process memory [MiB]                                 484

 -------------------------------------------------------------------------------
 -                                                                             -
 -                           R E F E R E N C E S                               -
 -                                                                             -
 -------------------------------------------------------------------------------
 
 CP2K version 2023.1 (Development Version), the CP2K developers group (2023).
 CP2K is freely available from https://www.cp2k.org/ .

 Kuehne,Thomas D.; Iannuzzi,Marcella; Del Ben,Mauro;
 Rybkin,Vladimir V.; Seewald,Patrick; Stein,Frederick; Laino,Teodoro;
 Khaliullin,Rustam Z.; Schuett,Ole; Schiffmann,Florian; Golze,Dorothea;
 Wilhelm,Jan; Chulkov,Sergey; Bani-Hashemian,Mohammad Hossein;
 Weber,Valery; Borstnik,Urban; Taillefumier,Mathieu;
 Jakobovits,Alice Shoshana; Lazzaro,Alfio; Pabst,Hans; Mueller,Tiziano;
 Schade,Robert; Guidon,Manuel; Andermatt,Samuel; Holmberg,Nico;
 Schenter,Gregory K.; Hehn,Anna; Bussy,Augustin; Belleflamme,Fabian;
 Tabacchi,Gloria; Gloess,Andreas; Lass,Michael; Bethune,Iain;
 Mundy,Christopher J.; Plessl,Christian; Watkins,Matt;
 VandeVondele,Joost; Krack,Matthias; Hutter,Juerg. 
 The Journal of Chemical Physics, 152 (19), (2020). 
 CP2K: An electronic structure and molecular dynamics software package -
 Quickstep: Efficient and accurate electronic structure calculations.
 https://doi.org/10.1063/5.0007045

 Schuett, O; VandeVondele, J. 
 Journal of Chemical Theory and Computation, 14, (2018). 
 Machine Learning Adaptive Basis Sets for Efficient Large Scale
 Density Functional Theory Simulation.
 https://doi.org/10.1021/acs.jctc.8b00378

 Schuett, Ole; Messmer, Peter; Hutter, Juerg; VandeVondele, Joost. 
 Electronic Structure Calculations on Graphics Processing Units, John
 Wiley & Sons, Ltd, 173-190 (2016). 
 GPU-Accelerated Sparse Matrix-Matrix Multiplication for
 Linear Scaling Density Functional Theory.
 https://doi.org/10.1002/9781118670712.ch8

 Heinecke, A; Henry, G; Hutchinson, M; Pabst, H. 
 Proceedings of Intl. Supercomputing Conference, 981-991 (2016). 
 LIBXSMM: Accelerating Small Matrix Multiplications
 by Runtime Code Generation.
 https://doi.org/10.1109/SC.2016.83

 Borstnik, U; VandeVondele, J; Weber, V; Hutter, J. 
 PARALLEL COMPUTING, 40 (5-6), 47-58 (2014). 
 Sparse matrix multiplication: The distributed block-compressed sparse
 row library.
 https://doi.org/10.1016/j.parco.2014.03.012

 Hutter, J; Iannuzzi, M; Schiffmann, F; VandeVondele, J. 
 WIREs Comput Mol Sci., 4 (1), 15-25 (2014). 
 CP2K: atomistic simulations of condensed matter systems.
 https://doi.org/10.1002/wcms.1159

 VandeVondele, J; Borstnik, U; Hutter, J. 
 JOURNAL OF CHEMICAL THEORY AND COMPUTATION, 8 (10), 3565-3573 (2012). 
 Linear Scaling Self-Consistent Field Calculations with Millions of Atoms
 in the Condensed Phase.
 https://doi.org/10.1021/ct200897x

 VandeVondele, J; Hutter, J. 
 JOURNAL OF CHEMICAL PHYSICS, 127 (11), 114105 (2007). 
 Gaussian basis sets for accurate calculations on molecular systems in
 gas and condensed phases.
 https://doi.org/10.1063/1.2770708

 Krack, M. 
 THEORETICAL CHEMISTRY ACCOUNTS, 114 (1-3), 145-152 (2005). 
 Pseudopotentials for H to Kr optimized for gradient-corrected
 exchange-correlation functionals.
 https://doi.org/10.1007/s00214-005-0655-y

 VandeVondele, J; Krack, M; Mohamed, F; Parrinello, M; Chassaing, T;
 Hutter, J. COMPUTER PHYSICS COMMUNICATIONS, 167 (2), 103-128 (2005). 
 QUICKSTEP: Fast and accurate density functional calculations using a
 mixed Gaussian and plane waves approach.
 https://doi.org/10.1016/j.cpc.2004.12.014

 Frigo, M; Johnson, SG. 
 PROCEEDINGS OF THE IEEE, 93 (2), 216-231 (2005). 
 The design and implementation of FFTW3.
 https://doi.org/10.1109/JPROC.2004.840301

 Niklasson, AMN; Tymczak, CJ; Challacombe, M. 
 JOURNAL OF CHEMICAL PHYSICS, 118 (19), 8611-8620 (2003). 
 Trace resetting density matrix purification in O(N)
 self-consistent-field theory.
 https://doi.org/10.1063/1.1559913

 Hartwigsen, C; Goedecker, S; Hutter, J. 
 PHYSICAL REVIEW B, 58 (7), 3641-3662 (1998). 
 Relativistic separable dual-space Gaussian pseudopotentials from H to Rn.
 https://doi.org/10.1103/PhysRevB.58.3641

 Lippert, G; Hutter, J; Parrinello, M. 
 MOLECULAR PHYSICS, 92 (3), 477-487 (1997). 
 A hybrid Gaussian and plane wave density functional scheme.
 https://doi.org/10.1080/002689797170220

 Perdew, JP; Burke, K; Ernzerhof, M. 
 PHYSICAL REVIEW LETTERS, 77 (18), 3865-3868 (1996). 
 Generalized gradient approximation made simple.
 https://doi.org/10.1103/PhysRevLett.77.3865

 Goedecker, S; Teter, M; Hutter, J. 
 PHYSICAL REVIEW B, 54 (3), 1703-1710 (1996). 
 Separable dual-space Gaussian pseudopotentials.
 https://doi.org/10.1103/PhysRevB.54.1703


 -------------------------------------------------------------------------------
 -                                                                             -
 -                                T I M I N G                                  -
 -                                                                             -
 -------------------------------------------------------------------------------
 SUBROUTINE                       CALLS  ASD         SELF TIME        TOTAL TIME
                                MAXIMUM       AVERAGE  MAXIMUM  AVERAGE  MAXIMUM
 CP2K                                 1  1.0    0.012    0.012   38.466   38.466
 qs_energies                          1  2.0    0.000    0.000   37.875   37.875
 ls_scf                               1  3.0    0.000    0.000   37.696   37.696
 ls_scf_main                          4  4.0    0.001    0.001   26.709   26.709
 ls_scf_dm_to_ks                      9  5.0    0.000    0.000   26.624   26.624
 qs_ks_update_qs_env                 10  6.0    0.000    0.000   22.837   22.837
 rebuild_ks_matrix                   10  7.0    0.000    0.000   22.836   22.836
 qs_ks_build_kohn_sham_matrix        10  8.0    0.004    0.004   22.836   22.836
 qs_vxc_create                       10  9.0    0.000    0.000   14.114   14.114
 xc_vxc_pw_create                    10 10.0    0.234    0.234   14.113   14.113
 pw_transfer                        191 11.1    0.031    0.031   12.605   12.605
 fft_wrap_pw1pw2                    171 12.3    0.004    0.004   12.227   12.227
 fft_wrap_pw1pw2_200                111 13.7    1.113    1.113   11.835   11.835
 xc_rho_set_and_dset_create          10 11.0    0.300    0.300    8.810    8.810
 xc_pw_derive                        60 12.0    0.002    0.002    8.464    8.464
 pao_update                           4  4.0    0.008    0.008    7.915    7.915
 pao_calc_energy                    412  5.0    0.003    0.003    7.155    7.155
 qs_rho_update_rho_low               10  6.0    0.000    0.000    6.804    6.804
 calculate_rho_elec                  10  7.0    0.058    0.058    6.804    6.804
 sum_up_and_integrate                10  9.0    0.160    0.160    6.131    6.131
 integrate_v_rspace                  10 10.0    0.001    0.001    5.971    5.971
 fft3d_s                            172 14.2    5.840    5.840    5.865    5.865
 dbcsr_multiply_generic           22155  8.4    0.355    0.355    5.690    5.690
 xc_pw_divergence                    10 11.0    0.001    0.001    4.907    4.907
 grid_integrate_task_list            10 11.0    4.599    4.599    4.599    4.599
 grid_collocate_task_list            10  8.0    4.159    4.159    4.159    4.159
 pao_dm_trs4                        412  6.0    0.002    0.002    3.692    3.692
 density_matrix_trs4                421  7.0    0.121    0.121    3.553    3.553
 ls_scf_init_matrix_S               416  7.0    0.003    0.003    3.442    3.442
 pao_rebuild_S                      412  6.0    0.001    0.001    3.411    3.411
 xc_functional_eval                  10 12.0    0.000    0.000    3.387    3.387
 pbe_lda_eval                        10 13.0    3.386    3.386    3.386    3.386
 matrix_sqrt_Newton_Schulz          416  8.0    0.075    0.075    3.109    3.109
 pao_guess_initial_P                  1  4.0    0.000    0.000    3.023    3.023
 pao_read_preopt_dm                   1  5.0    0.000    0.000    3.023    3.023
 pw_scatter_s                        90 14.7    2.780    2.780    2.780    2.780
 density_rs2pw                       10  8.0    0.001    0.001    2.587    2.587
 pw_gather_s                         81 13.8    2.425    2.425    2.425    2.425
 make_m2s                         44310  9.4    0.135    0.135    2.133    2.133
 multiply_cannon                  22155  9.4    0.877    0.877    2.126    2.126
 make_images                      44310 10.4    0.527    0.527    1.890    1.890
 pw_derive                           60 13.0    1.509    1.509    1.509    1.509
 potential_pw2rs                     10 11.0    0.004    0.004    1.371    1.371
 pw_copy                            120 11.8    1.227    1.227    1.227    1.227
 arnoldi_extremal                   837  8.5    0.003    0.003    1.130    1.130
 arnoldi_normal_ev                  837  9.5    0.009    0.009    1.127    1.127
 pw_poisson_solve                    10  9.0    0.165    0.165    0.884    0.884
 build_subspace                     837 10.5    0.046    0.046    0.882    0.882
 dbcsr_matrix_vector_mult         20086 11.5    0.095    0.095    0.820    0.820
 -------------------------------------------------------------------------------

 The number of warnings for this run is : 0
 
 -------------------------------------------------------------------------------
  **** **** ******  **  PROGRAM ENDED AT                 2023-02-01 10:44:33.671
 ***** ** ***  *** **   PROGRAM RAN ON                                    moritz
 **    ****   ******    PROGRAM RAN BY                                       ole
 ***** **    ** ** **   PROGRAM PROCESS ID                                148504
  **** **  *******  **  PROGRAM STOPPED IN /home/ole/git/pao_ml_equivar/2H2O_rot
                                           ations/rand_08
