 DBCSR| CPU Multiplication driver                                           BLAS
 DBCSR| Multrec recursion limit                                              512
 DBCSR| Multiplication stack size                                           1000
 DBCSR| Maximum elements for images                                    UNLIMITED
 DBCSR| Multiplicative factor virtual images                                   1
 DBCSR| Use multiplication densification                                       T
 DBCSR| Multiplication size stacks                                             3


  **** **** ******  **  PROGRAM STARTED AT               2019-03-28 17:34:00.812
 ***** ** ***  *** **   PROGRAM STARTED ON        oleschuett.zrh.corp.google.com
 **    ****   ******    PROGRAM STARTED BY                            oleschuett
 ***** **    ** ** **   PROGRAM PROCESS ID                                 35616
  **** **  *******  **  PROGRAM STARTED IN /usr/local/google/home/oleschuett/git
                                           /pao_ml_equivar/2H2O_rotations/rand_0
                                           8

 CP2K| version string:                    CP2K version 7.0 (Development Version)
 CP2K| source code revision number:                                git:d9814d431
 CP2K| cp2kflags: libint fftw3 libxc libderiv_max_am1=5 libint_max_am=6         
 CP2K| is freely available from                            https://www.cp2k.org/
 CP2K| Program compiled at                          Mon Mar 25 16:50:07 CET 2019
 CP2K| Program compiled on                        oleschuett.zrh.corp.google.com
 CP2K| Program compiled for                                                local
 CP2K| Data directory path       /usr/local/google/home/oleschuett/git/cp2k/data
 CP2K| Input file name                                            2H2O_pao44.inp

 GLOBAL| Force Environment number                                              1
 GLOBAL| Basis set file name                                        BASIS_MOLOPT
 GLOBAL| Potential file name                                      GTH_POTENTIALS
 GLOBAL| MM Potential file name                                     MM_POTENTIAL
 GLOBAL| Coordinate file name                                         coords.xyz
 GLOBAL| Method name                                                        CP2K
 GLOBAL| Project name                                                 2H2O_pao44
 GLOBAL| Preferred FFT library                                             FFTW3
 GLOBAL| Preferred diagonalization lib.                                       SL
 GLOBAL| Run type                                                         ENERGY
 GLOBAL| All-to-all communication in single precision                          F
 GLOBAL| FFTs using library dependent lengths                                  F
 GLOBAL| Global print level                                                  LOW
 GLOBAL| MPI I/O enabled                                                       T
 GLOBAL| Total number of message passing processes                             1
 GLOBAL| Number of threads for this process                                    1
 GLOBAL| This output is from process                                           0
 GLOBAL| CPU model name :  Intel(R) Xeon(R) CPU E5-1650 v4 @ 3.60GHz

 MEMORY| system memory details [Kb]
 MEMORY|                        rank 0           min           max       average
 MEMORY| MemTotal             65953612      65953612      65953612      65953612
 MEMORY| MemFree               4469568       4469568       4469568       4469568
 MEMORY| Buffers               2543220       2543220       2543220       2543220
 MEMORY| Cached               25354584      25354584      25354584      25354584
 MEMORY| Slab                  3622080       3622080       3622080       3622080
 MEMORY| SReclaimable          2421472       2421472       2421472       2421472
 MEMORY| MemLikelyFree        34788844      34788844      34788844      34788844


 GENERATE|  Preliminary Number of Bonds generated:                             0
 GENERATE|  Achieved consistency in connectivity generation.

 *******************************************************************************
 *******************************************************************************
 **                                                                           **
 **     #####                         ##              ##                      **
 **    ##   ##            ##          ##              ##                      **
 **   ##     ##                       ##            ######                    **
 **   ##     ##  ##   ##  ##   #####  ##  ##   ####   ##    #####    #####    **
 **   ##     ##  ##   ##  ##  ##      ## ##   ##      ##   ##   ##  ##   ##   **
 **   ##  ## ##  ##   ##  ##  ##      ####     ###    ##   ######   ######    **
 **    ##  ###   ##   ##  ##  ##      ## ##      ##   ##   ##       ##        **
 **     #######   #####   ##   #####  ##  ##  ####    ##    #####   ##        **
 **           ##                                                    ##        **
 **                                                                           **
 **                                                ... make the atoms dance   **
 **                                                                           **
 **            Copyright (C) by CP2K developers group (2000 - 2018)           **
 **                                                                           **
 *******************************************************************************


 TOTAL NUMBERS AND MAXIMUM NUMBERS

  Total number of            - Atomic kinds:                                   2
                             - Atoms:                                          6
                             - Shell sets:                                     6
                             - Shells:                                        22
                             - Primitive Cartesian functions:                 42
                             - Cartesian basis functions:                     48
                             - Spherical basis functions:                     46

  Maximum angular momentum of- Orbital basis functions:                        2
                             - Local part of the GTH pseudopotential:          2
                             - Non-local part of the GTH pseudopotential:      0

 ------------------------------ Linear scaling SCF -----------------------------
 eps_scf:                                                              0.100E-07
 eps_filter:                                                           0.100E-07
 mixing_fraction:                                                      0.450E+00
 max_scf:                                                                     25
 fixed chemical potential (mu)                                                 F
 has unit metric:                                                              F
 Computing inv(S):                                                             T
 Computing sqrt(S):                                                            T
 Computing s preconditioner                                                    F
 sign sqrt order:                                                              3
 Extrapolation order:                                                          1
 Use single precision matrices                                                 F
 S preconditioner type                                                      NONE
 Polarized Atomic Orbitals (PAO)                                               T
 Purification method                                   Trace resetting 4th order
 Cluster type                                                             ATOMIC
 Computing Chebyshev                                                       FALSE
 Using PAO                                                                     T
 -------------------------------------------------------------------------------

 
 PAO|                                  EPS_PAO                           0.1E-04
 PAO|                                  MIXING                            0.5E+00
 PAO|                                  MAX_PAO                              1000
 PAO|                                  MAX_CYCLES                           1000
 PAO|                                  PARAMETERIZATION                   DIRECT
 PAO|                                  PRECONDITION                            F
 PAO|                                  REGULARIZATION                    0.0E+00
 PAO|                                  EPS_PGF                           0.1E-09
 PAO|                                  PENALTY_DISTANCE                  0.1E+00
 PAO|                                  PENALTY_STRENGTH                  0.5E-02
 PAO|                                  LINPOT_PRECONDITION_DELTA         0.0E+00
 PAO|                                  LINPOT_INITGUESS_DELT             0.0E+00
 PAO|                                  LINPOT_REGULARIZATION_DELTA       0.0E+00
 PAO|                                  LINPOT_REGULARIZATION_STRENGTH    0.0E+00
 PAO|                                  OPTIMIZER                              CG
 PAO|                                  CG_INIT_STEPS                           2
 PAO|                                  CG_RESET_LIMIT                    0.1E+00
 PAO|                                  CHECK_UNITARY_TOL                -0.1E+01
 PAO|                                  CHECK_GRADIENT_TOL               -0.1E+01
 PAO|                                  NUM_GRADIENT_ORDER                      2
 PAO|                                  NUM_GRADIENT_EPS                  0.1E-07
 PAO|                                  PRINT%RESTART%WRITE_CYCLES            100
 PAO|                                  RESTART_FILE 
 PAO|                                  PREOPT_DM_FILE 2H2O_ref_LS_DM_SPIN_1_RESTART.dm
 PAO|                                  MACHINE_LEARNING%METHOD        GAUSSIAN_P
 PAO|                                  MACHINE_LEARNING%PRIOR               ZERO
 PAO|                                  MACHINE_LEARNING%DESCRIPTOR     POTENTIAL
 PAO|                                  MACHINE_LEARNING%TOLERANCE        0.1E-01
 PAO|                                  MACHINE_LEARNING%GP_NOISE_VAR     0.1E+00
 PAO|                                  MACHINE_LEARNING%GP_SCALE         0.5E-01
 

 Calculating atomic Fock matrix for atomic kind: O

 Electronic structure
    Total number of core electrons                                          2.00
    Total number of valence electrons                                       6.00
    Total number of electrons                                               8.00
    Multiplicity                                                   not specified
    S   [  2.00] 2.00
    P      4.00


 *******************************************************************************
                  Iteration          Convergence                     Energy [au]
 *******************************************************************************
                          1        0.708315                     -15.576645311500
                          2        0.608879                     -15.587933561584
                          3        0.102828E-01                 -15.656849565404
                          4        0.113889E-02                 -15.656866888140
                          5        0.434197E-03                 -15.656867072159
                          6        0.263771E-03                 -15.656867091904
                          7        0.478536E-06                 -15.656867103452

 Energy components [Hartree]           Total Energy ::          -15.656867103452
                                        Band Energy ::           -3.000198112285
                                     Kinetic Energy ::           11.759971203220
                                   Potential Energy ::          -27.416838306672
                                      Virial (-V/T) ::            2.331369510426
                                        Core Energy ::          -26.140716385623
                                          XC Energy ::           -3.154051012914
                                     Coulomb Energy ::           13.637900295084
                       Total Pseudopotential Energy ::          -37.935781716540
                       Local Pseudopotential Energy ::          -39.218907440693
                    Nonlocal Pseudopotential Energy ::            1.283125724153
                                        Confinement ::            0.350941276976

 Orbital energies  State     L     Occupation   Energy[a.u.]          Energy[eV]

                       1     0          2.000      -0.864471          -23.523463

                       1     1          4.000      -0.317814           -8.648154


 Total Electron Density at R=0:                                         0.000068

 Calculating atomic Fock matrix for atomic kind: H

 Electronic structure
    Total number of core electrons                                          0.00
    Total number of valence electrons                                       1.00
    Total number of electrons                                               1.00
    Multiplicity                                                   not specified
    S      1.00


 *******************************************************************************
                  Iteration          Convergence                     Energy [au]
 *******************************************************************************
                          1        0.437545E-02                  -0.424159432110
                          2        0.531356E-03                  -0.424178438213
                          3        0.259176E-06                  -0.424178722480

 Energy components [Hartree]           Total Energy ::           -0.424178722480
                                        Band Energy ::           -0.199015229016
                                     Kinetic Energy ::            0.464007633961
                                   Potential Energy ::           -0.888186356441
                                      Virial (-V/T) ::            1.914163240935
                                        Core Energy ::           -0.479160803564
                                          XC Energy ::           -0.244352904054
                                     Coulomb Energy ::            0.299334985138
                       Total Pseudopotential Energy ::           -0.962295316385
                       Local Pseudopotential Energy ::           -0.962295316385
                    Nonlocal Pseudopotential Energy ::            0.000000000000
                                        Confinement ::            0.191268788606

 Orbital energies  State     L     Occupation   Energy[a.u.]          Energy[eV]

                       1     0          1.000      -0.199015           -5.415480


 Total Electron Density at R=0:                                         0.242907
 PAO| Made initial guess for matrix_X with norm:   4.8989794855663558     

     Lanczos converged:  T threshold:   0.100E-02
     Est. extremal eigenvalues:    0.337E+01   0.112E+00
     Est. condition number :    0.302E+02
     NS sqrt iter    1 1.00000000   0.822E+00       0.002       38.172
     NS sqrt iter    2 1.00000000   0.440E+00       0.002       51.091
     NS sqrt iter    3 1.00000000   0.171E+00       0.002       65.448
     NS sqrt iter    4 1.00000000   0.211E-01       0.002       71.373
     NS sqrt iter    5 1.00000000   0.607E-04       0.002       58.464
     Final NS sqrt iter    5 1.00000000   0.494E-08

 PAO| Read restart DM 2H2O_ref_LS_DM_SPIN_1_RESTART.dm with checksum:    49.871885194240697     
 PAO| Quickstep energy from restart density:  -34.450147861984213     
 PAO| ======================= Iteration:         1 =============================

     Lanczos converged:  T threshold:   0.100E-02
     Est. extremal eigenvalues:    0.337E+01   0.112E+00
     Est. condition number :    0.302E+02
     NS sqrt iter    1 1.00000000   0.822E+00       0.001       60.358
     NS sqrt iter    2 1.00000000   0.440E+00       0.001       90.248
     NS sqrt iter    3 1.00000000   0.171E+00       0.001       92.624
     NS sqrt iter    4 1.00000000   0.211E-01       0.002       68.936
     NS sqrt iter    5 1.00000000   0.607E-04       0.002       59.161
     Final NS sqrt iter    5 1.00000000   0.494E-08

     Est. extremal eigenvalues     -0.92009     1.93072  converged:  T
     TRS4 it   1 1.00000000   0.899E+00       0.001       16.128   0.100E-07
     TRS4 it   2 1.00000000   0.704E+00       0.001       32.256   0.100E-07
     TRS4 it   3 1.00000000   0.504E+00       0.001       32.256   0.100E-07
     TRS4 it   4 1.00000000   0.316E+00       0.001       32.256   0.100E-07
     TRS4 it   5 1.00000000   0.158E+00       0.001       32.256   0.100E-07
     TRS4 it   6 1.00000000   0.502E-01       0.001       32.256   0.100E-07
     TRS4 it   7 1.00000000   0.701E-02       0.001       32.256   0.100E-07
     TRS4 it   8 1.00000000   0.194E-03       0.001       32.256   0.100E-07
     TRS4 it   9 1.00000000   0.168E-06       0.001       32.256   0.100E-07
     TRS4 it  10 1.00000000   0.126E-12       0.001       32.256   0.100E-07
     Final TRS4 iteration   10 1.00000000   0.126E-12
     Chemical potential (mu):      -0.06400
 
 PAO| energy:  -7.6178585020152543      penalty:   5.9780865473779806E-033
 PAO|CG| warming up with steepest descent
 PAO|CG| beta:    0.0000000000000000     
 PAO| norm of gradient:  0.78389179005781107     
 PAO|LS| adapt:  T F F
 PAO|LS| adapt: scan_steps:    0.0000000000000000        0.0000000000000000        0.0000000000000000     
 PAO|LS| adapt: energies:   -7.6178585020152543        0.0000000000000000        0.0000000000000000     
 PAO| ======================= Iteration:         2 =============================

     Lanczos converged:  T threshold:   0.100E-02
     Est. extremal eigenvalues:    0.328E+01   0.124E+00
     Est. condition number :    0.265E+02
     NS sqrt iter    1 1.00000000   0.805E+00       0.001       55.617
     NS sqrt iter    2 1.00000000   0.424E+00       0.002       71.650
     NS sqrt iter    3 1.00000000   0.153E+00       0.002       65.923
     NS sqrt iter    4 1.00000000   0.147E-01       0.002       66.411
     NS sqrt iter    5 1.00000000   0.203E-04       0.002       55.070
     Final NS sqrt iter    5 1.00000000   0.636E-09

     Est. extremal eigenvalues     -0.92376     1.87325  converged:  T
     TRS4 it   1 1.00000000   0.897E+00       0.000       16.128   0.100E-07
     TRS4 it   2 1.00000000   0.685E+00       0.001       32.256   0.100E-07
     TRS4 it   3 1.00000000   0.488E+00       0.001       32.256   0.100E-07
     TRS4 it   4 1.00000000   0.297E+00       0.001       32.256   0.100E-07
     TRS4 it   5 1.00000000   0.139E+00       0.001       32.256   0.100E-07
     TRS4 it   6 1.00000000   0.390E-01       0.001       24.159   0.100E-07
     TRS4 it   7 1.00000000   0.429E-02       0.001       32.256   0.100E-07
     TRS4 it   8 1.00000000   0.733E-04       0.001       32.256   0.100E-07
     TRS4 it   9 1.00000000   0.239E-07       0.001       32.256   0.100E-07
     Final TRS4 iteration    9 1.00000000   0.239E-07
     Chemical potential (mu):      -0.05215
 
 PAO| energy:  -7.6734020859799035      penalty:   2.2575034275155857E-008
 PAO|LS| adapt:  T T F
 PAO|LS| adapt: scan_steps:    0.0000000000000000       0.10000000000000001        0.0000000000000000     
 PAO|LS| adapt: energies:   -7.6178585020152543       -7.6734020859799035        0.0000000000000000     
 PAO| ======================= Iteration:         3 =============================

     Lanczos converged:  T threshold:   0.100E-02
     Est. extremal eigenvalues:    0.319E+01   0.135E+00
     Est. condition number :    0.236E+02
     NS sqrt iter    1 1.00000000   0.787E+00       0.001       43.282
     NS sqrt iter    2 1.00000000   0.408E+00       0.001       79.875
     NS sqrt iter    3 1.00000000   0.136E+00       0.001       97.220
     NS sqrt iter    4 1.00000000   0.102E-01       0.001      101.538
     NS sqrt iter    5 1.00000000   0.706E-05       0.001       69.821
     Final NS sqrt iter    5 1.00000000   0.771E-10

     Est. extremal eigenvalues     -0.92720     1.82603  converged:  T
     TRS4 it   1 1.00000000   0.894E+00       0.001       16.128   0.100E-07
     TRS4 it   2 1.00000000   0.668E+00       0.001       32.256   0.100E-07
     TRS4 it   3 1.00000000   0.473E+00       0.001       32.256   0.100E-07
     TRS4 it   4 1.00000000   0.277E+00       0.001       32.256   0.100E-07
     TRS4 it   5 1.00000000   0.121E+00       0.001       32.256   0.100E-07
     TRS4 it   6 1.00000000   0.294E-01       0.001       32.256   0.100E-07
     TRS4 it   7 1.00000000   0.243E-02       0.001       32.256   0.100E-07
     TRS4 it   8 1.00000000   0.237E-04       0.001       32.256   0.100E-07
     TRS4 it   9 1.00000000   0.249E-08       0.001       32.256   0.100E-07
     Final TRS4 iteration    9 1.00000000   0.249E-08
     Chemical potential (mu):      -0.03933
 
 PAO| energy:  -7.7164777009982739      penalty:   3.6120086817202043E-007
 PAO|LS| adapt:  T T F
 PAO|LS| adapt: scan_steps:    0.0000000000000000       0.20000000000000001        0.0000000000000000     
 PAO|LS| adapt: energies:   -7.6178585020152543       -7.7164777009982739        0.0000000000000000     
 PAO| ======================= Iteration:         4 =============================

     Lanczos converged:  T threshold:   0.100E-02
     Est. extremal eigenvalues:    0.299E+01   0.154E+00
     Est. condition number :    0.194E+02
     NS sqrt iter    1 1.00000000   0.750E+00       0.001       63.552
     NS sqrt iter    2 1.00000000   0.373E+00       0.001       94.093
     NS sqrt iter    3 1.00000000   0.106E+00       0.001       99.447
     NS sqrt iter    4 1.00000000   0.499E-02       0.001       93.923
     NS sqrt iter    5 1.00000000   0.986E-06       0.001       62.778
     Final NS sqrt iter    5 1.00000000   0.161E-11

     Est. extremal eigenvalues     -0.93252     1.75529  converged:  T
     TRS4 it   1 1.00000000   0.889E+00       0.000       16.128   0.100E-07
     TRS4 it   2 1.00000000   0.640E+00       0.001       32.256   0.100E-07
     TRS4 it   3 1.00000000   0.444E+00       0.001       32.256   0.100E-07
     TRS4 it   4 1.00000000   0.241E+00       0.001       32.256   0.100E-07
     TRS4 it   5 1.00000000   0.889E-01       0.001       32.256   0.100E-07
     TRS4 it   6 1.00000000   0.154E-01       0.001       32.256   0.100E-07
     TRS4 it   7 1.00000000   0.643E-03       0.001       32.256   0.100E-07
     TRS4 it   8 1.00000000   0.161E-05       0.001       26.778   0.100E-07
     TRS4 it   9 1.00000000   0.115E-10       0.001       32.256   0.100E-07
     Final TRS4 iteration    9 1.00000000   0.115E-10
     Chemical potential (mu):      -0.01111
 
 PAO| energy:  -7.7636444847630175      penalty:   5.7792164489102479E-006
 PAO|LS| Need extra step
 PAO|LS| adapt:  T T F
 PAO|LS| adapt: scan_steps:    0.0000000000000000       0.40000000000000002        0.0000000000000000     
 PAO|LS| adapt: energies:   -7.6178585020152543       -7.7636444847630175        0.0000000000000000     
 PAO| ======================= Iteration:         5 =============================

     Lanczos converged:  T threshold:   0.100E-02
     Est. extremal eigenvalues:    0.263E+01   0.184E+00
     Est. condition number :    0.143E+02
     NS sqrt iter    1 1.00000000   0.684E+00       0.001       48.828
     NS sqrt iter    2 1.00000000   0.310E+00       0.002       67.129
     NS sqrt iter    3 1.00000000   0.655E-01       0.002       64.714
     NS sqrt iter    4 1.00000000   0.135E-02       0.001       95.934
     NS sqrt iter    5 1.00000000   0.228E-07       0.001       46.336
     Final NS sqrt iter    5 1.00000000   0.325E-08

     Est. extremal eigenvalues     -0.93373     1.67255  converged:  T
     TRS4 it   1 1.00000000   0.882E+00       0.001       16.128   0.100E-07
     TRS4 it   2 1.00000000   0.600E+00       0.001       32.256   0.100E-07
     TRS4 it   3 1.00000000   0.395E+00       0.001       32.256   0.100E-07
     TRS4 it   4 1.00000000   0.182E+00       0.001       28.910   0.100E-07
     TRS4 it   5 1.00000000   0.477E-01       0.001       29.246   0.100E-07
     TRS4 it   6 1.00000000   0.406E-02       0.001       32.256   0.100E-07
     TRS4 it   7 1.00000000   0.378E-04       0.001       30.210   0.100E-07
     TRS4 it   8 1.00000000   0.415E-08       0.001       32.256   0.100E-07
     Final TRS4 iteration    8 1.00000000   0.415E-08
     Chemical potential (mu):       0.03777
 
 PAO| energy:  -7.7087242762040535      penalty:   9.2467483647834097E-005
 PAO|LS| Need extra step
 PAO|LS| adapt:  T T T
 PAO|LS| adapt: scan_steps:    0.0000000000000000       0.40000000000000002       0.80000000000000004     
 PAO|LS| adapt: energies:   -7.6178585020152543       -7.7636444847630175       -7.7087242762040535     
 PAO|LS| adapt: suggested step_size:   0.49054605998669443     
 PAO|LS| adapt: predicted energy  -7.7687866959132901     
 PAO| ======================= Iteration:         6 =============================

     Lanczos converged:  T threshold:   0.100E-02
     Est. extremal eigenvalues:    0.290E+01   0.162E+00
     Est. condition number :    0.180E+02
     NS sqrt iter    1 1.00000000   0.733E+00       0.002       42.050
     NS sqrt iter    2 1.00000000   0.358E+00       0.002       68.412
     NS sqrt iter    3 1.00000000   0.950E-01       0.002       60.870
     NS sqrt iter    4 1.00000000   0.367E-02       0.002       62.295
     NS sqrt iter    5 1.00000000   0.417E-06       0.002       49.116
     Final NS sqrt iter    5 1.00000000   0.978E-11

     Est. extremal eigenvalues     -0.93400     1.73108  converged:  T
     TRS4 it   1 1.00000000   0.888E+00       0.001       16.128   0.100E-07
     TRS4 it   2 1.00000000   0.629E+00       0.001       32.256   0.100E-07
     TRS4 it   3 1.00000000   0.431E+00       0.001       32.256   0.100E-07
     TRS4 it   4 1.00000000   0.225E+00       0.001       27.323   0.100E-07
     TRS4 it   5 1.00000000   0.769E-01       0.001       30.059   0.100E-07
     TRS4 it   6 1.00000000   0.113E-01       0.002       21.439   0.100E-07
     TRS4 it   7 1.00000000   0.331E-03       0.001       32.256   0.100E-07
     TRS4 it   8 1.00000000   0.406E-06       0.001       32.256   0.100E-07
     TRS4 it   9 1.00000000   0.728E-12       0.001       32.256   0.100E-07
     Final TRS4 iteration    9 1.00000000   0.728E-12
     Chemical potential (mu):       0.00251
 
 PAO| energy:  -7.7680356124606753      penalty:   1.3072185377619106E-005
 PAO|CG| warming up with steepest descent
 PAO|CG| beta:    0.0000000000000000     
 PAO| norm of gradient:  0.41643498688961578     
 PAO| energy improvement: -0.15017711044542104     
 PAO| step      6                   -7.768035612  0.260E-01  0.491E+00     0.118
 PAO|LS| adapt:  T F F
 PAO|LS| adapt: scan_steps:    0.0000000000000000        0.0000000000000000        0.0000000000000000     
 PAO|LS| adapt: energies:   -7.7680356124606753        0.0000000000000000        0.0000000000000000     
 PAO| ======================= Iteration:         7 =============================

     Lanczos converged:  T threshold:   0.100E-02
     Est. extremal eigenvalues:    0.281E+01   0.175E+00
     Est. condition number :    0.160E+02
     NS sqrt iter    1 1.00000000   0.715E+00       0.002       40.636
     NS sqrt iter    2 1.00000000   0.337E+00       0.002       65.640
     NS sqrt iter    3 1.00000000   0.794E-01       0.002       66.605
     NS sqrt iter    4 1.00000000   0.223E-02       0.002       66.302
     NS sqrt iter    5 1.00000000   0.104E-06       0.002       49.604
     Final NS sqrt iter    5 1.00000000   0.101E-08

     Est. extremal eigenvalues     -0.93570     1.71734  converged:  T
     TRS4 it   1 1.00000000   0.887E+00       0.001       16.128   0.100E-07
     TRS4 it   2 1.00000000   0.627E+00       0.001       32.256   0.100E-07
     TRS4 it   3 1.00000000   0.431E+00       0.001       32.256   0.100E-07
     TRS4 it   4 1.00000000   0.226E+00       0.001       28.398   0.100E-07
     TRS4 it   5 1.00000000   0.777E-01       0.001       32.256   0.100E-07
     TRS4 it   6 1.00000000   0.113E-01       0.001       32.256   0.100E-07
     TRS4 it   7 1.00000000   0.312E-03       0.001       32.256   0.100E-07
     TRS4 it   8 1.00000000   0.344E-06       0.001       32.256   0.100E-07
     TRS4 it   9 1.00000000   0.513E-12       0.001       32.256   0.100E-07
     Final TRS4 iteration    9 1.00000000   0.513E-12
     Chemical potential (mu):       0.00419
 
 PAO| energy:  -7.7621015873217809      penalty:   1.9721263931857347E-005
 PAO|LS| adapt:  T F T
 PAO|LS| adapt: scan_steps:    0.0000000000000000        0.0000000000000000       0.49054605998669443     
 PAO|LS| adapt: energies:   -7.7680356124606753        0.0000000000000000       -7.7621015873217809     
 PAO| ======================= Iteration:         8 =============================

     Lanczos converged:  T threshold:   0.100E-02
     Est. extremal eigenvalues:    0.286E+01   0.168E+00
     Est. condition number :    0.170E+02
     NS sqrt iter    1 1.00000000   0.724E+00       0.002       39.708
     NS sqrt iter    2 1.00000000   0.347E+00       0.002       67.045
     NS sqrt iter    3 1.00000000   0.871E-01       0.002       65.840
     NS sqrt iter    4 1.00000000   0.288E-02       0.001       75.772
     NS sqrt iter    5 1.00000000   0.212E-06       0.001       73.404
     Final NS sqrt iter    5 1.00000000   0.117E-08

     Est. extremal eigenvalues     -0.93581     1.72361  converged:  T
     TRS4 it   1 1.00000000   0.887E+00       0.001       16.128   0.100E-07
     TRS4 it   2 1.00000000   0.628E+00       0.001       32.256   0.100E-07
     TRS4 it   3 1.00000000   0.431E+00       0.001       32.256   0.100E-07
     TRS4 it   4 1.00000000   0.225E+00       0.001       32.256   0.100E-07
     TRS4 it   5 1.00000000   0.771E-01       0.001       32.256   0.100E-07
     TRS4 it   6 1.00000000   0.113E-01       0.001       32.256   0.100E-07
     TRS4 it   7 1.00000000   0.330E-03       0.001       32.256   0.100E-07
     TRS4 it   8 1.00000000   0.398E-06       0.001       32.256   0.100E-07
     TRS4 it   9 1.00000000   0.694E-12       0.001       32.256   0.100E-07
     Final TRS4 iteration    9 1.00000000   0.694E-12
     Chemical potential (mu):       0.00287
 
 PAO| energy:  -7.7875840737703017      penalty:   1.4161379337653188E-005
 PAO|LS| adapt:  T T T
 PAO|LS| adapt: scan_steps:    0.0000000000000000       0.24527302999334721       0.49054605998669443     
 PAO|LS| adapt: energies:   -7.7680356124606753       -7.7875840737703017       -7.7621015873217809     
 PAO|LS| adapt: suggested step_size:   0.22911240715135966     
 PAO|LS| adapt: predicted energy  -7.7876818194765942     
 PAO| ======================= Iteration:         9 =============================

     Lanczos converged:  T threshold:   0.100E-02
     Est. extremal eigenvalues:    0.286E+01   0.168E+00
     Est. condition number :    0.170E+02
     NS sqrt iter    1 1.00000000   0.725E+00       0.002       41.354
     NS sqrt iter    2 1.00000000   0.348E+00       0.002       62.613
     NS sqrt iter    3 1.00000000   0.876E-01       0.001       96.642
     NS sqrt iter    4 1.00000000   0.292E-02       0.001       90.325
     NS sqrt iter    5 1.00000000   0.222E-06       0.001       74.356
     Final NS sqrt iter    5 1.00000000   0.125E-08

     Est. extremal eigenvalues     -0.93575     1.72406  converged:  T
     TRS4 it   1 1.00000000   0.887E+00       0.000       16.128   0.100E-07
     TRS4 it   2 1.00000000   0.628E+00       0.001       32.256   0.100E-07
     TRS4 it   3 1.00000000   0.431E+00       0.001       32.256   0.100E-07
     TRS4 it   4 1.00000000   0.225E+00       0.001       32.256   0.100E-07
     TRS4 it   5 1.00000000   0.770E-01       0.001       32.256   0.100E-07
     TRS4 it   6 1.00000000   0.113E-01       0.001       32.256   0.100E-07
     TRS4 it   7 1.00000000   0.330E-03       0.001       32.256   0.100E-07
     TRS4 it   8 1.00000000   0.400E-06       0.001       32.256   0.100E-07
     TRS4 it   9 1.00000000   0.702E-12       0.001       32.256   0.100E-07
     Final TRS4 iteration    9 1.00000000   0.702E-12
     Chemical potential (mu):       0.00282
 
 PAO| energy:  -7.7877056590640210      penalty:   1.3990323274920078E-005
 PAO|CG| trace_G_new    3.6631462649407802E-002
 PAO|CG| trace_G_prev   0.17341809830575447     
 PAO|CG| trace_G_mix   -1.4274126523227456E-003
 PAO|CG| trace_D   0.17341809830575447     
 PAO|CG| trace_D_Gnew   1.4274126523227456E-003
 PAO|CG| beta:   0.21946311067619206     
 PAO| norm of gradient:  0.19139347598444365     
 PAO| energy improvement:  -1.9670046603345703E-002
 PAO| step      9                   -7.787705659  0.120E-01  0.229E+00     0.075
 PAO|LS| adapt:  T F F
 PAO|LS| adapt: scan_steps:    0.0000000000000000        0.0000000000000000        0.0000000000000000     
 PAO|LS| adapt: energies:   -7.7877056590640210        0.0000000000000000        0.0000000000000000     
 PAO| ======================= Iteration:        10 =============================

     Lanczos converged:  T threshold:   0.100E-02
     Est. extremal eigenvalues:    0.282E+01   0.174E+00
     Est. condition number :    0.162E+02
     NS sqrt iter    1 1.00000000   0.717E+00       0.001       59.067
     NS sqrt iter    2 1.00000000   0.340E+00       0.001       93.560
     NS sqrt iter    3 1.00000000   0.819E-01       0.001       99.161
     NS sqrt iter    4 1.00000000   0.240E-02       0.001       76.998
     NS sqrt iter    5 1.00000000   0.122E-06       0.001       58.564
     Final NS sqrt iter    5 1.00000000   0.120E-08

     Est. extremal eigenvalues     -0.93664     1.71778  converged:  T
     TRS4 it   1 1.00000000   0.884E+00       0.000       16.128   0.100E-07
     TRS4 it   2 1.00000000   0.626E+00       0.001       32.256   0.100E-07
     TRS4 it   3 1.00000000   0.428E+00       0.001       30.138   0.100E-07
     TRS4 it   4 1.00000000   0.222E+00       0.001       32.256   0.100E-07
     TRS4 it   5 1.00000000   0.749E-01       0.001       32.256   0.100E-07
     TRS4 it   6 1.00000000   0.106E-01       0.001       32.256   0.100E-07
     TRS4 it   7 1.00000000   0.287E-03       0.001       32.256   0.100E-07
     TRS4 it   8 1.00000000   0.295E-06       0.001       23.496   0.100E-07
     TRS4 it   9 1.00000000   0.379E-12       0.001       32.256   0.100E-07
     Final TRS4 iteration    9 1.00000000   0.379E-12
     Chemical potential (mu):       0.00586
 
 PAO| energy:  -7.7926977534640081      penalty:   1.4518484299201695E-005
 PAO|LS| adapt:  T T F
 PAO|LS| adapt: scan_steps:    0.0000000000000000       0.22911240715135966        0.0000000000000000     
 PAO|LS| adapt: energies:   -7.7877056590640210       -7.7926977534640081        0.0000000000000000     
 PAO| ======================= Iteration:        11 =============================

     Lanczos converged:  T threshold:   0.100E-02
     Est. extremal eigenvalues:    0.279E+01   0.180E+00
     Est. condition number :    0.155E+02
     NS sqrt iter    1 1.00000000   0.709E+00       0.001       43.034
     NS sqrt iter    2 1.00000000   0.331E+00       0.001       94.877
     NS sqrt iter    3 1.00000000   0.766E-01       0.001       95.193
     NS sqrt iter    4 1.00000000   0.197E-02       0.001       91.739
     NS sqrt iter    5 1.00000000   0.663E-07       0.001       57.761
     Final NS sqrt iter    5 1.00000000   0.700E-09

     Est. extremal eigenvalues     -0.93655     1.71258  converged:  T
     TRS4 it   1 1.00000000   0.882E+00       0.001       16.128   0.100E-07
     TRS4 it   2 1.00000000   0.624E+00       0.001       32.256   0.100E-07
     TRS4 it   3 1.00000000   0.426E+00       0.001       32.256   0.100E-07
     TRS4 it   4 1.00000000   0.220E+00       0.001       32.256   0.100E-07
     TRS4 it   5 1.00000000   0.727E-01       0.001       32.256   0.100E-07
     TRS4 it   6 1.00000000   0.999E-02       0.001       32.256   0.100E-07
     TRS4 it   7 1.00000000   0.249E-03       0.001       32.256   0.100E-07
     TRS4 it   8 1.00000000   0.215E-06       0.001       32.256   0.100E-07
     TRS4 it   9 1.00000000   0.198E-12       0.002       20.827   0.100E-07
     Final TRS4 iteration    9 1.00000000   0.198E-12
     Chemical potential (mu):       0.00903
 
 PAO| energy:  -7.7912748278145445      penalty:   1.5707134559766409E-005
 PAO|LS| adapt:  T T T
 PAO|LS| adapt: scan_steps:    0.0000000000000000       0.22911240715135966       0.45822481430271933     
 PAO|LS| adapt: energies:   -7.7877056590640210       -7.7926977534640081       -7.7912748278145445     
 PAO|LS| adapt: suggested step_size:   0.29284882867913653     
 PAO|LS| adapt: predicted energy  -7.7929459788294695     
 PAO| ======================= Iteration:        12 =============================

     Lanczos converged:  T threshold:   0.100E-02
     Est. extremal eigenvalues:    0.281E+01   0.175E+00
     Est. condition number :    0.160E+02
     NS sqrt iter    1 1.00000000   0.715E+00       0.001       47.608
     NS sqrt iter    2 1.00000000   0.337E+00       0.001       85.720
     NS sqrt iter    3 1.00000000   0.804E-01       0.001       96.917
     NS sqrt iter    4 1.00000000   0.227E-02       0.001       88.297
     NS sqrt iter    5 1.00000000   0.103E-06       0.001       67.765
     Final NS sqrt iter    5 1.00000000   0.992E-09

     Est. extremal eigenvalues     -0.93671     1.71622  converged:  T
     TRS4 it   1 1.00000000   0.884E+00       0.001       16.128   0.100E-07
     TRS4 it   2 1.00000000   0.625E+00       0.001       32.256   0.100E-07
     TRS4 it   3 1.00000000   0.428E+00       0.001       32.256   0.100E-07
     TRS4 it   4 1.00000000   0.222E+00       0.001       32.256   0.100E-07
     TRS4 it   5 1.00000000   0.743E-01       0.001       32.256   0.100E-07
     TRS4 it   6 1.00000000   0.105E-01       0.001       32.256   0.100E-07
     TRS4 it   7 1.00000000   0.276E-03       0.004        7.802   0.100E-07
     TRS4 it   8 1.00000000   0.271E-06       0.001       32.256   0.100E-07
     TRS4 it   9 1.00000000   0.317E-12       0.001       28.532   0.100E-07
     Final TRS4 iteration    9 1.00000000   0.317E-12
     Chemical potential (mu):       0.00673
 
 PAO| energy:  -7.7929299830830496      penalty:   1.4775348382926725E-005
 PAO|CG| trace_G_new    1.1717287257923875E-002
 PAO|CG| trace_G_prev    3.6631462649407802E-002
 PAO|CG| trace_G_mix   -4.5847678502779817E-004
 PAO|CG| trace_D    4.4357452970168278E-002
 PAO|CG| trace_D_Gnew   2.1006633532234201E-004
 PAO|CG| beta:   0.33238541849893921     
 PAO| norm of gradient:  0.10824641914596471     
 PAO| energy improvement:  -5.2243240190286144E-003
 PAO| step     12                   -7.792929983  0.677E-02  0.293E+00     0.070
 PAO|LS| adapt:  T F F
 PAO|LS| adapt: scan_steps:    0.0000000000000000        0.0000000000000000        0.0000000000000000     
 PAO|LS| adapt: energies:   -7.7929299830830496        0.0000000000000000        0.0000000000000000     
 PAO| ======================= Iteration:        13 =============================

     Lanczos converged:  T threshold:   0.100E-02
     Est. extremal eigenvalues:    0.278E+01   0.180E+00
     Est. condition number :    0.155E+02
     NS sqrt iter    1 1.00000000   0.707E+00       0.001       49.898
     NS sqrt iter    2 1.00000000   0.330E+00       0.002       66.202
     NS sqrt iter    3 1.00000000   0.761E-01       0.002       68.408
     NS sqrt iter    4 1.00000000   0.194E-02       0.002       62.207
     NS sqrt iter    5 1.00000000   0.640E-07       0.001       48.822
     Final NS sqrt iter    5 1.00000000   0.683E-09

     Est. extremal eigenvalues     -0.93719     1.70853  converged:  T
     TRS4 it   1 1.00000000   0.883E+00       0.001       16.128   0.100E-07
     TRS4 it   2 1.00000000   0.622E+00       0.001       27.563   0.100E-07
     TRS4 it   3 1.00000000   0.424E+00       0.001       32.256   0.100E-07
     TRS4 it   4 1.00000000   0.217E+00       0.001       32.256   0.100E-07
     TRS4 it   5 1.00000000   0.706E-01       0.001       32.256   0.100E-07
     TRS4 it   6 1.00000000   0.940E-02       0.001       32.256   0.100E-07
     TRS4 it   7 1.00000000   0.221E-03       0.001       32.215   0.100E-07
     TRS4 it   8 1.00000000   0.168E-06       0.001       32.256   0.100E-07
     TRS4 it   9 1.00000000   0.121E-12       0.001       32.256   0.100E-07
     Final TRS4 iteration    9 1.00000000   0.121E-12
     Chemical potential (mu):       0.01117
 
 PAO| energy:  -7.7949819513054717      penalty:   1.5069973989525997E-005
 PAO|LS| adapt:  T T F
 PAO|LS| adapt: scan_steps:    0.0000000000000000       0.29284882867913653        0.0000000000000000     
 PAO|LS| adapt: energies:   -7.7929299830830496       -7.7949819513054717        0.0000000000000000     
 PAO| ======================= Iteration:        14 =============================

     Lanczos converged:  T threshold:   0.100E-02
     Est. extremal eigenvalues:    0.274E+01   0.184E+00
     Est. condition number :    0.149E+02
     NS sqrt iter    1 1.00000000   0.700E+00       0.004       16.087
     NS sqrt iter    2 1.00000000   0.323E+00       0.001       84.177
     NS sqrt iter    3 1.00000000   0.719E-01       0.002       73.516
     NS sqrt iter    4 1.00000000   0.165E-02       0.001       75.422
     NS sqrt iter    5 1.00000000   0.395E-07       0.001       55.210
     Final NS sqrt iter    5 1.00000000   0.411E-09

     Est. extremal eigenvalues     -0.93718     1.70113  converged:  T
     TRS4 it   1 1.00000000   0.882E+00       0.001       16.128   0.100E-07
     TRS4 it   2 1.00000000   0.618E+00       0.001       32.256   0.100E-07
     TRS4 it   3 1.00000000   0.420E+00       0.001       32.256   0.100E-07
     TRS4 it   4 1.00000000   0.212E+00       0.001       32.256   0.100E-07
     TRS4 it   5 1.00000000   0.671E-01       0.001       32.256   0.100E-07
     TRS4 it   6 1.00000000   0.845E-02       0.001       32.256   0.100E-07
     TRS4 it   7 1.00000000   0.176E-03       0.001       32.256   0.100E-07
     TRS4 it   8 1.00000000   0.104E-06       0.001       32.256   0.100E-07
     TRS4 it   9 1.00000000   0.464E-13       0.001       32.256   0.100E-07
     Final TRS4 iteration    9 1.00000000   0.464E-13
     Chemical potential (mu):       0.01553
 
 PAO| energy:  -7.7943652579198988      penalty:   1.5835596002802646E-005
 PAO|LS| adapt:  T T T
 PAO|LS| adapt: scan_steps:    0.0000000000000000       0.29284882867913653       0.58569765735827306     
 PAO|LS| adapt: energies:   -7.7929299830830496       -7.7949819513054717       -7.7943652579198988     
 PAO|LS| adapt: suggested step_size:   0.37159964398383638     
 PAO|LS| adapt: predicted energy  -7.7950784422698529     
 PAO| ======================= Iteration:        15 =============================

     Lanczos converged:  T threshold:   0.100E-02
     Est. extremal eigenvalues:    0.277E+01   0.181E+00
     Est. condition number :    0.153E+02
     NS sqrt iter    1 1.00000000   0.705E+00       0.002       38.664
     NS sqrt iter    2 1.00000000   0.328E+00       0.003       35.704
     NS sqrt iter    3 1.00000000   0.749E-01       0.002       72.582
     NS sqrt iter    4 1.00000000   0.185E-02       0.001       96.272
     NS sqrt iter    5 1.00000000   0.562E-07       0.001       60.956
     Final NS sqrt iter    5 1.00000000   0.670E-09

     Est. extremal eigenvalues     -0.93724     1.70651  converged:  T
     TRS4 it   1 1.00000000   0.883E+00       0.001       16.128   0.100E-07
     TRS4 it   2 1.00000000   0.621E+00       0.001       32.256   0.100E-07
     TRS4 it   3 1.00000000   0.423E+00       0.001       32.256   0.100E-07
     TRS4 it   4 1.00000000   0.215E+00       0.001       32.256   0.100E-07
     TRS4 it   5 1.00000000   0.697E-01       0.001       32.256   0.100E-07
     TRS4 it   6 1.00000000   0.914E-02       0.001       32.256   0.100E-07
     TRS4 it   7 1.00000000   0.208E-03       0.001       32.256   0.100E-07
     TRS4 it   8 1.00000000   0.148E-06       0.001       32.256   0.100E-07
     TRS4 it   9 1.00000000   0.928E-13       0.001       32.256   0.100E-07
     Final TRS4 iteration    9 1.00000000   0.928E-13
     Chemical potential (mu):       0.01235
 
 PAO| energy:  -7.7950753404211044      penalty:   1.5226514706394442E-005
 PAO|CG| trace_G_new    2.6130701502826881E-003
 PAO|CG| trace_G_prev    1.1717287257923875E-002
 PAO|CG| trace_G_mix    6.2625105184051550E-005
 PAO|CG| trace_D    1.6478255635208074E-002
 PAO|CG| trace_D_Gnew   3.3318849201608794E-005
 PAO|CG| beta:   0.21766514628835143     
 PAO| norm of gradient:   5.1118197838760787E-002
 PAO| energy improvement:  -2.1453573380547653E-003
 PAO| step     15                   -7.795075340  0.319E-02  0.372E+00     0.076
 PAO|LS| adapt:  T F F
 PAO|LS| adapt: scan_steps:    0.0000000000000000        0.0000000000000000        0.0000000000000000     
 PAO|LS| adapt: energies:   -7.7950753404211044        0.0000000000000000        0.0000000000000000     
 PAO| ======================= Iteration:        16 =============================

     Lanczos converged:  T threshold:   0.100E-02
     Est. extremal eigenvalues:    0.276E+01   0.182E+00
     Est. condition number :    0.152E+02
     NS sqrt iter    1 1.00000000   0.703E+00       0.001       58.839
     NS sqrt iter    2 1.00000000   0.327E+00       0.001       91.360
     NS sqrt iter    3 1.00000000   0.742E-01       0.001       93.818
     NS sqrt iter    4 1.00000000   0.179E-02       0.001       92.845
     NS sqrt iter    5 1.00000000   0.509E-07       0.001       68.202
     Final NS sqrt iter    5 1.00000000   0.486E-09

     Est. extremal eigenvalues     -0.93726     1.70518  converged:  T
     TRS4 it   1 1.00000000   0.883E+00       0.000       16.128   0.100E-07
     TRS4 it   2 1.00000000   0.620E+00       0.001       32.256   0.100E-07
     TRS4 it   3 1.00000000   0.421E+00       0.001       28.353   0.100E-07
     TRS4 it   4 1.00000000   0.213E+00       0.001       32.256   0.100E-07
     TRS4 it   5 1.00000000   0.684E-01       0.001       32.256   0.100E-07
     TRS4 it   6 1.00000000   0.883E-02       0.001       32.256   0.100E-07
     TRS4 it   7 1.00000000   0.195E-03       0.001       32.256   0.100E-07
     TRS4 it   8 1.00000000   0.132E-06       0.001       32.256   0.100E-07
     TRS4 it   9 1.00000000   0.748E-13       0.001       32.256   0.100E-07
     Final TRS4 iteration    9 1.00000000   0.748E-13
     Chemical potential (mu):       0.01317
 
 PAO| energy:  -7.7951973799315351      penalty:   1.5005115275162865E-005
 PAO|LS| adapt:  T T F
 PAO|LS| adapt: scan_steps:    0.0000000000000000       0.37159964398383638        0.0000000000000000     
 PAO|LS| adapt: energies:   -7.7950753404211044       -7.7951973799315351        0.0000000000000000     
 PAO| ======================= Iteration:        17 =============================

     Lanczos converged:  T threshold:   0.100E-02
     Est. extremal eigenvalues:    0.275E+01   0.182E+00
     Est. condition number :    0.151E+02
     NS sqrt iter    1 1.00000000   0.701E+00       0.001       47.702
     NS sqrt iter    2 1.00000000   0.326E+00       0.001       84.618
     NS sqrt iter    3 1.00000000   0.735E-01       0.001       92.378
     NS sqrt iter    4 1.00000000   0.174E-02       0.001       92.857
     NS sqrt iter    5 1.00000000   0.462E-07       0.002       46.306
     Final NS sqrt iter    5 1.00000000   0.481E-09

     Est. extremal eigenvalues     -0.93717     1.70390  converged:  T
     TRS4 it   1 1.00000000   0.883E+00       0.001       16.128   0.100E-07
     TRS4 it   2 1.00000000   0.619E+00       0.001       29.180   0.100E-07
     TRS4 it   3 1.00000000   0.420E+00       0.001       32.256   0.100E-07
     TRS4 it   4 1.00000000   0.212E+00       0.001       32.256   0.100E-07
     TRS4 it   5 1.00000000   0.672E-01       0.001       29.658   0.100E-07
     TRS4 it   6 1.00000000   0.854E-02       0.001       32.256   0.100E-07
     TRS4 it   7 1.00000000   0.183E-03       0.001       32.256   0.100E-07
     TRS4 it   8 1.00000000   0.118E-06       0.001       32.256   0.100E-07
     TRS4 it   9 1.00000000   0.592E-13       0.001       32.256   0.100E-07
     Final TRS4 iteration    9 1.00000000   0.592E-13
     Chemical potential (mu):       0.01397
 
 PAO| energy:  -7.7936215008664824      penalty:   1.4910274786438650E-005
 PAO|LS| adapt:  T T T
 PAO|LS| adapt: scan_steps:    0.0000000000000000       0.37159964398383638       0.74319928796767276     
 PAO|LS| adapt: energies:   -7.7950753404211044       -7.7951973799315351       -7.7936215008664824     
 PAO|LS| adapt: suggested step_size:   0.21250889937808604     
 PAO|LS| adapt: predicted energy  -7.7953529858511228     
 PAO| ======================= Iteration:        18 =============================

     Lanczos converged:  T threshold:   0.100E-02
     Est. extremal eigenvalues:    0.276E+01   0.181E+00
     Est. condition number :    0.152E+02
     NS sqrt iter    1 1.00000000   0.704E+00       0.002       42.076
     NS sqrt iter    2 1.00000000   0.328E+00       0.002       65.947
     NS sqrt iter    3 1.00000000   0.745E-01       0.001       81.811
     NS sqrt iter    4 1.00000000   0.182E-02       0.002       66.932
     NS sqrt iter    5 1.00000000   0.531E-07       0.002       46.725
     Final NS sqrt iter    5 1.00000000   0.669E-09

     Est. extremal eigenvalues     -0.93727     1.70574  converged:  T
     TRS4 it   1 1.00000000   0.883E+00       0.000       16.128   0.100E-07
     TRS4 it   2 1.00000000   0.620E+00       0.001       32.256   0.100E-07
     TRS4 it   3 1.00000000   0.422E+00       0.001       32.256   0.100E-07
     TRS4 it   4 1.00000000   0.214E+00       0.001       32.256   0.100E-07
     TRS4 it   5 1.00000000   0.690E-01       0.001       32.256   0.100E-07
     TRS4 it   6 1.00000000   0.896E-02       0.001       32.256   0.100E-07
     TRS4 it   7 1.00000000   0.200E-03       0.001       32.256   0.100E-07
     TRS4 it   8 1.00000000   0.139E-06       0.001       32.256   0.100E-07
     TRS4 it   9 1.00000000   0.825E-13       0.001       32.256   0.100E-07
     Final TRS4 iteration    9 1.00000000   0.825E-13
     Chemical potential (mu):       0.01282
 
 PAO| energy:  -7.7953525480947938      penalty:   1.5084693101579876E-005
 PAO|CG| trace_G_new    7.1853618857078191E-004
 PAO|CG| trace_G_prev    2.6130701502826881E-003
 PAO|CG| trace_G_mix    1.1948236074223719E-006
 PAO|CG| trace_D    3.3792741513699940E-003
 PAO|CG| trace_D_Gnew  -1.6607244569174009E-006
 PAO|CG| beta:   0.27452051560336255     
 PAO| norm of gradient:   2.6805525336593982E-002
 PAO| energy improvement:  -2.7720767368943910E-004
 PAO| step     18                   -7.795352548  0.168E-02  0.213E+00     0.070
 PAO|LS| adapt:  T F F
 PAO|LS| adapt: scan_steps:    0.0000000000000000        0.0000000000000000        0.0000000000000000     
 PAO|LS| adapt: energies:   -7.7953525480947938        0.0000000000000000        0.0000000000000000     
 PAO| ======================= Iteration:        19 =============================

     Lanczos converged:  T threshold:   0.100E-02
     Est. extremal eigenvalues:    0.276E+01   0.181E+00
     Est. condition number :    0.152E+02
     NS sqrt iter    1 1.00000000   0.704E+00       0.001       59.820
     NS sqrt iter    2 1.00000000   0.328E+00       0.001       85.505
     NS sqrt iter    3 1.00000000   0.747E-01       0.002       72.438
     NS sqrt iter    4 1.00000000   0.183E-02       0.002       65.537
     NS sqrt iter    5 1.00000000   0.537E-07       0.002       45.581
     Final NS sqrt iter    5 1.00000000   0.677E-09

     Est. extremal eigenvalues     -0.93727     1.70596  converged:  T
     TRS4 it   1 1.00000000   0.883E+00       0.000       16.128   0.100E-07
     TRS4 it   2 1.00000000   0.620E+00       0.001       32.256   0.100E-07
     TRS4 it   3 1.00000000   0.422E+00       0.001       32.256   0.100E-07
     TRS4 it   4 1.00000000   0.214E+00       0.001       32.256   0.100E-07
     TRS4 it   5 1.00000000   0.689E-01       0.001       32.256   0.100E-07
     TRS4 it   6 1.00000000   0.895E-02       0.001       32.256   0.100E-07
     TRS4 it   7 1.00000000   0.201E-03       0.001       32.256   0.100E-07
     TRS4 it   8 1.00000000   0.141E-06       0.001       32.256   0.100E-07
     TRS4 it   9 1.00000000   0.855E-13       0.001       32.256   0.100E-07
     Final TRS4 iteration    9 1.00000000   0.855E-13
     Chemical potential (mu):       0.01253
 
 PAO| energy:  -7.7954690989091606      penalty:   1.4795905935743479E-005
 PAO|LS| adapt:  T T F
 PAO|LS| adapt: scan_steps:    0.0000000000000000       0.21250889937808604        0.0000000000000000     
 PAO|LS| adapt: energies:   -7.7953525480947938       -7.7954690989091606        0.0000000000000000     
 PAO| ======================= Iteration:        20 =============================

     Lanczos converged:  T threshold:   0.100E-02
     Est. extremal eigenvalues:    0.276E+01   0.181E+00
     Est. condition number :    0.153E+02
     NS sqrt iter    1 1.00000000   0.704E+00       0.001       57.071
     NS sqrt iter    2 1.00000000   0.328E+00       0.001       81.333
     NS sqrt iter    3 1.00000000   0.749E-01       0.001       76.167
     NS sqrt iter    4 1.00000000   0.184E-02       0.001       85.431
     NS sqrt iter    5 1.00000000   0.544E-07       0.001       64.509
     Final NS sqrt iter    5 1.00000000   0.691E-09

     Est. extremal eigenvalues     -0.93727     1.70618  converged:  T
     TRS4 it   1 1.00000000   0.883E+00       0.001       16.128   0.100E-07
     TRS4 it   2 1.00000000   0.620E+00       0.001       32.256   0.100E-07
     TRS4 it   3 1.00000000   0.421E+00       0.001       32.256   0.100E-07
     TRS4 it   4 1.00000000   0.214E+00       0.001       32.256   0.100E-07
     TRS4 it   5 1.00000000   0.688E-01       0.001       32.256   0.100E-07
     TRS4 it   6 1.00000000   0.895E-02       0.001       32.256   0.100E-07
     TRS4 it   7 1.00000000   0.202E-03       0.001       32.256   0.100E-07
     TRS4 it   8 1.00000000   0.143E-06       0.001       32.256   0.100E-07
     TRS4 it   9 1.00000000   0.879E-13       0.001       32.256   0.100E-07
     Final TRS4 iteration    9 1.00000000   0.879E-13
     Chemical potential (mu):       0.01223
 
 PAO| energy:  -7.7955127872035233      penalty:   1.4519438248977389E-005
 PAO|LS| adapt:  T T F
 PAO|LS| adapt: scan_steps:    0.0000000000000000       0.42501779875617207        0.0000000000000000     
 PAO|LS| adapt: energies:   -7.7953525480947938       -7.7955127872035233        0.0000000000000000     
 PAO| ======================= Iteration:        21 =============================

     Lanczos converged:  T threshold:   0.100E-02
     Est. extremal eigenvalues:    0.276E+01   0.181E+00
     Est. condition number :    0.153E+02
     NS sqrt iter    1 1.00000000   0.704E+00       0.001       48.972
     NS sqrt iter    2 1.00000000   0.328E+00       0.001       80.694
     NS sqrt iter    3 1.00000000   0.754E-01       0.001       91.875
     NS sqrt iter    4 1.00000000   0.186E-02       0.001       94.813
     NS sqrt iter    5 1.00000000   0.558E-07       0.001       65.934
     Final NS sqrt iter    5 1.00000000   0.697E-09

     Est. extremal eigenvalues     -0.93726     1.70665  converged:  T
     TRS4 it   1 1.00000000   0.883E+00       0.000       16.128   0.100E-07
     TRS4 it   2 1.00000000   0.620E+00       0.001       32.256   0.100E-07
     TRS4 it   3 1.00000000   0.421E+00       0.001       32.256   0.100E-07
     TRS4 it   4 1.00000000   0.213E+00       0.001       32.256   0.100E-07
     TRS4 it   5 1.00000000   0.686E-01       0.001       32.256   0.100E-07
     TRS4 it   6 1.00000000   0.894E-02       0.001       32.256   0.100E-07
     TRS4 it   7 1.00000000   0.203E-03       0.001       32.256   0.100E-07
     TRS4 it   8 1.00000000   0.148E-06       0.001       32.256   0.100E-07
     TRS4 it   9 1.00000000   0.957E-13       0.001       32.256   0.100E-07
     Final TRS4 iteration    9 1.00000000   0.957E-13
     Chemical potential (mu):       0.01164
 
 PAO| energy:  -7.7953792893777551      penalty:   1.4002880269355730E-005
 PAO|LS| Need extra step
 PAO|LS| adapt:  T T T
 PAO|LS| adapt: scan_steps:    0.0000000000000000       0.42501779875617207       0.85003559751234414     
 PAO|LS| adapt: energies:   -7.7953525480947938       -7.7955127872035233       -7.7953792893777551     
 PAO|LS| adapt: suggested step_size:   0.44436422728681885     
 PAO|LS| adapt: predicted energy  -7.7955130915133202     
 PAO| ======================= Iteration:        22 =============================

     Lanczos converged:  T threshold:   0.100E-02
     Est. extremal eigenvalues:    0.276E+01   0.181E+00
     Est. condition number :    0.153E+02
     NS sqrt iter    1 1.00000000   0.704E+00       0.001       47.413
     NS sqrt iter    2 1.00000000   0.328E+00       0.001       76.007
     NS sqrt iter    3 1.00000000   0.749E-01       0.001       74.549
     NS sqrt iter    4 1.00000000   0.184E-02       0.001       85.921
     NS sqrt iter    5 1.00000000   0.544E-07       0.001       69.595
     Final NS sqrt iter    5 1.00000000   0.692E-09

     Est. extremal eigenvalues     -0.93727     1.70621  converged:  T
     TRS4 it   1 1.00000000   0.883E+00       0.000       16.128   0.100E-07
     TRS4 it   2 1.00000000   0.620E+00       0.001       32.256   0.100E-07
     TRS4 it   3 1.00000000   0.421E+00       0.001       32.256   0.100E-07
     TRS4 it   4 1.00000000   0.214E+00       0.001       32.256   0.100E-07
     TRS4 it   5 1.00000000   0.688E-01       0.001       32.256   0.100E-07
     TRS4 it   6 1.00000000   0.895E-02       0.001       32.256   0.100E-07
     TRS4 it   7 1.00000000   0.202E-03       0.001       32.256   0.100E-07
     TRS4 it   8 1.00000000   0.144E-06       0.001       32.256   0.100E-07
     TRS4 it   9 1.00000000   0.888E-13       0.001       32.256   0.100E-07
     Final TRS4 iteration    9 1.00000000   0.888E-13
     Chemical potential (mu):       0.01221
 
 PAO| energy:  -7.7955131261705235      penalty:   1.4494874843247277E-005
 PAO|CG| trace_G_new    2.1748404920983271E-004
 PAO|CG| trace_G_prev    7.1853618857078191E-004
 PAO|CG| trace_G_mix    2.8611358484160787E-006
 PAO|CG| trace_D    9.7411520897435790E-004
 PAO|CG| trace_D_Gnew  -1.7845891941763381E-006
 PAO|CG| beta:   0.29869464722203687     
 PAO| norm of gradient:   1.4747340411404108E-002
 PAO| energy improvement:  -1.6057807572966709E-004
 PAO| step     22                   -7.795513126  0.922E-03  0.444E+00     0.080
 PAO|LS| adapt:  T F F
 PAO|LS| adapt: scan_steps:    0.0000000000000000        0.0000000000000000        0.0000000000000000     
 PAO|LS| adapt: energies:   -7.7955131261705235        0.0000000000000000        0.0000000000000000     
 PAO| ======================= Iteration:        23 =============================

     Lanczos converged:  T threshold:   0.100E-02
     Est. extremal eigenvalues:    0.276E+01   0.181E+00
     Est. condition number :    0.153E+02
     NS sqrt iter    1 1.00000000   0.704E+00       0.002       40.732
     NS sqrt iter    2 1.00000000   0.328E+00       0.002       63.934
     NS sqrt iter    3 1.00000000   0.750E-01       0.001       83.882
     NS sqrt iter    4 1.00000000   0.184E-02       0.001       82.740
     NS sqrt iter    5 1.00000000   0.546E-07       0.002       45.524
     Final NS sqrt iter    5 1.00000000   0.692E-09

     Est. extremal eigenvalues     -0.93726     1.70621  converged:  T
     TRS4 it   1 1.00000000   0.883E+00       0.000       16.128   0.100E-07
     TRS4 it   2 1.00000000   0.620E+00       0.001       32.256   0.100E-07
     TRS4 it   3 1.00000000   0.422E+00       0.001       32.256   0.100E-07
     TRS4 it   4 1.00000000   0.214E+00       0.001       32.256   0.100E-07
     TRS4 it   5 1.00000000   0.689E-01       0.001       32.256   0.100E-07
     TRS4 it   6 1.00000000   0.900E-02       0.001       32.256   0.100E-07
     TRS4 it   7 1.00000000   0.204E-03       0.001       32.256   0.100E-07
     TRS4 it   8 1.00000000   0.148E-06       0.001       32.256   0.100E-07
     TRS4 it   9 1.00000000   0.942E-13       0.001       32.256   0.100E-07
     Final TRS4 iteration    9 1.00000000   0.942E-13
     Chemical potential (mu):       0.01186
 
 PAO| energy:  -7.7955615022617577      penalty:   1.3815428218714032E-005
 PAO|LS| adapt:  T T F
 PAO|LS| adapt: scan_steps:    0.0000000000000000       0.44436422728681885        0.0000000000000000     
 PAO|LS| adapt: energies:   -7.7955131261705235       -7.7955615022617577        0.0000000000000000     
 PAO| ======================= Iteration:        24 =============================

     Lanczos converged:  T threshold:   0.100E-02
     Est. extremal eigenvalues:    0.277E+01   0.181E+00
     Est. condition number :    0.153E+02
     NS sqrt iter    1 1.00000000   0.704E+00       0.001       58.334
     NS sqrt iter    2 1.00000000   0.328E+00       0.001       93.578
     NS sqrt iter    3 1.00000000   0.750E-01       0.001       96.811
     NS sqrt iter    4 1.00000000   0.184E-02       0.002       71.639
     NS sqrt iter    5 1.00000000   0.547E-07       0.001       48.292
     Final NS sqrt iter    5 1.00000000   0.695E-09

     Est. extremal eigenvalues     -0.93726     1.70622  converged:  T
     TRS4 it   1 1.00000000   0.883E+00       0.000       16.128   0.100E-07
     TRS4 it   2 1.00000000   0.620E+00       0.001       32.256   0.100E-07
     TRS4 it   3 1.00000000   0.422E+00       0.001       32.256   0.100E-07
     TRS4 it   4 1.00000000   0.214E+00       0.001       32.256   0.100E-07
     TRS4 it   5 1.00000000   0.690E-01       0.001       32.256   0.100E-07
     TRS4 it   6 1.00000000   0.905E-02       0.001       32.256   0.100E-07
     TRS4 it   7 1.00000000   0.207E-03       0.001       32.256   0.100E-07
     TRS4 it   8 1.00000000   0.152E-06       0.001       32.256   0.100E-07
     TRS4 it   9 1.00000000   0.100E-12       0.001       32.256   0.100E-07
     Final TRS4 iteration    9 1.00000000   0.100E-12
     Chemical potential (mu):       0.01152
 
 PAO| energy:  -7.7955122724756976      penalty:   1.3163953899803399E-005
 PAO|LS| adapt:  T T T
 PAO|LS| adapt: scan_steps:    0.0000000000000000       0.44436422728681885       0.88872845457363769     
 PAO|LS| adapt: energies:   -7.7955131261705235       -7.7955615022617577       -7.7955122724756976     
 PAO|LS| adapt: suggested step_size:   0.44242094552867012     
 PAO|LS| adapt: predicted energy  -7.7955615031950964     
 PAO| ======================= Iteration:        25 =============================

     Lanczos converged:  T threshold:   0.100E-02
     Est. extremal eigenvalues:    0.276E+01   0.181E+00
     Est. condition number :    0.153E+02
     NS sqrt iter    1 1.00000000   0.704E+00       0.001       59.248
     NS sqrt iter    2 1.00000000   0.328E+00       0.001       79.812
     NS sqrt iter    3 1.00000000   0.750E-01       0.001       81.183
     NS sqrt iter    4 1.00000000   0.184E-02       0.001       89.789
     NS sqrt iter    5 1.00000000   0.545E-07       0.001       66.158
     Final NS sqrt iter    5 1.00000000   0.692E-09

     Est. extremal eigenvalues     -0.93726     1.70621  converged:  T
     TRS4 it   1 1.00000000   0.883E+00       0.000       16.128   0.100E-07
     TRS4 it   2 1.00000000   0.620E+00       0.001       32.256   0.100E-07
     TRS4 it   3 1.00000000   0.422E+00       0.001       32.256   0.100E-07
     TRS4 it   4 1.00000000   0.214E+00       0.001       32.256   0.100E-07
     TRS4 it   5 1.00000000   0.689E-01       0.001       32.256   0.100E-07
     TRS4 it   6 1.00000000   0.900E-02       0.001       32.256   0.100E-07
     TRS4 it   7 1.00000000   0.204E-03       0.001       32.256   0.100E-07
     TRS4 it   8 1.00000000   0.148E-06       0.001       32.256   0.100E-07
     TRS4 it   9 1.00000000   0.946E-13       0.001       32.256   0.100E-07
     Final TRS4 iteration    9 1.00000000   0.946E-13
     Chemical potential (mu):       0.01186
 
 PAO| energy:  -7.7955615025384661      penalty:   1.3818338220261018E-005
 PAO|CG| trace_G_new    7.6362047236853872E-005
 PAO|CG| trace_G_prev    2.1748404920983271E-004
 PAO|CG| trace_G_mix    6.5087866106281043E-007
 PAO|CG| trace_D    3.0545923394024397E-004
 PAO|CG| trace_D_Gnew  -3.3804308886854547E-007
 PAO|CG| beta:   0.34812285705947793     
 PAO| norm of gradient:   8.7385380491735495E-003
 PAO| energy improvement:  -4.8376367942637444E-005
 PAO| step     25                   -7.795561503  0.546E-03  0.442E+00     0.065
 PAO|LS| adapt:  T F F
 PAO|LS| adapt: scan_steps:    0.0000000000000000        0.0000000000000000        0.0000000000000000     
 PAO|LS| adapt: energies:   -7.7955615025384661        0.0000000000000000        0.0000000000000000     
 PAO| ======================= Iteration:        26 =============================

     Lanczos converged:  T threshold:   0.100E-02
     Est. extremal eigenvalues:    0.276E+01   0.181E+00
     Est. condition number :    0.153E+02
     NS sqrt iter    1 1.00000000   0.704E+00       0.001       58.815
     NS sqrt iter    2 1.00000000   0.328E+00       0.001       95.604
     NS sqrt iter    3 1.00000000   0.749E-01       0.001       92.256
     NS sqrt iter    4 1.00000000   0.183E-02       0.001       94.309
     NS sqrt iter    5 1.00000000   0.540E-07       0.001       70.794
     Final NS sqrt iter    5 1.00000000   0.681E-09

     Est. extremal eigenvalues     -0.93727     1.70592  converged:  T
     TRS4 it   1 1.00000000   0.883E+00       0.000       16.128   0.100E-07
     TRS4 it   2 1.00000000   0.620E+00       0.001       32.256   0.100E-07
     TRS4 it   3 1.00000000   0.421E+00       0.001       32.256   0.100E-07
     TRS4 it   4 1.00000000   0.214E+00       0.007        4.770   0.100E-07
     TRS4 it   5 1.00000000   0.688E-01       0.001       32.256   0.100E-07
     TRS4 it   6 1.00000000   0.898E-02       0.001       32.256   0.100E-07
     TRS4 it   7 1.00000000   0.204E-03       0.001       32.256   0.100E-07
     TRS4 it   8 1.00000000   0.146E-06       0.001       32.256   0.100E-07
     TRS4 it   9 1.00000000   0.925E-13       0.001       32.256   0.100E-07
     Final TRS4 iteration    9 1.00000000   0.925E-13
     Chemical potential (mu):       0.01195
 
 PAO| energy:  -7.7955647063890794      penalty:   1.3100863188347377E-005
 PAO|LS| adapt:  T T F
 PAO|LS| adapt: scan_steps:    0.0000000000000000       0.44242094552867012        0.0000000000000000     
 PAO|LS| adapt: energies:   -7.7955615025384661       -7.7955647063890794        0.0000000000000000     
 PAO| ======================= Iteration:        27 =============================

     Lanczos converged:  T threshold:   0.100E-02
     Est. extremal eigenvalues:    0.276E+01   0.181E+00
     Est. condition number :    0.152E+02
     NS sqrt iter    1 1.00000000   0.704E+00       0.002       39.091
     NS sqrt iter    2 1.00000000   0.328E+00       0.002       64.682
     NS sqrt iter    3 1.00000000   0.748E-01       0.002       61.490
     NS sqrt iter    4 1.00000000   0.183E-02       0.002       60.768
     NS sqrt iter    5 1.00000000   0.534E-07       0.002       46.200
     Final NS sqrt iter    5 1.00000000   0.662E-09

     Est. extremal eigenvalues     -0.93727     1.70563  converged:  T
     TRS4 it   1 1.00000000   0.883E+00       0.001       16.128   0.100E-07
     TRS4 it   2 1.00000000   0.620E+00       0.001       32.256   0.100E-07
     TRS4 it   3 1.00000000   0.421E+00       0.001       32.256   0.100E-07
     TRS4 it   4 1.00000000   0.214E+00       0.001       32.256   0.100E-07
     TRS4 it   5 1.00000000   0.688E-01       0.001       31.429   0.100E-07
     TRS4 it   6 1.00000000   0.897E-02       0.001       32.256   0.100E-07
     TRS4 it   7 1.00000000   0.203E-03       0.001       32.256   0.100E-07
     TRS4 it   8 1.00000000   0.145E-06       0.001       32.256   0.100E-07
     TRS4 it   9 1.00000000   0.906E-13       0.001       32.256   0.100E-07
     Final TRS4 iteration    9 1.00000000   0.906E-13
     Chemical potential (mu):       0.01204
 
 PAO| energy:  -7.7955065460884194      penalty:   1.2406568337546465E-005
 PAO|LS| adapt:  T T T
 PAO|LS| adapt: scan_steps:    0.0000000000000000       0.44242094552867012       0.88484189105734024     
 PAO|LS| adapt: energies:   -7.7955615025384661       -7.7955647063890794       -7.7955065460884194     
 PAO|LS| adapt: suggested step_size:   0.24430947418842539     
 PAO|LS| adapt: predicted energy  -7.7955708586199401     
 PAO| ======================= Iteration:        28 =============================

     Lanczos converged:  T threshold:   0.100E-02
     Est. extremal eigenvalues:    0.276E+01   0.181E+00
     Est. condition number :    0.153E+02
     NS sqrt iter    1 1.00000000   0.704E+00       0.002       40.561
     NS sqrt iter    2 1.00000000   0.328E+00       0.002       61.990
     NS sqrt iter    3 1.00000000   0.749E-01       0.002       64.677
     NS sqrt iter    4 1.00000000   0.184E-02       0.002       63.473
     NS sqrt iter    5 1.00000000   0.542E-07       0.002       45.184
     Final NS sqrt iter    5 1.00000000   0.687E-09

     Est. extremal eigenvalues     -0.93727     1.70605  converged:  T
     TRS4 it   1 1.00000000   0.883E+00       0.001       16.128   0.100E-07
     TRS4 it   2 1.00000000   0.620E+00       0.001       32.256   0.100E-07
     TRS4 it   3 1.00000000   0.422E+00       0.001       32.256   0.100E-07
     TRS4 it   4 1.00000000   0.214E+00       0.001       32.256   0.100E-07
     TRS4 it   5 1.00000000   0.689E-01       0.001       32.256   0.100E-07
     TRS4 it   6 1.00000000   0.899E-02       0.001       32.256   0.100E-07
     TRS4 it   7 1.00000000   0.204E-03       0.001       30.701   0.100E-07
     TRS4 it   8 1.00000000   0.147E-06       0.001       32.256   0.100E-07
     TRS4 it   9 1.00000000   0.931E-13       0.001       32.256   0.100E-07
     Final TRS4 iteration    9 1.00000000   0.931E-13
     Chemical potential (mu):       0.01191
 
 PAO| energy:  -7.7955708497661780      penalty:   1.3419256901815794E-005
 PAO|CG| trace_G_new    2.9155552503648553E-005
 PAO|CG| trace_G_prev    7.6362047236853872E-005
 PAO|CG| trace_G_mix    3.9203710321927251E-008
 PAO|CG| trace_D    1.1361586733132096E-004
 PAO|CG| trace_D_Gnew  -2.2120039773169687E-008
 PAO|CG| beta:   0.38129345462695358     
 PAO| norm of gradient:   5.3995881790788961E-003
 PAO| energy improvement:  -9.3472277118422653E-006
 PAO| step     28                   -7.795570850  0.337E-03  0.244E+00     0.082
 PAO|LS| adapt:  T F F
 PAO|LS| adapt: scan_steps:    0.0000000000000000        0.0000000000000000        0.0000000000000000     
 PAO|LS| adapt: energies:   -7.7955708497661780        0.0000000000000000        0.0000000000000000     
 PAO| ======================= Iteration:        29 =============================

     Lanczos converged:  T threshold:   0.100E-02
     Est. extremal eigenvalues:    0.276E+01   0.181E+00
     Est. condition number :    0.153E+02
     NS sqrt iter    1 1.00000000   0.704E+00       0.001       57.786
     NS sqrt iter    2 1.00000000   0.328E+00       0.001       94.271
     NS sqrt iter    3 1.00000000   0.749E-01       0.001       92.501
     NS sqrt iter    4 1.00000000   0.183E-02       0.001       95.337
     NS sqrt iter    5 1.00000000   0.540E-07       0.001       68.086
     Final NS sqrt iter    5 1.00000000   0.679E-09

     Est. extremal eigenvalues     -0.93727     1.70595  converged:  T
     TRS4 it   1 1.00000000   0.883E+00       0.000       16.128   0.100E-07
     TRS4 it   2 1.00000000   0.620E+00       0.001       32.256   0.100E-07
     TRS4 it   3 1.00000000   0.421E+00       0.001       32.256   0.100E-07
     TRS4 it   4 1.00000000   0.214E+00       0.001       32.256   0.100E-07
     TRS4 it   5 1.00000000   0.688E-01       0.001       32.256   0.100E-07
     TRS4 it   6 1.00000000   0.897E-02       0.001       32.256   0.100E-07
     TRS4 it   7 1.00000000   0.203E-03       0.001       32.256   0.100E-07
     TRS4 it   8 1.00000000   0.145E-06       0.001       32.256   0.100E-07
     TRS4 it   9 1.00000000   0.915E-13       0.001       32.256   0.100E-07
     Final TRS4 iteration    9 1.00000000   0.915E-13
     Chemical potential (mu):       0.01202
 
 PAO| energy:  -7.7955771293197902      penalty:   1.3004796206103779E-005
 PAO|LS| adapt:  T T F
 PAO|LS| adapt: scan_steps:    0.0000000000000000       0.24430947418842539        0.0000000000000000     
 PAO|LS| adapt: energies:   -7.7955708497661780       -7.7955771293197902        0.0000000000000000     
 PAO| ======================= Iteration:        30 =============================

     Lanczos converged:  T threshold:   0.100E-02
     Est. extremal eigenvalues:    0.276E+01   0.181E+00
     Est. condition number :    0.152E+02
     NS sqrt iter    1 1.00000000   0.704E+00       0.001       53.779
     NS sqrt iter    2 1.00000000   0.328E+00       0.001       85.949
     NS sqrt iter    3 1.00000000   0.748E-01       0.001       85.027
     NS sqrt iter    4 1.00000000   0.183E-02       0.002       66.994
     NS sqrt iter    5 1.00000000   0.537E-07       0.002       47.560
     Final NS sqrt iter    5 1.00000000   0.666E-09

     Est. extremal eigenvalues     -0.93727     1.70584  converged:  T
     TRS4 it   1 1.00000000   0.883E+00       0.001       16.128   0.100E-07
     TRS4 it   2 1.00000000   0.620E+00       0.001       32.256   0.100E-07
     TRS4 it   3 1.00000000   0.421E+00       0.001       32.256   0.100E-07
     TRS4 it   4 1.00000000   0.214E+00       0.001       32.256   0.100E-07
     TRS4 it   5 1.00000000   0.687E-01       0.001       32.256   0.100E-07
     TRS4 it   6 1.00000000   0.895E-02       0.001       32.256   0.100E-07
     TRS4 it   7 1.00000000   0.202E-03       0.001       32.256   0.100E-07
     TRS4 it   8 1.00000000   0.144E-06       0.001       32.256   0.100E-07
     TRS4 it   9 1.00000000   0.894E-13       0.001       32.256   0.100E-07
     Final TRS4 iteration    9 1.00000000   0.894E-13
     Chemical potential (mu):       0.01213
 
 PAO| energy:  -7.7955817171104247      penalty:   1.2597523172652732E-005
 PAO|LS| adapt:  T T F
 PAO|LS| adapt: scan_steps:    0.0000000000000000       0.48861894837685077        0.0000000000000000     
 PAO|LS| adapt: energies:   -7.7955708497661780       -7.7955817171104247        0.0000000000000000     
 PAO| ======================= Iteration:        31 =============================

     Lanczos converged:  T threshold:   0.100E-02
     Est. extremal eigenvalues:    0.276E+01   0.181E+00
     Est. condition number :    0.152E+02
     NS sqrt iter    1 1.00000000   0.703E+00       0.001       43.098
     NS sqrt iter    2 1.00000000   0.328E+00       0.002       68.790
     NS sqrt iter    3 1.00000000   0.747E-01       0.002       67.380
     NS sqrt iter    4 1.00000000   0.183E-02       0.002       69.672
     NS sqrt iter    5 1.00000000   0.532E-07       0.002       44.002
     Final NS sqrt iter    5 1.00000000   0.651E-09

     Est. extremal eigenvalues     -0.93727     1.70562  converged:  T
     TRS4 it   1 1.00000000   0.883E+00       0.001       16.128   0.100E-07
     TRS4 it   2 1.00000000   0.620E+00       0.001       32.256   0.100E-07
     TRS4 it   3 1.00000000   0.421E+00       0.001       31.230   0.100E-07
     TRS4 it   4 1.00000000   0.213E+00       0.001       32.256   0.100E-07
     TRS4 it   5 1.00000000   0.686E-01       0.001       32.256   0.100E-07
     TRS4 it   6 1.00000000   0.891E-02       0.001       32.256   0.100E-07
     TRS4 it   7 1.00000000   0.200E-03       0.001       32.256   0.100E-07
     TRS4 it   8 1.00000000   0.141E-06       0.001       32.256   0.100E-07
     TRS4 it   9 1.00000000   0.849E-13       0.001       32.256   0.100E-07
     Final TRS4 iteration    9 1.00000000   0.849E-13
     Chemical potential (mu):       0.01235
 
 PAO| energy:  -7.7955858212677738      penalty:   1.1804410423638059E-005
 PAO|LS| Need extra step
 PAO|LS| adapt:  T T F
 PAO|LS| adapt: scan_steps:    0.0000000000000000       0.97723789675370154        0.0000000000000000     
 PAO|LS| adapt: energies:   -7.7955708497661780       -7.7955858212677738        0.0000000000000000     
 PAO| ======================= Iteration:        32 =============================

     Lanczos converged:  T threshold:   0.100E-02
     Est. extremal eigenvalues:    0.276E+01   0.181E+00
     Est. condition number :    0.152E+02
     NS sqrt iter    1 1.00000000   0.702E+00       0.003       18.545
     NS sqrt iter    2 1.00000000   0.327E+00       0.002       67.190
     NS sqrt iter    3 1.00000000   0.744E-01       0.005       24.019
     NS sqrt iter    4 1.00000000   0.181E-02       0.004       31.019
     NS sqrt iter    5 1.00000000   0.523E-07       0.001       50.378
     Final NS sqrt iter    5 1.00000000   0.476E-09

     Est. extremal eigenvalues     -0.93728     1.70517  converged:  T
     TRS4 it   1 1.00000000   0.883E+00       0.001       16.128   0.100E-07
     TRS4 it   2 1.00000000   0.620E+00       0.001       32.256   0.100E-07
     TRS4 it   3 1.00000000   0.421E+00       0.001       32.256   0.100E-07
     TRS4 it   4 1.00000000   0.213E+00       0.001       32.256   0.100E-07
     TRS4 it   5 1.00000000   0.683E-01       0.001       32.256   0.100E-07
     TRS4 it   6 1.00000000   0.884E-02       0.001       32.256   0.100E-07
     TRS4 it   7 1.00000000   0.196E-03       0.001       32.256   0.100E-07
     TRS4 it   8 1.00000000   0.135E-06       0.001       32.256   0.100E-07
     TRS4 it   9 1.00000000   0.780E-13       0.001       32.256   0.100E-07
     Final TRS4 iteration    9 1.00000000   0.780E-13
     Chemical potential (mu):       0.01278
 
 PAO| energy:  -7.7955737269787573      penalty:   1.0303018295840891E-005
 PAO|LS| Need extra step
 PAO|LS| adapt:  T T T
 PAO|LS| adapt: scan_steps:    0.0000000000000000       0.97723789675370154        1.9544757935074031     
 PAO|LS| adapt: energies:   -7.7955708497661780       -7.7955858212677738       -7.7955737269787573     
 PAO|LS| adapt: suggested step_size:    1.0291802399459851     
 PAO|LS| adapt: predicted energy  -7.7955858595003180     
 PAO| ======================= Iteration:        33 =============================

     Lanczos converged:  T threshold:   0.100E-02
     Est. extremal eigenvalues:    0.276E+01   0.181E+00
     Est. condition number :    0.152E+02
     NS sqrt iter    1 1.00000000   0.703E+00       0.001       48.118
     NS sqrt iter    2 1.00000000   0.327E+00       0.001       96.937
     NS sqrt iter    3 1.00000000   0.747E-01       0.001      101.524
     NS sqrt iter    4 1.00000000   0.182E-02       0.001      103.180
     NS sqrt iter    5 1.00000000   0.532E-07       0.001       67.176
     Final NS sqrt iter    5 1.00000000   0.650E-09

     Est. extremal eigenvalues     -0.93727     1.70559  converged:  T
     TRS4 it   1 1.00000000   0.883E+00       0.000       16.128   0.100E-07
     TRS4 it   2 1.00000000   0.620E+00       0.001       32.256   0.100E-07
     TRS4 it   3 1.00000000   0.421E+00       0.001       32.256   0.100E-07
     TRS4 it   4 1.00000000   0.213E+00       0.001       32.256   0.100E-07
     TRS4 it   5 1.00000000   0.686E-01       0.001       32.256   0.100E-07
     TRS4 it   6 1.00000000   0.891E-02       0.001       32.256   0.100E-07
[...]
     NS sqrt iter    4 1.00000000   0.730E-03       0.002       68.432
     NS sqrt iter    5 1.00000000   0.514E-08       0.001       29.242
     Final NS sqrt iter    5 1.00000000   0.309E-09

     Est. extremal eigenvalues     -0.93698     1.63020  converged:  T
     TRS4 it   1 1.00000000   0.884E+00       0.001       16.128   0.100E-07
     TRS4 it   2 1.00000000   0.634E+00       0.001       32.256   0.100E-07
     TRS4 it   3 1.00000000   0.454E+00       0.001       32.256   0.100E-07
     TRS4 it   4 1.00000000   0.277E+00       0.001       32.256   0.100E-07
     TRS4 it   5 1.00000000   0.137E+00       0.001       32.256   0.100E-07
     TRS4 it   6 1.00000000   0.426E-01       0.001       32.256   0.100E-07
     TRS4 it   7 1.00000000   0.573E-02       0.001       31.275   0.100E-07
     TRS4 it   8 1.00000000   0.139E-03       0.001       30.424   0.100E-07
     TRS4 it   9 1.00000000   0.876E-07       0.001       29.501   0.100E-07
     TRS4 it  10 1.00000000   0.344E-13       0.001       28.964   0.100E-07
     Final TRS4 iteration   10 1.00000000   0.344E-13
     Chemical potential (mu):      -0.07373
 
 PAO| energy:  -7.7948446903776860      penalty:   3.8815122968897893E-008
 PAO|LS| Need extra step
 PAO|LS| adapt:  T T T
 PAO|LS| adapt: scan_steps:    0.0000000000000000       0.20000000000000001       0.40000000000000002     
 PAO|LS| adapt: energies:   -7.7948446864102632       -7.7948446914263867       -7.7948446903776860     
 PAO|LS| adapt: suggested step_size:   0.26541694705263402     
 PAO|LS| adapt: predicted energy  -7.7948446917508072     
 PAO| ======================= Iteration:       440 =============================

     Lanczos converged:  T threshold:   0.100E-02
     Est. extremal eigenvalues:    0.248E+01   0.191E+00
     Est. condition number :    0.130E+02
     NS sqrt iter    1 1.00000000   0.628E+00       0.002       32.344
     NS sqrt iter    2 1.00000000   0.272E+00       0.002       61.963
     NS sqrt iter    3 1.00000000   0.476E-01       0.002       63.500
     NS sqrt iter    4 1.00000000   0.730E-03       0.002       67.790
     NS sqrt iter    5 1.00000000   0.514E-08       0.001       28.978
     Final NS sqrt iter    5 1.00000000   0.309E-09

     Est. extremal eigenvalues     -0.93698     1.63020  converged:  T
     TRS4 it   1 1.00000000   0.884E+00       0.001       16.128   0.100E-07
     TRS4 it   2 1.00000000   0.634E+00       0.001       32.256   0.100E-07
     TRS4 it   3 1.00000000   0.454E+00       0.001       32.256   0.100E-07
     TRS4 it   4 1.00000000   0.277E+00       0.001       32.256   0.100E-07
     TRS4 it   5 1.00000000   0.137E+00       0.001       32.256   0.100E-07
     TRS4 it   6 1.00000000   0.426E-01       0.001       32.256   0.100E-07
     TRS4 it   7 1.00000000   0.573E-02       0.001       32.256   0.100E-07
     TRS4 it   8 1.00000000   0.139E-03       0.001       32.256   0.100E-07
     TRS4 it   9 1.00000000   0.876E-07       0.001       32.256   0.100E-07
     TRS4 it  10 1.00000000   0.349E-13       0.001       32.256   0.100E-07
     Final TRS4 iteration   10 1.00000000   0.349E-13
     Chemical potential (mu):      -0.07373
 
 PAO| energy:  -7.7948446917508143      penalty:   3.9241569022124639E-008
 PAO|CG| warming up with steepest descent
 PAO|CG| beta:    0.0000000000000000     
 PAO| norm of gradient:   1.3848735429989643E-004
 PAO| energy improvement:  -5.3405511124537952E-009
 PAO| step    440                   -7.794844692  0.866E-05  0.265E+00     0.112
 PAO| converged after          440  steps :-)
 PAO| Recalculating energy after mixing.

     Lanczos converged:  T threshold:   0.100E-02
     Est. extremal eigenvalues:    0.248E+01   0.191E+00
     Est. condition number :    0.130E+02
     NS sqrt iter    1 1.00000000   0.628E+00       0.002       34.411
     NS sqrt iter    2 1.00000000   0.272E+00       0.002       59.979
     NS sqrt iter    3 1.00000000   0.476E-01       0.002       61.664
     NS sqrt iter    4 1.00000000   0.730E-03       0.002       61.422
     NS sqrt iter    5 1.00000000   0.514E-08       0.001       28.102
     Final NS sqrt iter    5 1.00000000   0.309E-09

     Est. extremal eigenvalues     -0.93698     1.63020  converged:  T
     TRS4 it   1 1.00000000   0.884E+00       0.001       16.128   0.100E-07
     TRS4 it   2 1.00000000   0.634E+00       0.001       27.897   0.100E-07
     TRS4 it   3 1.00000000   0.454E+00       0.001       30.548   0.100E-07
     TRS4 it   4 1.00000000   0.277E+00       0.001       30.279   0.100E-07
     TRS4 it   5 1.00000000   0.137E+00       0.001       29.808   0.100E-07
     TRS4 it   6 1.00000000   0.426E-01       0.001       30.572   0.100E-07
     TRS4 it   7 1.00000000   0.573E-02       0.001       31.134   0.100E-07
     TRS4 it   8 1.00000000   0.139E-03       0.001       31.230   0.100E-07
     TRS4 it   9 1.00000000   0.876E-07       0.001       32.256   0.100E-07
     TRS4 it  10 1.00000000   0.347E-13       0.001       32.256   0.100E-07
     Final TRS4 iteration   10 1.00000000   0.347E-13
     Chemical potential (mu):      -0.07373
 
 PAO| energy:  -7.7948446904156610      penalty:   3.9664358001291175E-008
 PAO| Writing restart file.
     Est. extremal eigenvalues     -0.93698     1.63020  converged:  T
     TRS4 it   1 1.00000000   0.884E+00       0.001       16.128   0.100E-07
     TRS4 it   2 1.00000000   0.634E+00       0.001       29.227   0.100E-07
     TRS4 it   3 1.00000000   0.454E+00       0.001       32.256   0.100E-07
     TRS4 it   4 1.00000000   0.277E+00       0.001       32.256   0.100E-07
     TRS4 it   5 1.00000000   0.137E+00       0.001       32.256   0.100E-07
     TRS4 it   6 1.00000000   0.426E-01       0.001       32.256   0.100E-07
     TRS4 it   7 1.00000000   0.573E-02       0.001       32.256   0.100E-07
     TRS4 it   8 1.00000000   0.139E-03       0.001       32.256   0.100E-07
     TRS4 it   9 1.00000000   0.876E-07       0.001       32.256   0.100E-07
     TRS4 it  10 1.00000000   0.347E-13       0.001       32.256   0.100E-07
     Final TRS4 iteration   10 1.00000000   0.347E-13
     Chemical potential (mu):      -0.07373

 SCF     1       -34.449608423       -34.449608423    2.269432

*********************************************************
 Using MIXING_FRACTION=0.450 to mix KS matrix:  iscf=  2
 KS_nw=0.450*KS + 0.550*KS_old
*********************************************************
     Est. extremal eigenvalues     -0.93698     1.63020  converged:  T
     TRS4 it   1 1.00000000   0.884E+00       0.001       16.128   0.100E-07
     TRS4 it   2 1.00000000   0.634E+00       0.001       32.256   0.100E-07
     TRS4 it   3 1.00000000   0.454E+00       0.001       31.737   0.100E-07
     TRS4 it   4 1.00000000   0.277E+00       0.001       32.256   0.100E-07
     TRS4 it   5 1.00000000   0.137E+00       0.001       32.256   0.100E-07
     TRS4 it   6 1.00000000   0.426E-01       0.001       32.256   0.100E-07
     TRS4 it   7 1.00000000   0.573E-02       0.001       31.031   0.100E-07
     TRS4 it   8 1.00000000   0.140E-03       0.001       32.256   0.100E-07
     TRS4 it   9 1.00000000   0.876E-07       0.001       32.256   0.100E-07
     TRS4 it  10 1.00000000   0.340E-13       0.001       32.256   0.100E-07
     Final TRS4 iteration   10 1.00000000   0.340E-13
     Chemical potential (mu):      -0.07373

 SCF     2       -34.449608423        -0.000000000    2.293893

 PAO| Storing density matrix for ASPC guess in slot:           1

 ENERGY| Total FORCE_EVAL ( QS ) energy (a.u.):              -34.449608422750970


 -------------------------------------------------------------------------------
 -                                                                             -
 -                                DBCSR STATISTICS                             -
 -                                                                             -
 -------------------------------------------------------------------------------
 COUNTER                                    TOTAL       BLAS       SMM       ACC
 flops     5 x     5 x     4                20000     100.0%      0.0%      0.0%
 flops    13 x     5 x     4                20800     100.0%      0.0%      0.0%
 flops     5 x    13 x     4                20800     100.0%      0.0%      0.0%
 flops    13 x    13 x     4                40560     100.0%      0.0%      0.0%
 flops     4 x     4 x     5              3452160     100.0%      0.0%      0.0%
 flops     5 x     4 x     5              4211200     100.0%      0.0%      0.0%
 flops     4 x     4 x    13              4487808     100.0%      0.0%      0.0%
 flops    13 x     4 x     5              5474560     100.0%      0.0%      0.0%
 flops     5 x     4 x    13              5474560     100.0%      0.0%      0.0%
 flops     5 x     4 x     4              6723360     100.0%      0.0%      0.0%
 flops    13 x     4 x    13              7116928     100.0%      0.0%      0.0%
 flops    13 x     4 x     4              8949824     100.0%      0.0%      0.0%
 flops     4 x     4 x     4            445188992     100.0%      0.0%      0.0%
 flops inhomo. stacks                           0       0.0%      0.0%      0.0%
 flops total                       491.181552E+06     100.0%      0.0%      0.0%
 flops max/rank                    491.181552E+06     100.0%      0.0%      0.0%
 matmuls inhomo. stacks                         0       0.0%      0.0%      0.0%
 matmuls total                            3621524     100.0%      0.0%      0.0%
 number of processed stacks                 28874     100.0%      0.0%      0.0%
 average stack size                                   125.4       0.0       0.0
 marketing flops                   798.742656E+06
 -------------------------------------------------------------------------------
 # multiplications                          24129
 max memory usage/rank             328.155136E+06
 # max total images/rank                        1
 # max 3D layers                                1
 # MPI messages exchanged                       0
 MPI messages size (bytes):
  total size                         0.000000E+00
  min size                           0.000000E+00
  max size                           0.000000E+00
  average size                       0.000000E+00
 MPI breakdown and total messages size (bytes):
             size <=      128                   0                        0
       128 < size <=     8192                   0                        0
      8192 < size <=    32768                   0                        0
     32768 < size <=   131072                   0                        0
    131072 < size <=  4194304                   0                        0
   4194304 < size <= 16777216                   0                        0
  16777216 < size                               0                        0
 -------------------------------------------------------------------------------

 MEMORY| Estimated peak process memory [MiB]                                 313

 -------------------------------------------------------------------------------
 -                                                                             -
 -                           R E F E R E N C E S                               -
 -                                                                             -
 -------------------------------------------------------------------------------
 
 CP2K version 7.0 (Development Version), the CP2K developers group (2018).
 CP2K is freely available from https://www.cp2k.org/ .

 Schuett, O; VandeVondele, J. 
 Journal of Chemical Theory and Computation, 14, (2018). 
 Machine Learning Adaptive Basis Sets for Efficient Large Scale Density Functional Theory Simulation.
 https://dx.doi.org/10.1021/acs.jctc.8b00378


 Schuett, Ole; Messmer, Peter; Hutter, Juerg; VandeVondele, Joost. 
 Electronic Structure Calculations on Graphics Processing Units, John Wiley & Sons, Ltd, 173-190 (2016). 
 GPU-Accelerated Sparse Matrix-Matrix Multiplication for Linear Scaling Density Functional Theory.
 https://dx.doi.org/10.1002/9781118670712.ch8


 Borstnik, U; VandeVondele, J; Weber, V; Hutter, J. 
 PARALLEL COMPUTING, 40 (5-6), 47-58 (2014). 
 Sparse matrix multiplication: The distributed block-compressed sparse
 row library.
 https://dx.doi.org/10.1016/j.parco.2014.03.012


 Hutter, J; Iannuzzi, M; Schiffmann, F; VandeVondele, J. 
 WILEY INTERDISCIPLINARY REVIEWS-COMPUTATIONAL MOLECULAR SCIENCE, 4 (1), 15-25 (2014). 
 CP2K: atomistic simulations of condensed matter systems.
 https://dx.doi.org/10.1002/wcms.1159


 VandeVondele, J; Borstnik, U; Hutter, J. 
 JOURNAL OF CHEMICAL THEORY AND COMPUTATION, 8 (10), 3565-3573 (2012). 
 Linear Scaling Self-Consistent Field Calculations with Millions of Atoms
 in the Condensed Phase.
 https://dx.doi.org/10.1021/ct200897x


 VandeVondele, J; Hutter, J. 
 JOURNAL OF CHEMICAL PHYSICS, 127 (11), 114105 (2007). 
 Gaussian basis sets for accurate calculations on molecular systems in
 gas and condensed phases.
 https://dx.doi.org/10.1063/1.2770708


 Krack, M. 
 THEORETICAL CHEMISTRY ACCOUNTS, 114 (1-3), 145-152 (2005). 
 Pseudopotentials for H to Kr optimized for gradient-corrected
 exchange-correlation functionals.
 https://dx.doi.org/10.1007/s00214-005-0655-y


 VandeVondele, J; Krack, M; Mohamed, F; Parrinello, M; Chassaing, T;
 Hutter, J. COMPUTER PHYSICS COMMUNICATIONS, 167 (2), 103-128 (2005). 
 QUICKSTEP: Fast and accurate density functional calculations using a
 mixed Gaussian and plane waves approach.
 https://dx.doi.org/10.1016/j.cpc.2004.12.014


 Frigo, M; Johnson, SG. 
 PROCEEDINGS OF THE IEEE, 93 (2), 216-231 (2005). 
 The design and implementation of FFTW3.
 https://dx.doi.org/10.1109/JPROC.2004.840301


 Niklasson, AMN; Tymczak, CJ; Challacombe, M. 
 JOURNAL OF CHEMICAL PHYSICS, 118 (19), 8611-8620 (2003). 
 Trace resetting density matrix purification in O(N)
 self-consistent-field theory.
 https://dx.doi.org/10.1063/1.1559913


 Hartwigsen, C; Goedecker, S; Hutter, J. 
 PHYSICAL REVIEW B, 58 (7), 3641-3662 (1998). 
 Relativistic separable dual-space Gaussian pseudopotentials from H to Rn.
 https://dx.doi.org/10.1103/PhysRevB.58.3641


 Lippert, G; Hutter, J; Parrinello, M. 
 MOLECULAR PHYSICS, 92 (3), 477-487 (1997). 
 A hybrid Gaussian and plane wave density functional scheme.
 https://dx.doi.org/10.1080/002689797170220


 Perdew, JP; Burke, K; Ernzerhof, M. 
 PHYSICAL REVIEW LETTERS, 77 (18), 3865-3868 (1996). 
 Generalized gradient approximation made simple.
 https://dx.doi.org/10.1103/PhysRevLett.77.3865


 Goedecker, S; Teter, M; Hutter, J. 
 PHYSICAL REVIEW B, 54 (3), 1703-1710 (1996). 
 Separable dual-space Gaussian pseudopotentials.
 https://dx.doi.org/10.1103/PhysRevB.54.1703


 -------------------------------------------------------------------------------
 -                                                                             -
 -                                T I M I N G                                  -
 -                                                                             -
 -------------------------------------------------------------------------------
 SUBROUTINE                       CALLS  ASD         SELF TIME        TOTAL TIME
                                MAXIMUM       AVERAGE  MAXIMUM  AVERAGE  MAXIMUM
 CP2K                                 1  1.0    0.028    0.028   35.347   35.347
 qs_energies                          1  2.0    0.000    0.000   34.889   34.889
 ls_scf                               1  3.0    0.000    0.000   34.743   34.743
 ls_scf_main                          4  4.0    0.001    0.001   20.947   20.947
 ls_scf_dm_to_ks                      9  5.0    0.000    0.000   20.828   20.828
 qs_ks_update_qs_env                 10  6.0    0.000    0.000   16.347   16.347
 rebuild_ks_matrix                   10  7.0    0.000    0.000   16.347   16.347
 qs_ks_build_kohn_sham_matrix        10  8.0    0.001    0.001   16.347   16.347
 pao_update                           4  4.0    0.012    0.012   11.526   11.526
 pao_calc_energy                    443  5.0    0.005    0.005   10.388   10.388
 qs_vxc_create                       10  9.0    0.000    0.000    9.892    9.892
 xc_vxc_pw_create                    10 10.0    0.122    0.122    9.891    9.891
 dbcsr_multiply_generic           24129  8.4    0.550    0.550    8.907    8.907
 xc_rho_set_and_dset_create          10 11.0    0.032    0.032    7.142    7.142
 pw_transfer                        191 10.6    0.013    0.013    6.879    6.879
 fft_wrap_pw1pw2                    171 11.7    0.002    0.002    6.787    6.787
 qs_rho_update_rho                   10  6.0    0.000    0.000    6.664    6.664
 calculate_rho_elec                  10  7.0    5.135    5.135    6.664    6.664
 fft_wrap_pw1pw2_200                111 12.8    0.346    0.346    6.491    6.491
 sum_up_and_integrate                10  9.0    0.021    0.021    5.512    5.512
 integrate_v_rspace                  10 10.0    4.669    4.669    5.490    5.490
 pao_dm_trs4                        443  6.0    0.004    0.004    5.391    5.391
 density_matrix_trs4                452  7.0    0.194    0.194    5.199    5.199
 xc_functional_eval                  10 12.0    0.000    0.000    5.068    5.068
 pbe_lda_eval                        10 13.0    5.068    5.068    5.068    5.068
 ls_scf_init_matrix_S               447  7.0    0.004    0.004    4.992    4.992
 pao_rebuild_S                      443  6.0    0.003    0.003    4.946    4.946
 matrix_sqrt_Newton_Schulz          447  8.0    0.121    0.121    4.499    4.499
 multiply_cannon                  24129  9.4    1.414    1.414    4.186    4.186
 fft3d_s                            172 13.6    3.567    3.567    3.580    3.580
 make_m2s                         48258  9.4    0.208    0.208    2.834    2.834
 make_images                      48258 10.4    0.676    0.676    2.500    2.500
 pao_guess_initial_P                  1  4.0    0.000    0.000    2.189    2.189
 pao_read_preopt_dm                   1  5.0    0.000    0.000    2.189    2.189
 pw_gather_s                         81 13.1    1.692    1.692    1.692    1.692
 multiply_cannon_multrec          24129 10.4    1.481    1.481    1.621    1.621
 density_rs2pw                       10  8.0    0.001    0.001    1.516    1.516
 arnoldi_extremal                   899  8.5    0.005    0.005    1.245    1.245
 arnoldi_normal_ev                  899  9.5    0.014    0.014    1.241    1.241
 pw_scatter_s                        90 14.2    1.152    1.152    1.152    1.152
 pao_calc_AB                        583  5.8    0.001    0.001    1.117    1.117
 pao_calc_AB_direct                 583  6.8    0.031    0.031    1.116    1.116
 pao_calc_grad_lnv_wrt_AB           139  7.0    0.008    0.008    1.050    1.050
 build_subspace                     899 10.5    0.065    0.065    0.927    0.927
 dbcsr_matrix_vector_mult         21570 11.5    0.133    0.133    0.833    0.833
 dbcsr_finalize                   57442  9.6    0.136    0.136    0.830    0.830
 potential_pw2rs                     10 11.0    0.003    0.003    0.819    0.819
 dbcsr_create_new                184535 10.7    0.402    0.402    0.766    0.766
 -------------------------------------------------------------------------------

 The number of warnings for this run is : 0
 
 -------------------------------------------------------------------------------
  **** **** ******  **  PROGRAM ENDED AT                 2019-03-28 17:34:36.236
 ***** ** ***  *** **   PROGRAM RAN ON            oleschuett.zrh.corp.google.com
 **    ****   ******    PROGRAM RAN BY                                oleschuett
 ***** **    ** ** **   PROGRAM PROCESS ID                                 35616
  **** **  *******  **  PROGRAM STOPPED IN /usr/local/google/home/oleschuett/git
                                           /pao_ml_equivar/2H2O_rotations/rand_0
                                           8
