6
Properties=species:S:1:pos:R:3 i=0 time=0.0 E=-34.4504806384 pbc="F F F"
O        1.81293236       0.34430420      -6.27931064
H        0.89215947       0.06258558      -6.26926565
H        1.97158726       0.73497215      -5.41424638
O        3.57691038      -2.05935966      -6.61079157
H        4.13473531      -1.96863604      -7.38843260
H        3.04488235      -1.24918294      -6.57934562
