6
Properties=species:S:1:pos:R:3 i=0 time=0.0 E=-34.4504806384 pbc="F F F"
O       0.02204728       4.88999235       4.35000000 
H      -0.66958165       5.08833152       3.71000000 
H       0.19676738       3.94830987       4.25600000 
O       2.49808945       6.42527349       3.63500000 
H       2.77438931       6.98641820       4.36500000 
H       1.70028837       5.97074248       3.94700000 
