 DBCSR| CPU Multiplication driver                                           XSMM (U)
 DBCSR| Multrec recursion limit                                              512 (U)
 DBCSR| Multiplication stack size                                           1000 (D)
 DBCSR| Maximum elements for images                                    UNLIMITED (U)
 DBCSR| Multiplicative factor virtual images                                   1 (U)
 DBCSR| Use multiplication densification                                       T (D)
 DBCSR| Multiplication size stacks                                             3 (U)
 DBCSR| Use memory pool for CPU allocation                                     F (U)
 DBCSR| Number of 3D layers                                               SINGLE (U)
 DBCSR| Use MPI memory allocation                                              F (U)
 DBCSR| Use RMA algorithm                                                      F (U)
 DBCSR| Use Communication thread                                               T (U)
 DBCSR| Communication thread load                                             87 (D)
 DBCSR| MPI: My process id                                                     0
 DBCSR| MPI: Number of processes                                              32
 DBCSR| OMP: Current number of threads                                         1
 DBCSR| OMP: Max number of threads                                             1
 DBCSR| Split modifier for TAS multiplication algorithm                  1.0E+00 (U)


  **** **** ******  **  PROGRAM STARTED AT               2024-09-24 05:35:14.641
 ***** ** ***  *** **   PROGRAM STARTED ON                                moritz
 **    ****   ******    PROGRAM STARTED BY                                   ole
 ***** **    ** ** **   PROGRAM PROCESS ID                                169559
  **** **  *******  **  PROGRAM STARTED IN /home/ole/git/pao_ml_equivar/64H2O_MD
                                           /Frame5900

 CP2K| version string:                 CP2K version 2024.3 (Development Version)
 CP2K| source code revision number:                                  git:3f890bb
 CP2K| cp2kflags: omp libint fftw3 libxc libgrpp pexsi elpa parallel scalapack c
 CP2K|            osma quip deepmd xsmm plumed2 spglib libdftd4 sirius libvori l
 CP2K|            libbqb libvdwxc hdf5
 CP2K| is freely available from                            https://www.cp2k.org/
 CP2K| Program compiled at                          Mo 23 Sep 2024 17:17:04 CEST
 CP2K| Program compiled on                                                moritz
 CP2K| Program compiled for                                                local
 CP2K| Data directory path                               /home/ole/git/cp2k/data
 CP2K| Input file name                                           64H2O_pao44.inp

 GLOBAL| Force Environment number                                              1
 GLOBAL| Basis set file name                                        BASIS_MOLOPT
 GLOBAL| Potential file name                                      GTH_POTENTIALS
 GLOBAL| MM Potential file name                                     MM_POTENTIAL
 GLOBAL| Coordinate file name                                         coords.xyz
 GLOBAL| Method name                                                        CP2K
 GLOBAL| Project name                                                64H2O_pao44
 GLOBAL| Run type                                                         ENERGY
 GLOBAL| FFT library                                                       FFTW3
 GLOBAL| Diagonalization library                                            ELPA
 GLOBAL| DGEMM library                                                      BLAS
 GLOBAL| Minimum number of eigenvectors for ELPA usage                        16
 GLOBAL| Orthonormality check for eigenvectors                          DISABLED
 GLOBAL| Matrix multiplication library                                     COSMA
 GLOBAL| All-to-all communication in single precision                          F
 GLOBAL| FFTs using library dependent lengths                                  F
 GLOBAL| Grid backend                                                       AUTO
 GLOBAL| Global print level                                                  LOW
 GLOBAL| MPI I/O enabled                                                       T
 GLOBAL| Total number of message passing processes                            32
 GLOBAL| Number of threads for this process                                    1
 GLOBAL| This output is from process                                           0
 GLOBAL| Stack size for threads created by OpenMP (OMP_STACKSIZE)        default
 GLOBAL| CPU model name           AMD Ryzen Threadripper 3970X 32-Core Processor
 GLOBAL| CPUID                                                              1002

 MEMORY| system memory details [Kb]
 MEMORY|                        rank 0           min           max       average
 MEMORY| MemTotal            131752136     131752136     131752136     131752136
 MEMORY| MemFree             114290456     114290456     114290456     114290456
 MEMORY| Buffers               2025288       2025288       2025288       2025288
 MEMORY| Cached                8712268       8712264       8712268       8712264
 MEMORY| Slab                  1643100       1643100       1643100       1643100
 MEMORY| SReclaimable          1145804       1145804       1145804       1145804
 MEMORY| MemLikelyFree       126173816     126173812     126173816     126173812


 GENERATE|  Preliminary Number of Bonds generated:                             0
 GENERATE|  Achieved consistency in connectivity generation.

 *******************************************************************************
 *******************************************************************************
 **                                                                           **
 **     #####                         ##              ##                      **
 **    ##   ##            ##          ##              ##                      **
 **   ##     ##                       ##            ######                    **
 **   ##     ##  ##   ##  ##   #####  ##  ##   ####   ##    #####    #####    **
 **   ##     ##  ##   ##  ##  ##      ## ##   ##      ##   ##   ##  ##   ##   **
 **   ##  ## ##  ##   ##  ##  ##      ####     ###    ##   ######   ######    **
 **    ##  ###   ##   ##  ##  ##      ## ##      ##   ##   ##       ##        **
 **     #######   #####   ##   #####  ##  ##  ####    ##    #####   ##        **
 **           ##                                                    ##        **
 **                                                                           **
 **                                                ... make the atoms dance   **
 **                                                                           **
 **            Copyright (C) by CP2K developers group (2000-2024)             **
 **                      J. Chem. Phys. 152, 194103 (2020)                    **
 **                                                                           **
 *******************************************************************************


 TOTAL NUMBERS AND MAXIMUM NUMBERS

  Total number of            - Atomic kinds:                                   2
                             - Atoms:                                        192
                             - Shell sets:                                   192
                             - Shells:                                       704
                             - Primitive Cartesian functions:               1344
                             - Cartesian basis functions:                   1536
                             - Spherical basis functions:                   1472

  Maximum angular momentum of- Orbital basis functions:                        2
                             - Local part of the GTH pseudopotential:          2
                             - Non-local part of the GTH pseudopotential:      0

 ------------------------------ Linear scaling SCF -----------------------------
 eps_scf:                                                              0.100E-07
 eps_filter:                                                           0.100E-11
 mixing_fraction:                                                      0.450E+00
 max_scf:                                                                     25
 fixed chemical potential (mu)                                                 F
 has unit metric:                                                              F
 Computing inv(S):                                                             T
 Computing sqrt(S):                                                            T
 Computing S preconditioner                                                    F
 S sqrt method:                                                     NEWTONSCHULZ
 S sqrt order:                                                                 3
 Extrapolation order:                                                          1
 S preconditioner type                                                      NONE
 Polarized Atomic Orbitals (PAO)                                               T
 Purification method                                   Trace resetting 4th order
 Cluster type                                                             ATOMIC
 Computing Chebyshev                                                       FALSE
 Using PAO                                                                     T
 -------------------------------------------------------------------------------

 
 PAO|                                  EPS_PAO                           0.5E-06
 PAO|                                  MIXING                            0.5E+00
 PAO|                                  MAX_PAO                              1500
 PAO|                                  MAX_CYCLES                           1000
 PAO|                                  PARAMETERIZATION              EQUIVARIANT
 PAO|                                  PRECONDITION                            F
 PAO|                                  REGULARIZATION                    0.0E+00
 PAO|                                  EPS_PGF                           0.1E-09
 PAO|                                  PENALTY_DISTANCE                  0.1E+00
 PAO|                                  PENALTY_STRENGTH                  0.5E-02
 PAO|                                  LINPOT_PRECONDITION_DELTA         0.0E+00
 PAO|                                  LINPOT_INITGUESS_DELT             0.0E+00
 PAO|                                  LINPOT_REGULARIZATION_DELTA       0.0E+00
 PAO|                                  LINPOT_REGULARIZATION_STRENGTH    0.0E+00
 PAO|                                  OPTIMIZER                              CG
 PAO|                                  CG_INIT_STEPS                           2
 PAO|                                  CG_RESET_LIMIT                    0.1E+00
 PAO|                                  CHECK_UNITARY_TOL                -0.1E+01
 PAO|                                  CHECK_GRADIENT_TOL               -0.1E+01
 PAO|                                  NUM_GRADIENT_ORDER                      2
 PAO|                                  NUM_GRADIENT_EPS                  0.1E-07
 PAO|                                  PRINT%RESTART%WRITE_CYCLES            100
 PAO|                                  RESTART_FILE 
 PAO|                                  PREOPT_DM_FILE 64H2O_ref_LS_DM_SPIN_1_RESTART.dm
 PAO|                                  MACHINE_LEARNING%METHOD       GAUSSIAN_PR
 PAO|                                  MACHINE_LEARNING%PRIOR               ZERO
 PAO|                                  MACHINE_LEARNING%DESCRIPTOR     POTENTIAL
 PAO|                                  MACHINE_LEARNING%TOLERANCE        0.1E-01
 PAO|                                  MACHINE_LEARNING%GP_NOISE_VAR     0.1E+00
 PAO|                                  MACHINE_LEARNING%GP_SCALE         0.5E-01
 

 Calculating atomic Fock matrix for atomic kind: O

 Electronic structure
    Total number of core electrons                                          2.00
    Total number of valence electrons                                       6.00
    Total number of electrons                                               8.00
    Multiplicity                                                   not specified
    S   [  2.00] 2.00
    P      4.00


 *******************************************************************************
                  Iteration          Convergence                     Energy [au]
 *******************************************************************************
                          1        0.708315                     -15.576645311500
                          2        0.608879                     -15.587933561584
                          3        0.102828E-01                 -15.656849565404
                          4        0.113889E-02                 -15.656866888140
                          5        0.434197E-03                 -15.656867072159
                          6        0.263771E-03                 -15.656867091904
                          7        0.478536E-06                 -15.656867103452

 Energy components [Hartree]           Total Energy ::          -15.656867103452
                                        Band Energy ::           -3.000198112285
                                     Kinetic Energy ::           11.759971203220
                                   Potential Energy ::          -27.416838306672
                                      Virial (-V/T) ::            2.331369510426
                                        Core Energy ::          -26.140716385623
                                          XC Energy ::           -3.154051012914
                                     Coulomb Energy ::           13.637900295084
                       Total Pseudopotential Energy ::          -37.935781716540
                       Local Pseudopotential Energy ::          -39.218907440693
                    Nonlocal Pseudopotential Energy ::            1.283125724153
                                        Confinement ::            0.350941276976

 Orbital energies  State     L     Occupation   Energy[a.u.]          Energy[eV]

                       1     0          2.000      -0.864471          -23.523463

                       1     1          4.000      -0.317814           -8.648154


 Total Electron Density at R=0:                                         0.000068

 Calculating atomic Fock matrix for atomic kind: H

 Electronic structure
    Total number of core electrons                                          0.00
    Total number of valence electrons                                       1.00
    Total number of electrons                                               1.00
    Multiplicity                                                   not specified
    S      1.00


 *******************************************************************************
                  Iteration          Convergence                     Energy [au]
 *******************************************************************************
                          1        0.437545E-02                  -0.424159432110
                          2        0.531356E-03                  -0.424178438213
                          3        0.259176E-06                  -0.424178722480

 Energy components [Hartree]           Total Energy ::           -0.424178722480
                                        Band Energy ::           -0.199015229016
                                     Kinetic Energy ::            0.464007633961
                                   Potential Energy ::           -0.888186356441
                                      Virial (-V/T) ::            1.914163240935
                                        Core Energy ::           -0.479160803564
                                          XC Energy ::           -0.244352904054
                                     Coulomb Energy ::            0.299334985138
                       Total Pseudopotential Energy ::           -0.962295316385
                       Local Pseudopotential Energy ::           -0.962295316385
                    Nonlocal Pseudopotential Energy ::            0.000000000000
                                        Confinement ::            0.191268788606

 Orbital energies  State     L     Occupation   Energy[a.u.]          Energy[eV]

                       1     0          1.000      -0.199015           -5.415480


 Total Electron Density at R=0:                                         0.242907
 PAO| Made initial guess for matrix_X with norm:   27.712812921102035     

     Lanczos converged:  F threshold:   0.100E-02
     Est. extremal eigenvalues:    0.636E+01   0.950E-01
     Est. condition number :    0.669E+02

 Order=           3
     NS sqrt iter    1 1.00000000   0.156E+01       0.021     2681.889
     NS sqrt iter    2 1.00000000   0.838E+00       0.034     3377.255
     NS sqrt iter    3 1.00000000   0.336E+00       0.034     3360.163
     NS sqrt iter    4 1.00000000   0.949E-01       0.034     3365.679
     NS sqrt iter    5 1.00000000   0.362E-02       0.034     3370.981
     NS sqrt iter    6 1.00000000   0.372E-06       0.029     2932.425
     Symmetrizing Results
     Final NS sqrt iter    6 1.00000000   0.237E-12

 PAO| Read restart DM 64H2O_ref_LS_DM_SPIN_1_RESTART.dm with checksum:    6007.9230660361991     
 PAO| Quickstep energy from restart density:  -1103.1236965474434     
 PAO| ======================= Iteration:         1 =============================

     Lanczos converged:  F threshold:   0.100E-02
     Est. extremal eigenvalues:    0.636E+01   0.950E-01
     Est. condition number :    0.669E+02

 Order=           3
     NS sqrt iter    1 1.00000000   0.156E+01       0.021     2716.601
     NS sqrt iter    2 1.00000000   0.838E+00       0.034     3373.935
     NS sqrt iter    3 1.00000000   0.336E+00       0.034     3378.221
     NS sqrt iter    4 1.00000000   0.949E-01       0.034     3363.279
     NS sqrt iter    5 1.00000000   0.362E-02       0.034     3371.196
     NS sqrt iter    6 1.00000000   0.372E-06       0.029     2952.741
     Symmetrizing Results
     Final NS sqrt iter    6 1.00000000   0.237E-12

     Est. extremal eigenvalues     -0.81379     2.60394  converged:  T
     TRS4 it   1 1.00000000   0.272E+02       0.007     2114.539   0.100E-11
     TRS4 it   2 1.00000000   0.235E+02       0.013     2189.213   0.100E-11
     TRS4 it   3 1.00000000   0.160E+02       0.013     2205.286   0.100E-11
     TRS4 it   4 1.00000000   0.100E+02       0.013     2195.509   0.100E-11
     TRS4 it   5 1.00000000   0.483E+01       0.013     2197.341   0.100E-11
     TRS4 it   6 1.00000000   0.161E+01       0.013     2210.265   0.100E-11
     TRS4 it   7 1.00000000   0.318E+00       0.013     2187.987   0.100E-11
     TRS4 it   8 1.00000000   0.228E-01       0.013     2189.630   0.100E-11
     TRS4 it   9 1.00000000   0.188E-03       0.013     2201.337   0.100E-11
     TRS4 it  10 1.00000000   0.887E-08       0.013     2203.430   0.100E-11
     TRS4 it  11 1.00000000   0.231E-13       0.013     2221.890   0.100E-11
     Final TRS4 iteration   11 1.00000000   0.231E-13
     Chemical potential (mu):       0.00551
 
 PAO| energy:  -186.19952040924835      penalty:   1.5364298724343610E-031
 PAO|CG| warming up with steepest descent
 PAO|CG| beta:    0.0000000000000000     
 PAO| norm of gradient:   3.9911333696964233     
 PAO|LS| adapt:  T F F
 PAO|LS| adapt: scan_steps:    0.0000000000000000        0.0000000000000000        0.0000000000000000     
 PAO|LS| adapt: energies:   -186.19952040924835        0.0000000000000000        0.0000000000000000     
 PAO| ======================= Iteration:         2 =============================

     Lanczos converged:  F threshold:   0.100E-02
     Est. extremal eigenvalues:    0.614E+01   0.101E+00
     Est. condition number :    0.606E+02

 Order=           3
     NS sqrt iter    1 1.00000000   0.152E+01       0.021     2690.091
     NS sqrt iter    2 1.00000000   0.809E+00       0.034     3368.207
     NS sqrt iter    3 1.00000000   0.316E+00       0.033     3384.236
     NS sqrt iter    4 1.00000000   0.801E-01       0.034     3367.523
     NS sqrt iter    5 1.00000000   0.228E-02       0.034     3379.561
     NS sqrt iter    6 1.00000000   0.109E-06       0.029     2946.294
     Symmetrizing Results
     Final NS sqrt iter    6 1.00000000   0.284E-13

     Est. extremal eigenvalues     -0.81719     2.60304  converged:  T
     TRS4 it   1 1.00000000   0.274E+02       0.007     2127.863   0.100E-11
     TRS4 it   2 1.00000000   0.235E+02       0.013     2212.977   0.100E-11
     TRS4 it   3 1.00000000   0.159E+02       0.013     2207.508   0.100E-11
     TRS4 it   4 1.00000000   0.980E+01       0.013     2214.673   0.100E-11
     TRS4 it   5 1.00000000   0.462E+01       0.013     2208.791   0.100E-11
     TRS4 it   6 1.00000000   0.148E+01       0.013     2207.352   0.100E-11
     TRS4 it   7 1.00000000   0.273E+00       0.013     2194.031   0.100E-11
     TRS4 it   8 1.00000000   0.165E-01       0.013     2191.478   0.100E-11
     TRS4 it   9 1.00000000   0.885E-04       0.013     2190.728   0.100E-11
     TRS4 it  10 1.00000000   0.222E-08       0.013     2209.070   0.100E-11
     TRS4 it  11 1.00000000   0.195E-13       0.013     2218.787   0.100E-11
     Final TRS4 iteration   11 1.00000000   0.195E-13
     Chemical potential (mu):       0.01087
 
 PAO| energy:  -187.66073378208861      penalty:   4.7490004747811501E-007
 PAO|LS| adapt:  T T F
 PAO|LS| adapt: scan_steps:    0.0000000000000000       0.10000000000000001        0.0000000000000000     
 PAO|LS| adapt: energies:   -186.19952040924835       -187.66073378208861        0.0000000000000000     
 PAO| ======================= Iteration:         3 =============================

     Lanczos converged:  F threshold:   0.100E-02
     Est. extremal eigenvalues:    0.592E+01   0.106E+00
     Est. condition number :    0.557E+02

 Order=           3
     NS sqrt iter    1 1.00000000   0.147E+01       0.021     2707.373
     NS sqrt iter    2 1.00000000   0.779E+00       0.034     3348.989
     NS sqrt iter    3 1.00000000   0.295E+00       0.034     3350.875
     NS sqrt iter    4 1.00000000   0.673E-01       0.034     3372.277
     NS sqrt iter    5 1.00000000   0.145E-02       0.033     3394.485
     NS sqrt iter    6 1.00000000   0.337E-07       0.029     2925.070
     Symmetrizing Results
     Final NS sqrt iter    6 1.00000000   0.377E-14

     Est. extremal eigenvalues     -0.82043     2.60453  converged:  T
     TRS4 it   1 1.00000000   0.277E+02       0.007     2151.969   0.100E-11
     TRS4 it   2 1.00000000   0.235E+02       0.013     2214.587   0.100E-11
     TRS4 it   3 1.00000000   0.158E+02       0.013     2205.727   0.100E-11
     TRS4 it   4 1.00000000   0.961E+01       0.013     2238.180   0.100E-11
     TRS4 it   5 1.00000000   0.442E+01       0.013     2224.486   0.100E-11
     TRS4 it   6 1.00000000   0.136E+01       0.013     2202.088   0.100E-11
     TRS4 it   7 1.00000000   0.233E+00       0.013     2209.595   0.100E-11
     TRS4 it   8 1.00000000   0.116E-01       0.013     2193.913   0.100E-11
     TRS4 it   9 1.00000000   0.387E-04       0.013     2217.404   0.100E-11
     TRS4 it  10 1.00000000   0.483E-09       0.013     2217.280   0.100E-11
     TRS4 it  11 1.00000000   0.178E-14       0.013     2222.452   0.100E-11
     Final TRS4 iteration   11 1.00000000   0.178E-14
     Chemical potential (mu):       0.01691
 
 PAO| energy:  -188.84226309707239      penalty:   7.5984007596987953E-006
 PAO|LS| adapt:  T T F
 PAO|LS| adapt: scan_steps:    0.0000000000000000       0.20000000000000001        0.0000000000000000     
 PAO|LS| adapt: energies:   -186.19952040924835       -188.84226309707239        0.0000000000000000     
 PAO| ======================= Iteration:         4 =============================

     Lanczos converged:  F threshold:   0.100E-02
     Est. extremal eigenvalues:    0.549E+01   0.115E+00
     Est. condition number :    0.478E+02

 Order=           3
     NS sqrt iter    1 1.00000000   0.139E+01       0.021     2709.092
     NS sqrt iter    2 1.00000000   0.722E+00       0.034     3380.177
     NS sqrt iter    3 1.00000000   0.258E+00       0.034     3379.072
     NS sqrt iter    4 1.00000000   0.475E-01       0.033     3386.422
     NS sqrt iter    5 1.00000000   0.603E-03       0.034     3377.191
     NS sqrt iter    6 1.00000000   0.332E-08       0.029     2886.748
     Symmetrizing Results
     Final NS sqrt iter    6 1.00000000   0.114E-13

     Est. extremal eigenvalues     -0.82580     2.61066  converged:  T
     TRS4 it   1 1.00000000   0.281E+02       0.007     2128.182   0.100E-11
     TRS4 it   2 1.00000000   0.236E+02       0.013     2220.725   0.100E-11
     TRS4 it   3 1.00000000   0.156E+02       0.013     2217.318   0.100E-11
     TRS4 it   4 1.00000000   0.928E+01       0.013     2224.738   0.100E-11
     TRS4 it   5 1.00000000   0.406E+01       0.013     2224.043   0.100E-11
     TRS4 it   6 1.00000000   0.114E+01       0.013     2213.601   0.100E-11
     TRS4 it   7 1.00000000   0.167E+00       0.013     2202.702   0.100E-11
     TRS4 it   8 1.00000000   0.549E-02       0.013     2201.420   0.100E-11
     TRS4 it   9 1.00000000   0.684E-05       0.013     2230.475   0.100E-11
     TRS4 it  10 1.00000000   0.167E-10       0.013     2218.324   0.100E-11
     Final TRS4 iteration   10 1.00000000   0.167E-10
     Chemical potential (mu):       0.03627
 
 PAO| energy:  -190.32462690346253      penalty:   1.2157441215557120E-004
 PAO|LS| Need extra step
 PAO|LS| adapt:  T T F
 PAO|LS| adapt: scan_steps:    0.0000000000000000       0.40000000000000002        0.0000000000000000     
 PAO|LS| adapt: energies:   -186.19952040924835       -190.32462690346253        0.0000000000000000     
 PAO| ======================= Iteration:         5 =============================

     Lanczos converged:  F threshold:   0.100E-02
     Est. extremal eigenvalues:    0.479E+01   0.130E+00
     Est. condition number :    0.369E+02

 Order=           3
     NS sqrt iter    1 1.00000000   0.125E+01       0.021     2692.359
     NS sqrt iter    2 1.00000000   0.628E+00       0.033     3381.217
     NS sqrt iter    3 1.00000000   0.199E+00       0.034     3378.085
     NS sqrt iter    4 1.00000000   0.248E-01       0.033     3381.115
     NS sqrt iter    5 1.00000000   0.115E-03       0.034     3355.665
     NS sqrt iter    6 1.00000000   0.346E-10       0.020     2275.729
     Symmetrizing Results
     Final NS sqrt iter    6 1.00000000   0.225E-11

     Est. extremal eigenvalues     -0.82895     2.61235  converged:  T
     TRS4 it   1 1.00000000   0.287E+02       0.007     2129.210   0.100E-11
     TRS4 it   2 1.00000000   0.236E+02       0.013     2213.872   0.100E-11
     TRS4 it   3 1.00000000   0.154E+02       0.013     2212.168   0.100E-11
     TRS4 it   4 1.00000000   0.879E+01       0.013     2245.580   0.100E-11
     TRS4 it   5 1.00000000   0.354E+01       0.013     2208.123   0.100E-11
     TRS4 it   6 1.00000000   0.849E+00       0.013     2221.295   0.100E-11
     TRS4 it   7 1.00000000   0.912E-01       0.013     2210.728   0.100E-11
     TRS4 it   8 1.00000000   0.150E-02       0.013     2222.330   0.100E-11
     TRS4 it   9 1.00000000   0.468E-06       0.013     2206.590   0.100E-11
     TRS4 it  10 1.00000000   0.941E-13       0.013     2231.373   0.100E-11
     Final TRS4 iteration   10 1.00000000   0.941E-13
     Chemical potential (mu):       0.05794
 
 PAO| energy:  -189.89734910246827      penalty:   1.9451905944922591E-003
 PAO|LS| Need extra step
 PAO|LS| adapt:  T T T
 PAO|LS| adapt: scan_steps:    0.0000000000000000       0.40000000000000002       0.80000000000000004     
 PAO|LS| adapt: energies:   -186.19952040924835       -190.32462690346253       -189.89734910246827     
 PAO|LS| adapt: suggested step_size:   0.56245678982383052     
 PAO|LS| adapt: predicted energy  -190.70008776522437     
 PAO| ======================= Iteration:         6 =============================

     Lanczos converged:  F threshold:   0.100E-02
     Est. extremal eigenvalues:    0.518E+01   0.121E+00
     Est. condition number :    0.427E+02

 Order=           3
     NS sqrt iter    1 1.00000000   0.132E+01       0.021     2684.866
     NS sqrt iter    2 1.00000000   0.680E+00       0.034     3375.048
     NS sqrt iter    3 1.00000000   0.231E+00       0.033     3385.142
     NS sqrt iter    4 1.00000000   0.360E-01       0.034     3357.809
     NS sqrt iter    5 1.00000000   0.302E-03       0.034     3348.755
     NS sqrt iter    6 1.00000000   0.503E-09       0.029     2739.827
     Symmetrizing Results
     Final NS sqrt iter    6 1.00000000   0.160E-12

     Est. extremal eigenvalues     -0.82849     2.61341  converged:  T
     TRS4 it   1 1.00000000   0.284E+02       0.007     2135.223   0.100E-11
     TRS4 it   2 1.00000000   0.236E+02       0.013     2238.409   0.100E-11
     TRS4 it   3 1.00000000   0.155E+02       0.013     2198.754   0.100E-11
     TRS4 it   4 1.00000000   0.906E+01       0.013     2231.974   0.100E-11
     TRS4 it   5 1.00000000   0.382E+01       0.013     2217.161   0.100E-11
     TRS4 it   6 1.00000000   0.100E+01       0.013     2191.863   0.100E-11
     TRS4 it   7 1.00000000   0.128E+00       0.013     2234.841   0.100E-11
     TRS4 it   8 1.00000000   0.307E-02       0.013     2222.672   0.100E-11
     TRS4 it   9 1.00000000   0.195E-05       0.013     2205.744   0.100E-11
     TRS4 it  10 1.00000000   0.125E-11       0.013     2222.126   0.100E-11
     Final TRS4 iteration   10 1.00000000   0.125E-11
     Chemical potential (mu):       0.04615
 
 PAO| energy:  -190.67355046711947      penalty:   4.7529020945980238E-004
 PAO|CG| warming up with steepest descent
 PAO|CG| beta:    0.0000000000000000     
 PAO| norm of gradient:   2.1199108951020404     
 PAO| energy improvement:  -4.4740300578711185     
 PAO| step      6                 -190.673550467  0.414E-02  0.562E+00     2.480
 PAO|LS| adapt:  T F F
 PAO|LS| adapt: scan_steps:    0.0000000000000000        0.0000000000000000        0.0000000000000000     
 PAO|LS| adapt: energies:   -190.67355046711947        0.0000000000000000        0.0000000000000000     
 PAO| ======================= Iteration:         7 =============================

     Lanczos converged:  F threshold:   0.100E-02
     Est. extremal eigenvalues:    0.503E+01   0.129E+00
     Est. condition number :    0.389E+02

 Order=           3
     NS sqrt iter    1 1.00000000   0.130E+01       0.021     2698.590
     NS sqrt iter    2 1.00000000   0.656E+00       0.033     3386.740
     NS sqrt iter    3 1.00000000   0.214E+00       0.033     3400.855
     NS sqrt iter    4 1.00000000   0.293E-01       0.034     3366.517
     NS sqrt iter    5 1.00000000   0.172E-03       0.034     3375.737
     NS sqrt iter    6 1.00000000   0.971E-10       0.025     2478.973
     Symmetrizing Results
     Final NS sqrt iter    6 1.00000000   0.165E-11

     Est. extremal eigenvalues     -0.82861     2.60224  converged:  T
     TRS4 it   1 1.00000000   0.285E+02       0.007     2104.108   0.100E-11
     TRS4 it   2 1.00000000   0.236E+02       0.013     2221.430   0.100E-11
     TRS4 it   3 1.00000000   0.156E+02       0.013     2226.639   0.100E-11
     TRS4 it   4 1.00000000   0.918E+01       0.013     2222.393   0.100E-11
     TRS4 it   5 1.00000000   0.391E+01       0.013     2212.648   0.100E-11
     TRS4 it   6 1.00000000   0.102E+01       0.013     2191.507   0.100E-11
     TRS4 it   7 1.00000000   0.129E+00       0.013     2216.587   0.100E-11
     TRS4 it   8 1.00000000   0.308E-02       0.013     2210.031   0.100E-11
     TRS4 it   9 1.00000000   0.199E-05       0.013     2209.156   0.100E-11
     TRS4 it  10 1.00000000   0.139E-11       0.013     2208.381   0.100E-11
     Final TRS4 iteration   10 1.00000000   0.139E-11
     Chemical potential (mu):       0.04784
 
 PAO| energy:  -189.76560716472201      penalty:   6.7995054321194116E-004
 PAO|LS| adapt:  T F T
 PAO|LS| adapt: scan_steps:    0.0000000000000000        0.0000000000000000       0.56245678982383052     
 PAO|LS| adapt: energies:   -190.67355046711947        0.0000000000000000       -189.76560716472201     
 PAO| ======================= Iteration:         8 =============================

     Lanczos converged:  F threshold:   0.100E-02
     Est. extremal eigenvalues:    0.511E+01   0.125E+00
     Est. condition number :    0.408E+02

 Order=           3
     NS sqrt iter    1 1.00000000   0.131E+01       0.021     2719.010
     NS sqrt iter    2 1.00000000   0.668E+00       0.034     3343.492
     NS sqrt iter    3 1.00000000   0.222E+00       0.034     3370.511
     NS sqrt iter    4 1.00000000   0.325E-01       0.034     3374.707
     NS sqrt iter    5 1.00000000   0.228E-03       0.033     3382.981
     NS sqrt iter    6 1.00000000   0.224E-09       0.028     2628.868
     Symmetrizing Results
     Final NS sqrt iter    6 1.00000000   0.679E-12

     Est. extremal eigenvalues     -0.82982     2.60832  converged:  T
     TRS4 it   1 1.00000000   0.284E+02       0.007     2146.379   0.100E-11
     TRS4 it   2 1.00000000   0.236E+02       0.013     2228.864   0.100E-11
     TRS4 it   3 1.00000000   0.155E+02       0.013     2237.549   0.100E-11
     TRS4 it   4 1.00000000   0.909E+01       0.013     2229.035   0.100E-11
     TRS4 it   5 1.00000000   0.384E+01       0.013     2204.029   0.100E-11
     TRS4 it   6 1.00000000   0.101E+01       0.013     2208.812   0.100E-11
     TRS4 it   7 1.00000000   0.128E+00       0.013     2229.407   0.100E-11
     TRS4 it   8 1.00000000   0.308E-02       0.013     2230.447   0.100E-11
     TRS4 it   9 1.00000000   0.200E-05       0.013     2199.807   0.100E-11
     TRS4 it  10 1.00000000   0.139E-11       0.013     2225.215   0.100E-11
     Final TRS4 iteration   10 1.00000000   0.139E-11
     Chemical potential (mu):       0.04602
 
 PAO| energy:  -191.06446947730436      penalty:   5.0628810132892868E-004
 PAO|LS| adapt:  T T T
 PAO|LS| adapt: scan_steps:    0.0000000000000000       0.28122839491191526       0.56245678982383052     
 PAO|LS| adapt: energies:   -190.67355046711947       -191.06446947730436       -189.76560716472201     
 PAO|LS| adapt: suggested step_size:   0.20567440630878953     
 PAO|LS| adapt: predicted energy  -191.12545081770483     
 PAO| ======================= Iteration:         9 =============================

     Lanczos converged:  F threshold:   0.100E-02
     Est. extremal eigenvalues:    0.513E+01   0.124E+00
     Est. condition number :    0.413E+02

 Order=           3
     NS sqrt iter    1 1.00000000   0.131E+01       0.021     2693.430
     NS sqrt iter    2 1.00000000   0.671E+00       0.033     3407.343
     NS sqrt iter    3 1.00000000   0.224E+00       0.034     3378.870
     NS sqrt iter    4 1.00000000   0.335E-01       0.034     3376.658
     NS sqrt iter    5 1.00000000   0.246E-03       0.034     3377.847
     NS sqrt iter    6 1.00000000   0.279E-09       0.028     2679.068
     Symmetrizing Results
     Final NS sqrt iter    6 1.00000000   0.498E-12

     Est. extremal eigenvalues     -0.82973     2.60980  converged:  T
     TRS4 it   1 1.00000000   0.284E+02       0.007     2118.957   0.100E-11
     TRS4 it   2 1.00000000   0.236E+02       0.013     2218.175   0.100E-11
     TRS4 it   3 1.00000000   0.155E+02       0.013     2236.418   0.100E-11
     TRS4 it   4 1.00000000   0.907E+01       0.013     2239.454   0.100E-11
     TRS4 it   5 1.00000000   0.383E+01       0.013     2224.469   0.100E-11
     TRS4 it   6 1.00000000   0.100E+01       0.013     2231.356   0.100E-11
     TRS4 it   7 1.00000000   0.128E+00       0.013     2224.224   0.100E-11
     TRS4 it   8 1.00000000   0.308E-02       0.013     2227.033   0.100E-11
     TRS4 it   9 1.00000000   0.199E-05       0.013     2205.440   0.100E-11
     TRS4 it  10 1.00000000   0.136E-11       0.013     2204.546   0.100E-11
     Final TRS4 iteration   10 1.00000000   0.136E-11
     Chemical potential (mu):       0.04586
 
 PAO| energy:  -191.12982816065400      penalty:   4.8852888690094907E-004
 PAO|CG| trace_G_new   0.76049533048878726     
 PAO|CG| trace_G_prev    4.4940222031723343     
 PAO|CG| trace_G_mix   -4.4801541278162681E-002
 PAO|CG| trace_D    4.4940222031723343     
 PAO|CG| trace_D_Gnew   4.4801541278162681E-002
 PAO|CG| beta:   0.17919290011484371     
 PAO| norm of gradient:  0.87206383395298948     
 PAO| energy improvement: -0.45627769353453118     
 PAO| step      9                 -191.129828161  0.170E-02  0.206E+00     1.534
 PAO|LS| adapt:  T F F
 PAO|LS| adapt: scan_steps:    0.0000000000000000        0.0000000000000000        0.0000000000000000     
 PAO|LS| adapt: energies:   -191.12982816065400        0.0000000000000000        0.0000000000000000     
 PAO| ======================= Iteration:        10 =============================

     Lanczos converged:  F threshold:   0.100E-02
     Est. extremal eigenvalues:    0.508E+01   0.128E+00
     Est. condition number :    0.397E+02

 Order=           3
     NS sqrt iter    1 1.00000000   0.130E+01       0.021     2673.392
     NS sqrt iter    2 1.00000000   0.663E+00       0.034     3363.010
     NS sqrt iter    3 1.00000000   0.219E+00       0.034     3358.158
     NS sqrt iter    4 1.00000000   0.311E-01       0.034     3366.385
     NS sqrt iter    5 1.00000000   0.198E-03       0.034     3354.178
     NS sqrt iter    6 1.00000000   0.143E-09       0.027     2540.739
     Symmetrizing Results
     Final NS sqrt iter    6 1.00000000   0.127E-11

     Est. extremal eigenvalues     -0.83025     2.59422  converged:  T
     TRS4 it   1 1.00000000   0.284E+02       0.007     2141.676   0.100E-11
     TRS4 it   2 1.00000000   0.235E+02       0.013     2228.635   0.100E-11
     TRS4 it   3 1.00000000   0.155E+02       0.013     2214.275   0.100E-11
     TRS4 it   4 1.00000000   0.905E+01       0.013     2205.023   0.100E-11
     TRS4 it   5 1.00000000   0.381E+01       0.013     2221.127   0.100E-11
     TRS4 it   6 1.00000000   0.991E+00       0.013     2223.464   0.100E-11
     TRS4 it   7 1.00000000   0.124E+00       0.013     2221.604   0.100E-11
     TRS4 it   8 1.00000000   0.291E-02       0.013     2230.784   0.100E-11
     TRS4 it   9 1.00000000   0.179E-05       0.013     2213.737   0.100E-11
     TRS4 it  10 1.00000000   0.111E-11       0.013     2224.352   0.100E-11
     Final TRS4 iteration   10 1.00000000   0.111E-11
     Chemical potential (mu):       0.04664
 
 PAO| energy:  -191.23426970493026      penalty:   4.9183807358419351E-004
 PAO|LS| adapt:  T T F
 PAO|LS| adapt: scan_steps:    0.0000000000000000       0.20567440630878953        0.0000000000000000     
 PAO|LS| adapt: energies:   -191.12982816065400       -191.23426970493026        0.0000000000000000     
 PAO| ======================= Iteration:        11 =============================

     Lanczos converged:  F threshold:   0.100E-02
     Est. extremal eigenvalues:    0.503E+01   0.132E+00
     Est. condition number :    0.382E+02

 Order=           3
     NS sqrt iter    1 1.00000000   0.130E+01       0.021     2696.608
     NS sqrt iter    2 1.00000000   0.655E+00       0.034     3379.137
     NS sqrt iter    3 1.00000000   0.213E+00       0.033     3396.279
     NS sqrt iter    4 1.00000000   0.289E-01       0.034     3369.683
     NS sqrt iter    5 1.00000000   0.158E-03       0.033     3380.852
     NS sqrt iter    6 1.00000000   0.723E-10       0.024     2409.115
     Symmetrizing Results
     Final NS sqrt iter    6 1.00000000   0.198E-11

     Est. extremal eigenvalues     -0.83036     2.57807  converged:  T
     TRS4 it   1 1.00000000   0.284E+02       0.007     2121.079   0.100E-11
     TRS4 it   2 1.00000000   0.234E+02       0.013     2226.202   0.100E-11
     TRS4 it   3 1.00000000   0.155E+02       0.013     2224.855   0.100E-11
     TRS4 it   4 1.00000000   0.903E+01       0.013     2211.249   0.100E-11
     TRS4 it   5 1.00000000   0.378E+01       0.013     2207.557   0.100E-11
     TRS4 it   6 1.00000000   0.975E+00       0.013     2213.798   0.100E-11
     TRS4 it   7 1.00000000   0.120E+00       0.013     2201.989   0.100E-11
     TRS4 it   8 1.00000000   0.273E-02       0.013     2205.487   0.100E-11
     TRS4 it   9 1.00000000   0.158E-05       0.013     2228.318   0.100E-11
     TRS4 it  10 1.00000000   0.856E-12       0.013     2213.772   0.100E-11
     Final TRS4 iteration   10 1.00000000   0.856E-12
     Chemical potential (mu):       0.04751
 
 PAO| energy:  -191.24091023850943      penalty:   5.0556954596326677E-004
 PAO|LS| adapt:  T T F
 PAO|LS| adapt: scan_steps:    0.0000000000000000       0.41134881261757905        0.0000000000000000     
 PAO|LS| adapt: energies:   -191.12982816065400       -191.24091023850943        0.0000000000000000     
 PAO| ======================= Iteration:        12 =============================

     Lanczos converged:  F threshold:   0.100E-02
     Est. extremal eigenvalues:    0.493E+01   0.139E+00
     Est. condition number :    0.354E+02

 Order=           3
     NS sqrt iter    1 1.00000000   0.128E+01       0.021     2726.032
     NS sqrt iter    2 1.00000000   0.639E+00       0.034     3375.210
     NS sqrt iter    3 1.00000000   0.202E+00       0.033     3388.009
     NS sqrt iter    4 1.00000000   0.249E-01       0.034     3364.544
     NS sqrt iter    5 1.00000000   0.101E-03       0.033     3384.209
     NS sqrt iter    6 1.00000000   0.178E-10       0.017     2181.518
     Symmetrizing Results
     Final NS sqrt iter    6 1.00000000   0.201E-11

     Est. extremal eigenvalues     -0.82945     2.54489  converged:  T
     TRS4 it   1 1.00000000   0.283E+02       0.007     2137.837   0.100E-11
     TRS4 it   2 1.00000000   0.232E+02       0.013     2207.595   0.100E-11
     TRS4 it   3 1.00000000   0.154E+02       0.013     2217.363   0.100E-11
     TRS4 it   4 1.00000000   0.895E+01       0.013     2216.437   0.100E-11
     TRS4 it   5 1.00000000   0.371E+01       0.013     2230.641   0.100E-11
     TRS4 it   6 1.00000000   0.939E+00       0.013     2222.369   0.100E-11
     TRS4 it   7 1.00000000   0.111E+00       0.013     2241.140   0.100E-11
     TRS4 it   8 1.00000000   0.234E-02       0.013     2216.165   0.100E-11
     TRS4 it   9 1.00000000   0.117E-05       0.013     2215.566   0.100E-11
     TRS4 it  10 1.00000000   0.488E-12       0.013     2225.869   0.100E-11
     Final TRS4 iteration   10 1.00000000   0.488E-12
     Chemical potential (mu):       0.04944
 
 PAO| energy:  -190.97866369167031      penalty:   5.7215119572960659E-004
 PAO|LS| Need extra step
 PAO|LS| adapt:  T T T
 PAO|LS| adapt: scan_steps:    0.0000000000000000       0.41134881261757905       0.82269762523515810     
 PAO|LS| adapt: energies:   -191.12982816065400       -191.24091023850943       -190.97866369167031     
 PAO|LS| adapt: suggested step_size:   0.32806920222434338     
 PAO|LS| adapt: predicted energy  -191.24856123791437     
 PAO| ======================= Iteration:        13 =============================

     Lanczos converged:  F threshold:   0.100E-02
     Est. extremal eigenvalues:    0.505E+01   0.130E+00
     Est. condition number :    0.388E+02

 Order=           3
     NS sqrt iter    1 1.00000000   0.130E+01       0.021     2695.120
     NS sqrt iter    2 1.00000000   0.658E+00       0.034     3360.005
     NS sqrt iter    3 1.00000000   0.215E+00       0.034     3356.705
     NS sqrt iter    4 1.00000000   0.298E-01       0.034     3359.757
     NS sqrt iter    5 1.00000000   0.173E-03       0.033     3408.507
     NS sqrt iter    6 1.00000000   0.955E-10       0.025     2478.002
     Symmetrizing Results
     Final NS sqrt iter    6 1.00000000   0.173E-11

     Est. extremal eigenvalues     -0.83036     2.58467  converged:  T
     TRS4 it   1 1.00000000   0.284E+02       0.007     2119.837   0.100E-11
     TRS4 it   2 1.00000000   0.235E+02       0.013     2208.837   0.100E-11
     TRS4 it   3 1.00000000   0.155E+02       0.013     2206.377   0.100E-11
     TRS4 it   4 1.00000000   0.904E+01       0.013     2226.062   0.100E-11
     TRS4 it   5 1.00000000   0.379E+01       0.013     2201.383   0.100E-11
     TRS4 it   6 1.00000000   0.982E+00       0.013     2238.955   0.100E-11
     TRS4 it   7 1.00000000   0.122E+00       0.013     2216.511   0.100E-11
     TRS4 it   8 1.00000000   0.281E-02       0.013     2237.628   0.100E-11
     TRS4 it   9 1.00000000   0.167E-05       0.013     2239.140   0.100E-11
     TRS4 it  10 1.00000000   0.986E-12       0.013     2213.824   0.100E-11
     Final TRS4 iteration   10 1.00000000   0.986E-12
     Chemical potential (mu):       0.04715
 
 PAO| energy:  -191.24972473337081      penalty:   4.9866303102665921E-004
 PAO|CG| trace_G_new   0.28783544269883543     
 PAO|CG| trace_G_prev   0.76049533048878726     
 PAO|CG| trace_G_mix   -1.2867860741938249E-002
 PAO|CG| trace_D   0.88874257617162067     
 PAO|CG| trace_D_Gnew   1.2726438877851416E-002
 PAO|CG| beta:   0.39540453620866411     
 PAO| norm of gradient:  0.53650297547994585     
 PAO| energy improvement: -0.11989657271681153     
 PAO| step     13                 -191.249724733  0.105E-02  0.328E+00     1.979
 PAO|LS| adapt:  T F F
 PAO|LS| adapt: scan_steps:    0.0000000000000000        0.0000000000000000        0.0000000000000000     
 PAO|LS| adapt: energies:   -191.24972473337081        0.0000000000000000        0.0000000000000000     
 PAO| ======================= Iteration:        14 =============================

     Lanczos converged:  F threshold:   0.100E-02
     Est. extremal eigenvalues:    0.497E+01   0.133E+00
     Est. condition number :    0.375E+02

 Order=           3
     NS sqrt iter    1 1.00000000   0.128E+01       0.021     2709.895
     NS sqrt iter    2 1.00000000   0.647E+00       0.034     3365.169
     NS sqrt iter    3 1.00000000   0.209E+00       0.033     3381.821
     NS sqrt iter    4 1.00000000   0.275E-01       0.033     3384.422
     NS sqrt iter    5 1.00000000   0.139E-03       0.034     3376.832
     NS sqrt iter    6 1.00000000   0.500E-10       0.022     2353.925
     Symmetrizing Results
     Final NS sqrt iter    6 1.00000000   0.217E-11

     Est. extremal eigenvalues     -0.83080     2.57975  converged:  T
     TRS4 it   1 1.00000000   0.284E+02       0.007     2121.990   0.100E-11
     TRS4 it   2 1.00000000   0.234E+02       0.013     2224.966   0.100E-11
     TRS4 it   3 1.00000000   0.155E+02       0.013     2214.476   0.100E-11
     TRS4 it   4 1.00000000   0.898E+01       0.013     2214.089   0.100E-11
     TRS4 it   5 1.00000000   0.373E+01       0.013     2219.926   0.100E-11
     TRS4 it   6 1.00000000   0.951E+00       0.013     2195.080   0.100E-11
     TRS4 it   7 1.00000000   0.115E+00       0.013     2246.832   0.100E-11
     TRS4 it   8 1.00000000   0.247E-02       0.013     2226.510   0.100E-11
     TRS4 it   9 1.00000000   0.130E-05       0.013     2214.463   0.100E-11
     TRS4 it  10 1.00000000   0.581E-12       0.013     2223.697   0.100E-11
     Final TRS4 iteration   10 1.00000000   0.581E-12
     Chemical potential (mu):       0.04901
 
 PAO| energy:  -191.30365420985447      penalty:   5.0189729294978776E-004
 PAO|LS| adapt:  T T F
 PAO|LS| adapt: scan_steps:    0.0000000000000000       0.32806920222434338        0.0000000000000000     
 PAO|LS| adapt: energies:   -191.24972473337081       -191.30365420985447        0.0000000000000000     
 PAO| ======================= Iteration:        15 =============================

     Lanczos converged:  F threshold:   0.100E-02
     Est. extremal eigenvalues:    0.490E+01   0.135E+00
     Est. condition number :    0.363E+02

 Order=           3
     NS sqrt iter    1 1.00000000   0.127E+01       0.021     2706.335
     NS sqrt iter    2 1.00000000   0.637E+00       0.034     3375.506
     NS sqrt iter    3 1.00000000   0.203E+00       0.034     3363.563
     NS sqrt iter    4 1.00000000   0.255E-01       0.034     3355.719
     NS sqrt iter    5 1.00000000   0.112E-03       0.033     3396.926
     NS sqrt iter    6 1.00000000   0.264E-10       0.018     2240.794
     Symmetrizing Results
     Final NS sqrt iter    6 1.00000000   0.223E-11

     Est. extremal eigenvalues     -0.83082     2.57444  converged:  T
     TRS4 it   1 1.00000000   0.285E+02       0.007     2149.485   0.100E-11
     TRS4 it   2 1.00000000   0.234E+02       0.013     2192.768   0.100E-11
     TRS4 it   3 1.00000000   0.154E+02       0.013     2212.049   0.100E-11
     TRS4 it   4 1.00000000   0.892E+01       0.013     2226.000   0.100E-11
     TRS4 it   5 1.00000000   0.368E+01       0.013     2229.051   0.100E-11
     TRS4 it   6 1.00000000   0.921E+00       0.013     2216.097   0.100E-11
     TRS4 it   7 1.00000000   0.108E+00       0.013     2211.804   0.100E-11
     TRS4 it   8 1.00000000   0.218E-02       0.013     2195.136   0.100E-11
     TRS4 it   9 1.00000000   0.102E-05       0.013     2236.169   0.100E-11
     TRS4 it  10 1.00000000   0.343E-12       0.013     2202.985   0.100E-11
     Final TRS4 iteration   10 1.00000000   0.343E-12
     Chemical potential (mu):       0.05077
 
 PAO| energy:  -191.28108267238642      penalty:   5.2064179274339888E-004
 PAO|LS| adapt:  T T T
 PAO|LS| adapt: scan_steps:    0.0000000000000000       0.32806920222434338       0.65613840444868676     
 PAO|LS| adapt: energies:   -191.24972473337081       -191.30365420985447       -191.28108267238642     
 PAO|LS| adapt: suggested step_size:   0.39530735702019404     
 PAO|LS| adapt: predicted energy  -191.30526092113925     
 PAO| ======================= Iteration:        16 =============================

     Lanczos converged:  F threshold:   0.100E-02
     Est. extremal eigenvalues:    0.496E+01   0.133E+00
     Est. condition number :    0.372E+02

 Order=           3
     NS sqrt iter    1 1.00000000   0.128E+01       0.021     2694.768
     NS sqrt iter    2 1.00000000   0.645E+00       0.034     3358.904
     NS sqrt iter    3 1.00000000   0.208E+00       0.033     3384.829
     NS sqrt iter    4 1.00000000   0.271E-01       0.034     3368.399
     NS sqrt iter    5 1.00000000   0.133E-03       0.034     3378.249
     NS sqrt iter    6 1.00000000   0.439E-10       0.022     2291.297
     Symmetrizing Results
     Final NS sqrt iter    6 1.00000000   0.222E-11

     Est. extremal eigenvalues     -0.83084     2.57869  converged:  T
     TRS4 it   1 1.00000000   0.284E+02       0.007     2152.014   0.100E-11
     TRS4 it   2 1.00000000   0.234E+02       0.013     2203.433   0.100E-11
     TRS4 it   3 1.00000000   0.154E+02       0.013     2216.042   0.100E-11
     TRS4 it   4 1.00000000   0.897E+01       0.013     2235.226   0.100E-11
     TRS4 it   5 1.00000000   0.372E+01       0.013     2234.762   0.100E-11
     TRS4 it   6 1.00000000   0.945E+00       0.013     2214.178   0.100E-11
     TRS4 it   7 1.00000000   0.113E+00       0.013     2211.207   0.100E-11
     TRS4 it   8 1.00000000   0.241E-02       0.013     2230.940   0.100E-11
     TRS4 it   9 1.00000000   0.124E-05       0.013     2213.834   0.100E-11
     TRS4 it  10 1.00000000   0.545E-12       0.013     2225.488   0.100E-11
     Final TRS4 iteration   10 1.00000000   0.545E-12
     Chemical potential (mu):       0.04937
 
 PAO| energy:  -191.30520111902669      penalty:   5.0442189795943415E-004
 PAO|CG| trace_G_new   0.10664221977476038     
 PAO|CG| trace_G_prev   0.28783544269883543     
 PAO|CG| trace_G_mix    4.8651726896775608E-003
 PAO|CG| trace_D   0.41672149282043236     
 PAO|CG| trace_D_Gnew   8.1387155426102475E-004
 PAO|CG| beta:   0.35359456129095596     
 PAO| norm of gradient:  0.32656120371954839     
 PAO| energy improvement:  -5.5476385655879312E-002
 PAO| step     16                 -191.305201119  0.638E-03  0.395E+00     1.516
 PAO|LS| adapt:  T F F
 PAO|LS| adapt: scan_steps:    0.0000000000000000        0.0000000000000000        0.0000000000000000     
 PAO|LS| adapt: energies:   -191.30520111902669        0.0000000000000000        0.0000000000000000     
 PAO| ======================= Iteration:        17 =============================

     Lanczos converged:  F threshold:   0.100E-02
     Est. extremal eigenvalues:    0.492E+01   0.134E+00
     Est. condition number :    0.367E+02

 Order=           3
     NS sqrt iter    1 1.00000000   0.127E+01       0.021     2684.685
     NS sqrt iter    2 1.00000000   0.640E+00       0.034     3351.411
     NS sqrt iter    3 1.00000000   0.205E+00       0.034     3356.864
     NS sqrt iter    4 1.00000000   0.262E-01       0.034     3369.746
     NS sqrt iter    5 1.00000000   0.121E-03       0.034     3362.760
     NS sqrt iter    6 1.00000000   0.334E-10       0.020     2254.892
     Symmetrizing Results
     Final NS sqrt iter    6 1.00000000   0.228E-11

     Est. extremal eigenvalues     -0.83088     2.57638  converged:  T
     TRS4 it   1 1.00000000   0.285E+02       0.007     2162.098   0.100E-11
     TRS4 it   2 1.00000000   0.234E+02       0.013     2190.524   0.100E-11
     TRS4 it   3 1.00000000   0.154E+02       0.013     2209.486   0.100E-11
     TRS4 it   4 1.00000000   0.892E+01       0.013     2200.719   0.100E-11
     TRS4 it   5 1.00000000   0.368E+01       0.013     2226.493   0.100E-11
     TRS4 it   6 1.00000000   0.925E+00       0.013     2225.587   0.100E-11
     TRS4 it   7 1.00000000   0.109E+00       0.013     2238.696   0.100E-11
     TRS4 it   8 1.00000000   0.222E-02       0.013     2237.065   0.100E-11
     TRS4 it   9 1.00000000   0.105E-05       0.013     2208.207   0.100E-11
     TRS4 it  10 1.00000000   0.375E-12       0.013     2236.337   0.100E-11
     Final TRS4 iteration   10 1.00000000   0.375E-12
     Chemical potential (mu):       0.05047
 
 PAO| energy:  -191.30903624071834      penalty:   4.9780942191236896E-004
 PAO|LS| adapt:  T T F
 PAO|LS| adapt: scan_steps:    0.0000000000000000       0.39530735702019404        0.0000000000000000     
 PAO|LS| adapt: energies:   -191.30520111902669       -191.30903624071834        0.0000000000000000     
 PAO| ======================= Iteration:        18 =============================

     Lanczos converged:  F threshold:   0.100E-02
     Est. extremal eigenvalues:    0.488E+01   0.135E+00
     Est. condition number :    0.362E+02

 Order=           3
     NS sqrt iter    1 1.00000000   0.126E+01       0.021     2678.919
     NS sqrt iter    2 1.00000000   0.635E+00       0.034     3356.182
     NS sqrt iter    3 1.00000000   0.202E+00       0.034     3369.947
     NS sqrt iter    4 1.00000000   0.254E-01       0.034     3369.199
     NS sqrt iter    5 1.00000000   0.111E-03       0.033     3388.484
     NS sqrt iter    6 1.00000000   0.256E-10       0.019     2212.459
     Symmetrizing Results
     Final NS sqrt iter    6 1.00000000   0.218E-11

     Est. extremal eigenvalues     -0.83074     2.57398  converged:  T
     TRS4 it   1 1.00000000   0.285E+02       0.007     2151.393   0.100E-11
     TRS4 it   2 1.00000000   0.234E+02       0.013     2233.361   0.100E-11
     TRS4 it   3 1.00000000   0.154E+02       0.013     2241.786   0.100E-11
     TRS4 it   4 1.00000000   0.888E+01       0.013     2214.599   0.100E-11
     TRS4 it   5 1.00000000   0.364E+01       0.013     2221.252   0.100E-11
     TRS4 it   6 1.00000000   0.905E+00       0.013     2209.257   0.100E-11
     TRS4 it   7 1.00000000   0.105E+00       0.013     2202.756   0.100E-11
     TRS4 it   8 1.00000000   0.205E-02       0.013     2219.204   0.100E-11
     TRS4 it   9 1.00000000   0.899E-06       0.013     2218.812   0.100E-11
     TRS4 it  10 1.00000000   0.279E-12       0.013     2211.682   0.100E-11
     Final TRS4 iteration   10 1.00000000   0.279E-12
     Chemical potential (mu):       0.05160
 
 PAO| energy:  -191.23625048301076      penalty:   4.9885438385694283E-004
 PAO|LS| adapt:  T T T
 PAO|LS| adapt: scan_steps:    0.0000000000000000       0.39530735702019404       0.79061471404038808     
 PAO|LS| adapt: energies:   -191.30520111902669       -191.30903624071834       -191.23625048301076     
 PAO|LS| adapt: suggested step_size:   0.21744008440447560     
 PAO|LS| adapt: predicted energy  -191.31679226989127     
 PAO| ======================= Iteration:        19 =============================

     Lanczos converged:  F threshold:   0.100E-02
     Est. extremal eigenvalues:    0.494E+01   0.134E+00
     Est. condition number :    0.369E+02

 Order=           3
     NS sqrt iter    1 1.00000000   0.128E+01       0.021     2713.974
     NS sqrt iter    2 1.00000000   0.642E+00       0.034     3343.553
     NS sqrt iter    3 1.00000000   0.206E+00       0.033     3387.655
     NS sqrt iter    4 1.00000000   0.266E-01       0.034     3346.428
     NS sqrt iter    5 1.00000000   0.126E-03       0.034     3379.950
     NS sqrt iter    6 1.00000000   0.377E-10       0.020     2294.275
     Symmetrizing Results
     Final NS sqrt iter    6 1.00000000   0.227E-11

     Est. extremal eigenvalues     -0.83088     2.57744  converged:  T
     TRS4 it   1 1.00000000   0.284E+02       0.007     2114.668   0.100E-11
     TRS4 it   2 1.00000000   0.234E+02       0.013     2234.250   0.100E-11
     TRS4 it   3 1.00000000   0.154E+02       0.013     2199.574   0.100E-11
     TRS4 it   4 1.00000000   0.894E+01       0.013     2205.031   0.100E-11
     TRS4 it   5 1.00000000   0.370E+01       0.013     2217.876   0.100E-11
     TRS4 it   6 1.00000000   0.934E+00       0.013     2219.298   0.100E-11
     TRS4 it   7 1.00000000   0.111E+00       0.013     2220.150   0.100E-11
     TRS4 it   8 1.00000000   0.230E-02       0.013     2210.560   0.100E-11
     TRS4 it   9 1.00000000   0.113E-05       0.013     2221.897   0.100E-11
     TRS4 it  10 1.00000000   0.469E-12       0.013     2215.785   0.100E-11
     Final TRS4 iteration   10 1.00000000   0.469E-12
     Chemical potential (mu):       0.04997
 
 PAO| energy:  -191.31677538162685      penalty:   4.9985380516659960E-004
 PAO|CG| trace_G_new    2.0948904074701954E-002
 PAO|CG| trace_G_prev   0.10664221977476038     
 PAO|CG| trace_G_mix   -3.3811161050762356E-004
 PAO|CG| trace_D   0.15816897760255164     
 PAO|CG| trace_D_Gnew  -5.3980856561581451E-005
 PAO|CG| beta:   0.19961152093579823     
 PAO| norm of gradient:  0.14473736240066679     
 PAO| energy improvement:  -1.1574262600163365E-002
 PAO| step     19                 -191.316775382  0.283E-03  0.217E+00     1.515
 PAO|LS| adapt:  T F F
 PAO|LS| adapt: scan_steps:    0.0000000000000000        0.0000000000000000        0.0000000000000000     
 PAO|LS| adapt: energies:   -191.31677538162685        0.0000000000000000        0.0000000000000000     
 PAO| ======================= Iteration:        20 =============================

     Lanczos converged:  F threshold:   0.100E-02
     Est. extremal eigenvalues:    0.493E+01   0.134E+00
     Est. condition number :    0.369E+02

 Order=           3
     NS sqrt iter    1 1.00000000   0.127E+01       0.021     2706.612
     NS sqrt iter    2 1.00000000   0.642E+00       0.034     3356.837
     NS sqrt iter    3 1.00000000   0.206E+00       0.033     3387.527
     NS sqrt iter    4 1.00000000   0.266E-01       0.034     3370.852
     NS sqrt iter    5 1.00000000   0.126E-03       0.034     3369.366
     NS sqrt iter    6 1.00000000   0.371E-10       0.020     2291.848
     Symmetrizing Results
     Final NS sqrt iter    6 1.00000000   0.227E-11

     Est. extremal eigenvalues     -0.83089     2.57611  converged:  T
     TRS4 it   1 1.00000000   0.284E+02       0.007     2146.577   0.100E-11
     TRS4 it   2 1.00000000   0.234E+02       0.013     2219.355   0.100E-11
     TRS4 it   3 1.00000000   0.154E+02       0.013     2225.060   0.100E-11
     TRS4 it   4 1.00000000   0.893E+01       0.013     2233.822   0.100E-11
     TRS4 it   5 1.00000000   0.369E+01       0.013     2227.849   0.100E-11
     TRS4 it   6 1.00000000   0.930E+00       0.013     2223.742   0.100E-11
     TRS4 it   7 1.00000000   0.110E+00       0.013     2217.088   0.100E-11
     TRS4 it   8 1.00000000   0.227E-02       0.013     2210.627   0.100E-11
     TRS4 it   9 1.00000000   0.110E-05       0.013     2207.645   0.100E-11
     TRS4 it  10 1.00000000   0.428E-12       0.013     2220.435   0.100E-11
     Final TRS4 iteration   10 1.00000000   0.428E-12
     Chemical potential (mu):       0.05017
 
 PAO| energy:  -191.32045578944269      penalty:   4.9049064172062228E-004
 PAO|LS| adapt:  T T F
 PAO|LS| adapt: scan_steps:    0.0000000000000000       0.21744008440447560        0.0000000000000000     
 PAO|LS| adapt: energies:   -191.31677538162685       -191.32045578944269        0.0000000000000000     
 PAO| ======================= Iteration:        21 =============================

     Lanczos converged:  F threshold:   0.100E-02
     Est. extremal eigenvalues:    0.493E+01   0.134E+00
     Est. condition number :    0.369E+02

 Order=           3
     NS sqrt iter    1 1.00000000   0.127E+01       0.021     2723.454
     NS sqrt iter    2 1.00000000   0.641E+00       0.034     3367.039
     NS sqrt iter    3 1.00000000   0.206E+00       0.034     3351.513
     NS sqrt iter    4 1.00000000   0.266E-01       0.034     3375.853
     NS sqrt iter    5 1.00000000   0.126E-03       0.034     3367.771
     NS sqrt iter    6 1.00000000   0.366E-10       0.020     2272.459
     Symmetrizing Results
     Final NS sqrt iter    6 1.00000000   0.227E-11

     Est. extremal eigenvalues     -0.83089     2.57477  converged:  T
     TRS4 it   1 1.00000000   0.284E+02       0.007     2131.072   0.100E-11
     TRS4 it   2 1.00000000   0.234E+02       0.013     2222.558   0.100E-11
     TRS4 it   3 1.00000000   0.154E+02       0.013     2219.147   0.100E-11
     TRS4 it   4 1.00000000   0.892E+01       0.013     2226.557   0.100E-11
     TRS4 it   5 1.00000000   0.368E+01       0.013     2217.971   0.100E-11
     TRS4 it   6 1.00000000   0.926E+00       0.013     2240.806   0.100E-11
     TRS4 it   7 1.00000000   0.109E+00       0.013     2232.755   0.100E-11
     TRS4 it   8 1.00000000   0.223E-02       0.013     2216.313   0.100E-11
     TRS4 it   9 1.00000000   0.106E-05       0.013     2206.602   0.100E-11
     TRS4 it  10 1.00000000   0.387E-12       0.013     2244.535   0.100E-11
     Final TRS4 iteration   10 1.00000000   0.387E-12
     Chemical potential (mu):       0.05036
 
 PAO| energy:  -191.32236941840026      penalty:   4.8152493331428474E-004
 PAO|LS| adapt:  T T F
 PAO|LS| adapt: scan_steps:    0.0000000000000000       0.43488016880895120        0.0000000000000000     
 PAO|LS| adapt: energies:   -191.31677538162685       -191.32236941840026        0.0000000000000000     
 PAO| ======================= Iteration:        22 =============================

     Lanczos converged:  F threshold:   0.100E-02
     Est. extremal eigenvalues:    0.492E+01   0.134E+00
     Est. condition number :    0.368E+02

 Order=           3
     NS sqrt iter    1 1.00000000   0.127E+01       0.021     2699.495
     NS sqrt iter    2 1.00000000   0.640E+00       0.034     3371.891
     NS sqrt iter    3 1.00000000   0.206E+00       0.034     3368.527
     NS sqrt iter    4 1.00000000   0.265E-01       0.033     3389.438
     NS sqrt iter    5 1.00000000   0.125E-03       0.034     3371.095
     NS sqrt iter    6 1.00000000   0.356E-10       0.020     2281.291
     Symmetrizing Results
     Final NS sqrt iter    6 1.00000000   0.226E-11

     Est. extremal eigenvalues     -0.83089     2.57204  converged:  T
     TRS4 it   1 1.00000000   0.284E+02       0.007     2146.936   0.100E-11
     TRS4 it   2 1.00000000   0.234E+02       0.013     2223.330   0.100E-11
     TRS4 it   3 1.00000000   0.154E+02       0.013     2211.955   0.100E-11
     TRS4 it   4 1.00000000   0.890E+01       0.013     2220.084   0.100E-11
     TRS4 it   5 1.00000000   0.366E+01       0.013     2204.304   0.100E-11
     TRS4 it   6 1.00000000   0.918E+00       0.013     2216.864   0.100E-11
     TRS4 it   7 1.00000000   0.107E+00       0.013     2211.261   0.100E-11
     TRS4 it   8 1.00000000   0.216E-02       0.013     2206.707   0.100E-11
     TRS4 it   9 1.00000000   0.997E-06       0.013     2210.531   0.100E-11
     TRS4 it  10 1.00000000   0.353E-12       0.013     2229.832   0.100E-11
     Final TRS4 iteration   10 1.00000000   0.353E-12
     Chemical potential (mu):       0.05076
 
 PAO| energy:  -191.32081996371397      penalty:   4.6476136038184351E-004
 PAO|LS| Need extra step
 PAO|LS| adapt:  T T T
 PAO|LS| adapt: scan_steps:    0.0000000000000000       0.43488016880895120       0.86976033761790239     
 PAO|LS| adapt: energies:   -191.31677538162685       -191.32236941840026       -191.32081996371397     
 PAO|LS| adapt: suggested step_size:   0.55799283372455699     
 PAO|LS| adapt: predicted energy  -191.32265566925449     
 PAO| ======================= Iteration:        23 =============================

     Lanczos converged:  F threshold:   0.100E-02
     Est. extremal eigenvalues:    0.492E+01   0.134E+00
     Est. condition number :    0.368E+02

 Order=           3
     NS sqrt iter    1 1.00000000   0.127E+01       0.021     2714.638
     NS sqrt iter    2 1.00000000   0.641E+00       0.034     3359.512
     NS sqrt iter    3 1.00000000   0.206E+00       0.034     3327.011
     NS sqrt iter    4 1.00000000   0.266E-01       0.034     3334.804
     NS sqrt iter    5 1.00000000   0.125E-03       0.034     3361.645
     NS sqrt iter    6 1.00000000   0.363E-10       0.020     2272.401
     Symmetrizing Results
     Final NS sqrt iter    6 1.00000000   0.228E-11

     Est. extremal eigenvalues     -0.83089     2.57400  converged:  T
     TRS4 it   1 1.00000000   0.284E+02       0.007     2138.589   0.100E-11
     TRS4 it   2 1.00000000   0.234E+02       0.013     2222.988   0.100E-11
     TRS4 it   3 1.00000000   0.154E+02       0.013     2212.822   0.100E-11
     TRS4 it   4 1.00000000   0.891E+01       0.013     2217.242   0.100E-11
     TRS4 it   5 1.00000000   0.367E+01       0.013     2229.669   0.100E-11
     TRS4 it   6 1.00000000   0.923E+00       0.013     2214.075   0.100E-11
     TRS4 it   7 1.00000000   0.109E+00       0.013     2204.789   0.100E-11
     TRS4 it   8 1.00000000   0.221E-02       0.013     2227.486   0.100E-11
     TRS4 it   9 1.00000000   0.104E-05       0.013     2220.040   0.100E-11
     TRS4 it  10 1.00000000   0.393E-12       0.013     2231.548   0.100E-11
     Final TRS4 iteration   10 1.00000000   0.393E-12
     Chemical potential (mu):       0.05047
 
 PAO| energy:  -191.32266231547024      penalty:   4.7662233803091528E-004
 PAO|CG| trace_G_new    1.5288857144823583E-002
 PAO|CG| trace_G_prev    2.0948904074701954E-002
 PAO|CG| trace_G_mix    1.0339325878613284E-004
 PAO|CG| trace_D    2.7272659316228236E-002
 PAO|CG| trace_D_Gnew  -4.4625733346563150E-005
 PAO|CG| beta:   0.72488106451236867     
 PAO| norm of gradient:  0.12364811824214546     
 PAO| energy improvement:  -5.8869338433851226E-003
 PAO| step     23                 -191.322662315  0.242E-03  0.558E+00     1.968
 PAO|LS| adapt:  T F F
 PAO|LS| adapt: scan_steps:    0.0000000000000000        0.0000000000000000        0.0000000000000000     
 PAO|LS| adapt: energies:   -191.32266231547024        0.0000000000000000        0.0000000000000000     
 PAO| ======================= Iteration:        24 =============================

     Lanczos converged:  F threshold:   0.100E-02
     Est. extremal eigenvalues:    0.491E+01   0.133E+00
     Est. condition number :    0.368E+02

 Order=           3
     NS sqrt iter    1 1.00000000   0.127E+01       0.021     2705.337
     NS sqrt iter    2 1.00000000   0.640E+00       0.034     3366.891
     NS sqrt iter    3 1.00000000   0.206E+00       0.034     3375.382
     NS sqrt iter    4 1.00000000   0.265E-01       0.034     3359.621
     NS sqrt iter    5 1.00000000   0.125E-03       0.033     3384.356
     NS sqrt iter    6 1.00000000   0.357E-10       0.020     2256.576
     Symmetrizing Results
     Final NS sqrt iter    6 1.00000000   0.226E-11

     Est. extremal eigenvalues     -0.83089     2.57041  converged:  T
     TRS4 it   1 1.00000000   0.285E+02       0.007     2140.790   0.100E-11
     TRS4 it   2 1.00000000   0.234E+02       0.013     2224.090   0.100E-11
     TRS4 it   3 1.00000000   0.154E+02       0.013     2211.317   0.100E-11
     TRS4 it   4 1.00000000   0.889E+01       0.013     2216.323   0.100E-11
     TRS4 it   5 1.00000000   0.365E+01       0.013     2224.724   0.100E-11
     TRS4 it   6 1.00000000   0.914E+00       0.013     2216.922   0.100E-11
     TRS4 it   7 1.00000000   0.107E+00       0.013     2217.026   0.100E-11
     TRS4 it   8 1.00000000   0.214E-02       0.013     2223.452   0.100E-11
     TRS4 it   9 1.00000000   0.972E-06       0.013     2228.040   0.100E-11
     TRS4 it  10 1.00000000   0.329E-12       0.013     2220.688   0.100E-11
     Final TRS4 iteration   10 1.00000000   0.329E-12
     Chemical potential (mu):       0.05091
 
 PAO| energy:  -191.32554134037161      penalty:   4.4081275401488932E-004
 PAO|LS| adapt:  T T F
 PAO|LS| adapt: scan_steps:    0.0000000000000000       0.55799283372455699        0.0000000000000000     
 PAO|LS| adapt: energies:   -191.32266231547024       -191.32554134037161        0.0000000000000000     
 PAO| ======================= Iteration:        25 =============================

     Lanczos converged:  F threshold:   0.100E-02
     Est. extremal eigenvalues:    0.490E+01   0.133E+00
     Est. condition number :    0.367E+02

 Order=           3
     NS sqrt iter    1 1.00000000   0.126E+01       0.021     2725.843
     NS sqrt iter    2 1.00000000   0.638E+00       0.033     3380.513
     NS sqrt iter    3 1.00000000   0.205E+00       0.034     3359.366
     NS sqrt iter    4 1.00000000   0.264E-01       0.034     3353.034
     NS sqrt iter    5 1.00000000   0.124E-03       0.034     3377.886
     NS sqrt iter    6 1.00000000   0.352E-10       0.020     2283.332
     Symmetrizing Results
     Final NS sqrt iter    6 1.00000000   0.226E-11

     Est. extremal eigenvalues     -0.83089     2.56666  converged:  T
     TRS4 it   1 1.00000000   0.285E+02       0.007     2131.848   0.100E-11
     TRS4 it   2 1.00000000   0.233E+02       0.013     2184.905   0.100E-11
     TRS4 it   3 1.00000000   0.154E+02       0.013     2206.127   0.100E-11
     TRS4 it   4 1.00000000   0.887E+01       0.013     2222.627   0.100E-11
     TRS4 it   5 1.00000000   0.363E+01       0.013     2232.961   0.100E-11
     TRS4 it   6 1.00000000   0.906E+00       0.013     2220.437   0.100E-11
     TRS4 it   7 1.00000000   0.105E+00       0.013     2219.978   0.100E-11
     TRS4 it   8 1.00000000   0.206E-02       0.013     2214.161   0.100E-11
     TRS4 it   9 1.00000000   0.906E-06       0.013     2202.071   0.100E-11
     TRS4 it  10 1.00000000   0.293E-12       0.013     2219.808   0.100E-11
     Final TRS4 iteration   10 1.00000000   0.293E-12
     Chemical potential (mu):       0.05136
 
 PAO| energy:  -191.31690150151832      penalty:   4.0850544340979020E-004
 PAO|LS| adapt:  T T T
 PAO|LS| adapt: scan_steps:    0.0000000000000000       0.55799283372455699        1.1159856674491140     
 PAO|LS| adapt: energies:   -191.32266231547024       -191.32554134037161       -191.31690150151832     
 PAO|LS| adapt: suggested step_size:   0.41846115030268638     
 PAO|LS| adapt: predicted energy  -191.32590147764401     
 PAO| ======================= Iteration:        26 =============================

     Lanczos converged:  F threshold:   0.100E-02
     Est. extremal eigenvalues:    0.491E+01   0.134E+00
     Est. condition number :    0.368E+02

 Order=           3
     NS sqrt iter    1 1.00000000   0.127E+01       0.021     2709.924
     NS sqrt iter    2 1.00000000   0.640E+00       0.034     3369.663
     NS sqrt iter    3 1.00000000   0.206E+00       0.034     3364.032
     NS sqrt iter    4 1.00000000   0.265E-01       0.034     3374.243
     NS sqrt iter    5 1.00000000   0.125E-03       0.034     3356.997
     NS sqrt iter    6 1.00000000   0.358E-10       0.020     2273.809
     Symmetrizing Results
     Final NS sqrt iter    6 1.00000000   0.226E-11

     Est. extremal eigenvalues     -0.83089     2.57132  converged:  T
     TRS4 it   1 1.00000000   0.285E+02       0.007     2144.351   0.100E-11
     TRS4 it   2 1.00000000   0.234E+02       0.013     2203.954   0.100E-11
     TRS4 it   3 1.00000000   0.154E+02       0.013     2209.160   0.100E-11
     TRS4 it   4 1.00000000   0.890E+01       0.013     2217.283   0.100E-11
     TRS4 it   5 1.00000000   0.366E+01       0.013     2213.321   0.100E-11
     TRS4 it   6 1.00000000   0.917E+00       0.013     2205.040   0.100E-11
     TRS4 it   7 1.00000000   0.107E+00       0.013     2210.162   0.100E-11
     TRS4 it   8 1.00000000   0.216E-02       0.013     2201.865   0.100E-11
     TRS4 it   9 1.00000000   0.989E-06       0.013     2205.335   0.100E-11
     TRS4 it  10 1.00000000   0.345E-12       0.013     2204.650   0.100E-11
     Final TRS4 iteration   10 1.00000000   0.345E-12
     Chemical potential (mu):       0.05080
 
 PAO| energy:  -191.32589094964320      penalty:   4.4943288406502842E-004
 PAO|CG| trace_G_new    1.1709733386658398E-002
 PAO|CG| trace_G_prev    1.5288857144823583E-002
 PAO|CG| trace_G_mix    2.1250892356569615E-004
 PAO|CG| trace_D    2.9684042435690922E-002
 PAO|CG| trace_D_Gnew  -6.5252658428804661E-005
 PAO|CG| beta:   0.75200025444579210     
 PAO| norm of gradient:  0.10821152150606883     
 PAO| energy improvement:  -3.2286341729559354E-003
 PAO| step     26                 -191.325890950  0.211E-03  0.418E+00     1.516
 PAO|LS| adapt:  T F F
 PAO|LS| adapt: scan_steps:    0.0000000000000000        0.0000000000000000        0.0000000000000000     
 PAO|LS| adapt: energies:   -191.32589094964320        0.0000000000000000        0.0000000000000000     
 PAO| ======================= Iteration:        27 =============================

     Lanczos converged:  F threshold:   0.100E-02
     Est. extremal eigenvalues:    0.490E+01   0.133E+00
     Est. condition number :    0.368E+02

 Order=           3
     NS sqrt iter    1 1.00000000   0.127E+01       0.021     2721.952
     NS sqrt iter    2 1.00000000   0.639E+00       0.033     3384.640
     NS sqrt iter    3 1.00000000   0.205E+00       0.033     3385.100
     NS sqrt iter    4 1.00000000   0.264E-01       0.034     3379.874
     NS sqrt iter    5 1.00000000   0.124E-03       0.034     3373.809
     NS sqrt iter    6 1.00000000   0.357E-10       0.020     2254.780
     Symmetrizing Results
     Final NS sqrt iter    6 1.00000000   0.229E-11

     Est. extremal eigenvalues     -0.83090     2.56885  converged:  T
     TRS4 it   1 1.00000000   0.285E+02       0.007     2153.522   0.100E-11
     TRS4 it   2 1.00000000   0.233E+02       0.013     2230.517   0.100E-11
     TRS4 it   3 1.00000000   0.154E+02       0.013     2197.229   0.100E-11
     TRS4 it   4 1.00000000   0.888E+01       0.013     2212.037   0.100E-11
     TRS4 it   5 1.00000000   0.364E+01       0.013     2206.892   0.100E-11
     TRS4 it   6 1.00000000   0.909E+00       0.013     2203.324   0.100E-11
     TRS4 it   7 1.00000000   0.106E+00       0.013     2198.081   0.100E-11
     TRS4 it   8 1.00000000   0.209E-02       0.013     2179.112   0.100E-11
     TRS4 it   9 1.00000000   0.927E-06       0.013     2206.259   0.100E-11
     TRS4 it  10 1.00000000   0.297E-12       0.013     2211.566   0.100E-11
     Final TRS4 iteration   10 1.00000000   0.297E-12
     Chemical potential (mu):       0.05122
 
 PAO| energy:  -191.32818607066309      penalty:   4.1573143648315601E-004
 PAO|LS| adapt:  T T F
 PAO|LS| adapt: scan_steps:    0.0000000000000000       0.41846115030268638        0.0000000000000000     
 PAO|LS| adapt: energies:   -191.32589094964320       -191.32818607066309        0.0000000000000000     
 PAO| ======================= Iteration:        28 =============================

     Lanczos converged:  F threshold:   0.100E-02
     Est. extremal eigenvalues:    0.489E+01   0.133E+00
     Est. condition number :    0.368E+02

 Order=           3
     NS sqrt iter    1 1.00000000   0.126E+01       0.021     2701.447
     NS sqrt iter    2 1.00000000   0.637E+00       0.033     3401.252
     NS sqrt iter    3 1.00000000   0.204E+00       0.034     3362.593
     NS sqrt iter    4 1.00000000   0.263E-01       0.033     3387.266
     NS sqrt iter    5 1.00000000   0.124E-03       0.034     3378.785
     NS sqrt iter    6 1.00000000   0.357E-10       0.020     2277.248
     Symmetrizing Results
     Final NS sqrt iter    6 1.00000000   0.228E-11

     Est. extremal eigenvalues     -0.83091     2.56624  converged:  T
     TRS4 it   1 1.00000000   0.285E+02       0.007     2123.196   0.100E-11
     TRS4 it   2 1.00000000   0.233E+02       0.013     2235.060   0.100E-11
     TRS4 it   3 1.00000000   0.154E+02       0.013     2220.680   0.100E-11
     TRS4 it   4 1.00000000   0.886E+01       0.013     2206.513   0.100E-11
     TRS4 it   5 1.00000000   0.363E+01       0.013     2205.217   0.100E-11
     TRS4 it   6 1.00000000   0.901E+00       0.013     2224.625   0.100E-11
     TRS4 it   7 1.00000000   0.104E+00       0.013     2224.796   0.100E-11
     TRS4 it   8 1.00000000   0.202E-02       0.013     2215.757   0.100E-11
     TRS4 it   9 1.00000000   0.869E-06       0.013     2228.236   0.100E-11
     TRS4 it  10 1.00000000   0.290E-12       0.013     2226.933   0.100E-11
     Final TRS4 iteration   10 1.00000000   0.290E-12
     Chemical potential (mu):       0.05164
 
 PAO| energy:  -191.32518652712932      penalty:   3.8461058883108650E-004
 PAO|LS| adapt:  T T T
 PAO|LS| adapt: scan_steps:    0.0000000000000000       0.41846115030268638       0.83692230060537276     
 PAO|LS| adapt: energies:   -191.32589094964320       -191.32818607066309       -191.32518652712932     
 PAO|LS| adapt: suggested step_size:   0.39062431073826359     
 PAO|LS| adapt: predicted energy  -191.32819778554779     
 PAO| ======================= Iteration:        29 =============================

     Lanczos converged:  F threshold:   0.100E-02
     Est. extremal eigenvalues:    0.490E+01   0.133E+00
     Est. condition number :    0.368E+02

 Order=           3
     NS sqrt iter    1 1.00000000   0.127E+01       0.021     2694.158
     NS sqrt iter    2 1.00000000   0.639E+00       0.033     3405.319
     NS sqrt iter    3 1.00000000   0.205E+00       0.034     3350.641
     NS sqrt iter    4 1.00000000   0.264E-01       0.034     3344.096
     NS sqrt iter    5 1.00000000   0.124E-03       0.034     3340.880
     NS sqrt iter    6 1.00000000   0.357E-10       0.020     2269.736
     Symmetrizing Results
     Final NS sqrt iter    6 1.00000000   0.229E-11

     Est. extremal eigenvalues     -0.83090     2.56902  converged:  T
     TRS4 it   1 1.00000000   0.285E+02       0.007     2173.824   0.100E-11
     TRS4 it   2 1.00000000   0.233E+02       0.013     2206.359   0.100E-11
     TRS4 it   3 1.00000000   0.154E+02       0.013     2202.603   0.100E-11
     TRS4 it   4 1.00000000   0.888E+01       0.013     2195.443   0.100E-11
     TRS4 it   5 1.00000000   0.364E+01       0.013     2198.742   0.100E-11
     TRS4 it   6 1.00000000   0.910E+00       0.013     2215.437   0.100E-11
     TRS4 it   7 1.00000000   0.106E+00       0.013     2211.407   0.100E-11
     TRS4 it   8 1.00000000   0.209E-02       0.013     2209.511   0.100E-11
     TRS4 it   9 1.00000000   0.931E-06       0.013     2207.203   0.100E-11
[...]
     TRS4 it   4 1.00000000   0.920E+01       0.013     2226.386   0.100E-11
     TRS4 it   5 1.00000000   0.412E+01       0.013     2219.445   0.100E-11
     TRS4 it   6 1.00000000   0.127E+01       0.013     2213.584   0.100E-11
     TRS4 it   7 1.00000000   0.221E+00       0.013     2220.006   0.100E-11
     TRS4 it   8 1.00000000   0.102E-01       0.013     2232.193   0.100E-11
     TRS4 it   9 1.00000000   0.258E-04       0.013     2204.532   0.100E-11
     TRS4 it  10 1.00000000   0.226E-09       0.013     2216.726   0.100E-11
     Final TRS4 iteration   10 1.00000000   0.226E-09
     Chemical potential (mu):       0.02639
 
 PAO| energy:  -190.94850772722862      penalty:   1.5493810999571165E-008
 PAO| Writing restart file.
     Est. extremal eigenvalues     -0.83065     2.51907  converged:  T
     TRS4 it   1 1.00000000   0.286E+02       0.007     2138.229   0.100E-11
     TRS4 it   2 1.00000000   0.233E+02       0.013     2221.978   0.100E-11
     TRS4 it   3 1.00000000   0.155E+02       0.013     2217.726   0.100E-11
     TRS4 it   4 1.00000000   0.920E+01       0.013     2214.940   0.100E-11
     TRS4 it   5 1.00000000   0.412E+01       0.013     2211.731   0.100E-11
     TRS4 it   6 1.00000000   0.127E+01       0.013     2210.670   0.100E-11
     TRS4 it   7 1.00000000   0.221E+00       0.013     2217.351   0.100E-11
     TRS4 it   8 1.00000000   0.102E-01       0.013     2217.254   0.100E-11
     TRS4 it   9 1.00000000   0.258E-04       0.013     2215.085   0.100E-11
     TRS4 it  10 1.00000000   0.226E-09       0.013     2218.891   0.100E-11
     Final TRS4 iteration   10 1.00000000   0.226E-09
     Chemical potential (mu):       0.02639

 SCF     1     -1103.034517269     -1103.034517269    1.752445

*********************************************************
 Using MIXING_FRACTION=0.450 to mix KS matrix:  iscf=  2
 KS_nw=0.450*KS + 0.550*KS_old
*********************************************************
     Est. extremal eigenvalues     -0.83065     2.51907  converged:  T
     TRS4 it   1 1.00000000   0.286E+02       0.007     2119.926   0.100E-11
     TRS4 it   2 1.00000000   0.233E+02       0.013     2206.840   0.100E-11
     TRS4 it   3 1.00000000   0.155E+02       0.013     2214.183   0.100E-11
     TRS4 it   4 1.00000000   0.920E+01       0.013     2222.744   0.100E-11
     TRS4 it   5 1.00000000   0.412E+01       0.013     2216.688   0.100E-11
     TRS4 it   6 1.00000000   0.127E+01       0.013     2201.523   0.100E-11
     TRS4 it   7 1.00000000   0.221E+00       0.013     2217.391   0.100E-11
     TRS4 it   8 1.00000000   0.102E-01       0.013     2192.037   0.100E-11
     TRS4 it   9 1.00000000   0.258E-04       0.013     2215.921   0.100E-11
     TRS4 it  10 1.00000000   0.226E-09       0.013     2210.836   0.100E-11
     Final TRS4 iteration   10 1.00000000   0.226E-09
     Chemical potential (mu):       0.02639

 SCF     2     -1103.034517269        -0.000000000    1.754003


 SCF run converged in     2 steps.

 PAO| Storing density matrix for ASPC guess in slot:           1

 ENERGY| Total FORCE_EVAL ( QS ) energy [a.u.]:            -1103.034517268648870

 -------------------------------------------------------------------------------
 -                                                                             -
 -                                DBCSR STATISTICS                             -
 -                                                                             -
 -------------------------------------------------------------------------------
 COUNTER                                    TOTAL       BLAS       SMM       ACC
 flops     5 x     5 x     4             26419200       0.0%    100.0%      0.0%     
 flops    13 x     5 x     4             34078720       0.0%    100.0%      0.0%     
 flops     5 x    13 x     4             34078720       0.0%    100.0%      0.0%     
 flops    13 x    13 x     4             44994560       0.0%    100.0%      0.0%     
 flops     4 x     4 x     5           6527385600       0.0%    100.0%      0.0%     
 flops     5 x     4 x     5           8044544000       0.0%    100.0%      0.0%     
 flops     4 x     4 x    13           8485601280       0.0%    100.0%      0.0%     
 flops    13 x     4 x     5          10457907200       0.0%    100.0%      0.0%     
 flops     5 x     4 x    13          10457907200       0.0%    100.0%      0.0%     
 flops    13 x     4 x    13          13595279360       0.0%    100.0%      0.0%     
 flops     5 x     4 x     4         418497473600       0.0%    100.0%      0.0%     
 flops    13 x     4 x     4         577164356704       0.0%    100.0%      0.0%     
 flops     4 x     4 x     4       29285252523264       0.0%    100.0%      0.0%     
 flops inhomo. stacks                           0       0.0%      0.0%      0.0%
 flops total                        30.338623E+12       0.0%    100.0%      0.0%
 flops max/rank                    956.560384E+09       0.0%    100.0%      0.0%
 matmuls inhomo. stacks                         0       0.0%      0.0%      0.0%
 matmuls total                       232946050675       0.0%    100.0%      0.0%
 number of processed stacks             237938367       0.0%    100.0%      0.0%
 average stack size                                     0.0     979.0       0.0
 marketing flops                    52.477810E+12
 -------------------------------------------------------------------------------
 # multiplications                          49051
 max memory usage/rank             617.275392E+06
 # max total images/rank                        2
 # max 3D layers                                1
 # MPI messages exchanged                20405216
 MPI messages size (bytes):
  total size                         2.419573E+12
  min size                           0.000000E+00
  max size                         541.696000E+03
  average size                     118.576195E+03
 MPI breakdown and total messages size (bytes):
             size <=      128              895572                    20352
       128 < size <=     8192              300141               1116812672
      8192 < size <=    32768               55206               1343095296
     32768 < size <=   131072             8774561             647538484736
    131072 < size <=  4194304            10379736            1769945072128
   4194304 < size <= 16777216                   0                        0
  16777216 < size                               0                        0
 -------------------------------------------------------------------------------

 *** WARNING in dbcsr_mm.F:301 :: Using a non-square number of MPI ranks ***
 *** might lead to poor performance. Used ranks: 32 Suggested: 36 64     ***

 -------------------------------------------------------------------------------
 -                                                                             -
 -                      DBCSR MESSAGE PASSING PERFORMANCE                      -
 -                                                                             -
 -------------------------------------------------------------------------------
 ROUTINE             CALLS      AVE VOLUME [Bytes]
 MP_Bcast               14                     12.
 MP_Allreduce       293365                     37.
 MP_Alltoall        127372                  14859.
 MP_ISend          1638338                  55276.
 MP_IRecv          1603984                  56523.
 -------------------------------------------------------------------------------

 -------------------------------------------------------------------------------
 -                                                                             -
 -                                DBM STATISTICS                               -
 -                                                                             -
 -------------------------------------------------------------------------------
    M  x    N  x    K                                          COUNT     PERCENT
 -------------------------------------------------------------------------------

 -------------------------------------------------------------------------------
 -                                                                             -
 -                                GRID STATISTICS                              -
 -                                                                             -
 -------------------------------------------------------------------------------
 LP    KERNEL             BACKEND                              COUNT     PERCENT
 2     collocate ortho    CPU                               13114016      28.83%
 2     integrate ortho    CPU                               13114016      28.83%
 3     collocate ortho    CPU                                8425808      18.53%
 3     integrate ortho    CPU                                8425808      18.53%
 4     collocate ortho    CPU                                1197088       2.63%
 4     integrate ortho    CPU                                1197088       2.63%
 0     collocate general  CPU                                   6144       0.01%
 -------------------------------------------------------------------------------

 MEMORY| Estimated peak process memory [MiB]                                 590

 -------------------------------------------------------------------------------
 -                                                                             -
 -                         MESSAGE PASSING PERFORMANCE                         -
 -                                                                             -
 -------------------------------------------------------------------------------

 ROUTINE             CALLS      AVE VOLUME [Bytes]
 MP_Group                5
 MP_Bcast           409259                   1839.
 MP_Allreduce      1016863                    514.
 MP_Sync                 5
 MP_Alltoall           419                2889531.
 MP_SendRecv          1488                  18832.
 MP_ISendRecv         1488                  18832.
 MP_Wait              4218
 MP_ISend             2470                 108139.
 MP_IRecv             2470                 108153.
 -------------------------------------------------------------------------------


 -------------------------------------------------------------------------------
 -                                                                             -
 -                           R E F E R E N C E S                               -
 -                                                                             -
 -------------------------------------------------------------------------------
 
 CP2K version 2024.3 (Development Version), the CP2K developers group (2024).
 CP2K is freely available from https://www.cp2k.org/ .
 
 T. D. Kuehne, M. Iannuzzi, M. Del Ben, V. V. Rybkin, P. Seewald, F. Stein, T. 
 Laino, R. Z. Khaliullin, O. Schuett, F. Schiffmann, D. Golze, J. Wilhelm, S. 
 Chulkov, M. H. Bani-Hashemian, V. Weber, U. Borstnik, M. Taillefumier, A. S. 
 Jakobovits, A. Lazzaro, H. Pabst, T. Mueller, R. Schade, M. Guidon, S. 
 Andermatt, N. Holmberg, G. K. Schenter, A. Hehn, A. Bussy, F. Belleflamme, G. 
 Tabacchi, A. Gloess, M. Lass, I. Bethune, C. J. Mundy, C. Plessl, M. Watkins, 
 J. VandeVondele, M. Krack, J. Hutter.
 J. Chem. Phys. 152, 194103 (2020).
 CP2K: An electronic structure and molecular dynamics software package - 
 Quickstep: Efficient and accurate electronic structure calculations.
 https://doi.org/10.1063/5.0007045

 O. Schuett, J. VandeVondele.
 J. Chem. Theory Comput. 14, 4168-4175 (2018).
 Machine Learning Adaptive Basis Sets for Efficient Large Scale Density 
 Functional Theory Simulation.
 https://doi.org/10.1021/acs.jctc.8b00378

 O. Schuett, P. Messmer, J. Hutter, J. VandeVondele.
 Electronic Structure Calculations on Graphics Processing Units, 173-190 (2016).
 GPU-Accelerated Sparse Matrix-Matrix Multiplication for Linear Scaling Density 
 Functional Theory.
 https://doi.org/10.1002/9781118670712.ch8

 A. Heinecke, G. Henry, M. Hutchinson, H. Pabst.
 Proceedings of Intl. Supercomputing Conference, 981-991 (2016).
 LIBXSMM: Accelerating Small Matrix Multiplications by Runtime Code Generation.
 https://doi.org/10.1109/SC.2016.83

 J. Hutter, M. Iannuzzi, F. Schiffmann, J. VandeVondele.
 WIREs Comput Mol Sci. 4, 15-25 (2014).
 CP2K: atomistic simulations of condensed matter systems.
 https://doi.org/10.1002/wcms.1159

 U. Borstnik, J. VandeVondele, V. Weber, J. Hutter.
 Parallel Comput. 40, 47-58 (2014).
 Sparse matrix multiplication: The distributed block-compressed sparse row 
 library.
 https://doi.org/10.1016/j.parco.2014.03.012

 A. Marek, V. Blum, R. Johanni, V. Havu, B. Lang, T. Auckenthaler, A. Heinecke, 
 H. Bungartz, H. Lederer.
 J. Phys. Condens. Matter 26, 213201 (2014).
 The ELPA library: scalable parallel eigenvalue solutions for electronic 
 structure theory and computational science.
 https://doi.org/10.1088/0953-8984/26/21/213201

 J. VandeVondele, U. Borstnik, J. Hutter.
 J. Chem. Theory Comput. 8, 3565-3573 (2012).
 Linear Scaling Self-Consistent Field Calculations with Millions of Atoms in the 
 Condensed Phase.
 https://doi.org/10.1021/ct200897x

 J. VandeVondele, J. Hutter.
 J. Chem. Phys. 127, 114105 (2007).
 Gaussian basis sets for accurate calculations on molecular systems in gas and 
 condensed phases.
 https://doi.org/10.1063/1.2770708

 J. VandeVondele, M. Krack, F. Mohamed, M. Parrinello, T. Chassaing, J. Hutter.
 Comput. Phys. Commun. 167, 103-128 (2005).
 QUICKSTEP: Fast and accurate density functional calculations using a mixed 
 Gaussian and plane waves approach.
 https://doi.org/10.1016/j.cpc.2004.12.014

 M. Krack.
 Theor. Chem. Acc. 114, 145-152 (2005).
 Pseudopotentials for H to Kr optimized for gradient-corrected 
 exchange-correlation functionals.
 https://doi.org/10.1007/s00214-005-0655-y

 M. Frigo, S. G. Johnson.
 Proc. IEEE 93, 216-231 (2005).
 The design and implementation of FFTW3.
 https://doi.org/10.1109/JPROC.2004.840301

 A. M. N. Niklasson, C. J. Tymczak, M. Challacombe.
 J. Chem. Phys. 118, 8611-8620 (2003).
 Trace resetting density matrix purification in O(N) self-consistent-field 
 theory.
 https://doi.org/10.1063/1.1559913

 C. Hartwigsen, S. Goedecker, J. Hutter.
 Phys. Rev. B 58, 3641-3662 (1998).
 Relativistic separable dual-space Gaussian pseudopotentials from H to Rn.
 https://doi.org/10.1103/PhysRevB.58.3641

 G. Lippert, J. Hutter, M. Parrinello.
 Mol. Phys. 92, 477-487 (1997).
 A hybrid Gaussian and plane wave density functional scheme.
 https://doi.org/10.1080/002689797170220

 S. Goedecker, M. Teter, J. Hutter.
 Phys. Rev. B 54, 1703-1710 (1996).
 Separable dual-space Gaussian pseudopotentials.
 https://doi.org/10.1103/PhysRevB.54.1703

 J. P. Perdew, K. Burke, M. Ernzerhof.
 Phys. Rev. Lett. 77, 3865-3868 (1996).
 Generalized gradient approximation made simple.
 https://doi.org/10.1103/PhysRevLett.77.3865


 -------------------------------------------------------------------------------
 -                                                                             -
 -                                T I M I N G                                  -
 -                                                                             -
 -------------------------------------------------------------------------------
 SUBROUTINE                       CALLS  ASD         SELF TIME        TOTAL TIME
                                MAXIMUM       AVERAGE  MAXIMUM  AVERAGE  MAXIMUM
 CP2K                                 1  1.0    0.013    0.016  445.255  445.256
 qs_energies                          1  2.0    0.000    0.000  445.096  445.097
 ls_scf                               1  3.0    0.000    0.000  444.014  444.014
 pao_update                           7  4.0    0.006    0.024  414.175  414.177
 pao_calc_energy                    819  5.0    0.003    0.018  371.004  371.008
 dbcsr_multiply_generic           49051  8.4    1.371    1.482  339.686  340.050
 multiply_cannon                  49051  9.4    2.545    3.160  273.919  278.288
 multiply_cannon_loop             49051 10.4    1.798    2.044  263.391  268.573
 ls_scf_init_matrix_S               826  7.0    0.008    0.010  212.765  212.839
 pao_rebuild_S                      819  6.0    0.003    0.003  210.952  211.026
 matrix_sqrt_Newton_Schulz          826  8.0    0.171    0.294  197.472  197.526
 multiply_cannon_multrec         392408 11.4  174.515  176.573  175.328  177.357
 pao_dm_trs4                        819  6.0    0.006    0.007  159.674  159.699
 density_matrix_trs4                834  7.0    0.202    0.345  153.827  153.918
 mp_waitall_1                   3141012 12.6   85.265   94.689   85.265   94.689
 multiply_cannon_metrocomm3      392408 11.4    0.678    0.714   67.757   73.734
 arnoldi_extremal                  1660  8.5    0.013    0.015   67.474   67.535
 arnoldi_normal_ev                 1660  9.5    0.039    0.067   67.458   67.518
 build_subspace                    6613 10.6    0.403    0.437   59.150   59.184
 dbcsr_matrix_vector_mult        201710 11.6    0.863    1.320   55.716   56.157
 make_m2s                         98102  9.4    0.538    0.747   50.252   51.448
 make_images                      98102 10.4    7.217    7.426   48.914   49.934
 dbcsr_matrix_vector_mult_local  201710 12.6   47.542   47.963   47.767   48.190
 pao_calc_AB                       1085  5.8    0.002    0.002   42.695   42.698
 pao_calc_AB_equi                  1085  6.8    0.040    0.101   42.693   42.697
 pao_calc_grad_lnv_wrt_AB           265  7.0    0.020    0.025   42.281   42.324
 ls_scf_main                          7  4.0    0.000    0.001   26.321   26.323
 make_images_data                 98102 11.4    0.843    1.050   21.399   23.764
 ls_scf_dm_to_ks                     15  5.0    0.000    0.000   23.393   23.396
 hybrid_alltoall_any              99749 12.4    0.895    1.741   16.808   20.800
 matrix_qs_to_ls                   1660  7.5    0.016    0.024   17.173   17.279
 mp_sum_l                        199928  9.5    8.056   15.727    8.056   15.727
 qs_ks_update_qs_env                 16  6.0    0.000    0.000   13.910   13.913
 rebuild_ks_matrix                   16  7.0    0.000    0.000   13.898   13.902
 qs_ks_build_kohn_sham_matrix        16  8.0    0.003    0.003   13.898   13.902
 calculate_norms                 731184 11.4   11.312   12.367   11.312   12.367
 make_images_pack                 98102 11.4   10.812   11.254   10.945   11.389
 dbcsr_multiply_generic_mpsum_f   35676  9.5    0.025    0.030    4.873   11.302
 qs_rho_update_rho_low               16  6.0    0.000    0.000   10.949   10.951
 calculate_rho_elec                  16  7.0    0.005    0.006   10.949   10.951
 sum_up_and_integrate                16  9.0    0.000    0.001   10.511   10.515
 integrate_v_rspace                  16 10.0    0.000    0.001   10.496   10.501
 grid_collocate_task_list            16  8.0    9.724    9.904    9.724    9.904
 grid_integrate_task_list            16 11.0    9.285    9.409    9.285    9.409
 make_images_sizes                98102 11.4    0.056    0.065    4.551    9.164
 mp_alltoall_i44                  98102 12.4    4.494    9.106    4.494    9.106
 -------------------------------------------------------------------------------

 The number of warnings for this run is : 1
 
 -------------------------------------------------------------------------------
  **** **** ******  **  PROGRAM ENDED AT                 2024-09-24 05:42:40.446
 ***** ** ***  *** **   PROGRAM RAN ON                                    moritz
 **    ****   ******    PROGRAM RAN BY                                       ole
 ***** **    ** ** **   PROGRAM PROCESS ID                                169559
  **** **  *******  **  PROGRAM STOPPED IN /home/ole/git/pao_ml_equivar/64H2O_MD
                                           /Frame5900
