 DBCSR| CPU Multiplication driver                                           XSMM (U)
 DBCSR| Multrec recursion limit                                              512 (U)
 DBCSR| Multiplication stack size                                           1000 (D)
 DBCSR| Maximum elements for images                                    UNLIMITED (U)
 DBCSR| Multiplicative factor virtual images                                   1 (U)
 DBCSR| Use multiplication densification                                       T (D)
 DBCSR| Multiplication size stacks                                             3 (U)
 DBCSR| Use memory pool for CPU allocation                                     F (U)
 DBCSR| OMP: Current number of threads                                         1
 DBCSR| OMP: Max number of threads                                             1
 DBCSR| Split modifier for TAS multiplication algorithm                  1.0E+00 (U)


  **** **** ******  **  PROGRAM STARTED AT               2023-02-01 10:45:19.663
 ***** ** ***  *** **   PROGRAM STARTED ON                                moritz
 **    ****   ******    PROGRAM STARTED BY                                   ole
 ***** **    ** ** **   PROGRAM PROCESS ID                                148609
  **** **  *******  **  PROGRAM STARTED IN /home/ole/git/pao_ml_equivar/2H2O_rot
                                           ations/phi_29

 CP2K| version string:                 CP2K version 2023.1 (Development Version)
 CP2K| source code revision number:                                  git:03b4147
 CP2K| cp2kflags: omp libint fftw3 libxc quip xsmm spglib libvori libbqb libtorc
 CP2K|            h
 CP2K| is freely available from                            https://www.cp2k.org/
 CP2K| Program compiled at                           Mi 01 Feb 2023 10:36:52 CET
 CP2K| Program compiled on                                                moritz
 CP2K| Program compiled for                                                local
 CP2K| Data directory path                               /home/ole/git/cp2k/data
 CP2K| Input file name                                            2H2O_pao44.inp

 GLOBAL| Force Environment number                                              1
 GLOBAL| Basis set file name                                        BASIS_MOLOPT
 GLOBAL| Potential file name                                      GTH_POTENTIALS
 GLOBAL| MM Potential file name                                     MM_POTENTIAL
 GLOBAL| Coordinate file name                                         coords.xyz
 GLOBAL| Method name                                                        CP2K
 GLOBAL| Project name                                                 2H2O_pao44
 GLOBAL| Run type                                                         ENERGY
 GLOBAL| FFT library                                                       FFTW3
 GLOBAL| Diagonalization library                                       ScaLAPACK
 GLOBAL| DGEMM library                                                      BLAS
 GLOBAL| Orthonormality check for eigenvectors                          DISABLED
 GLOBAL| Matrix multiplication library                                 ScaLAPACK
 GLOBAL| All-to-all communication in single precision                          F
 GLOBAL| FFTs using library dependent lengths                                  F
 GLOBAL| Grid backend                                                       AUTO
 GLOBAL| Global print level                                                  LOW
 GLOBAL| MPI I/O enabled                                                       T
 GLOBAL| Total number of message passing processes                             1
 GLOBAL| Number of threads for this process                                    1
 GLOBAL| This output is from process                                           0
 GLOBAL| Stack size for threads created by OpenMP (OMP_STACKSIZE)        default
 GLOBAL| CPU model name           AMD Ryzen Threadripper 3970X 32-Core Processor
 GLOBAL| CPUID                                                              1002
 GLOBAL| Compiled for CPUID                                                    0

 *** HINT in environment.F:884 :: The compiler target flags (generic) used ***
 *** to build this binary cannot exploit all extensions of this CPU model  ***
 *** (x86_avx2). Consider compiler target flags as part of FCFLAGS and     ***
 *** CFLAGS (ARCH file).                                                   ***


 MEMORY| system memory details [Kb]
 MEMORY|                        rank 0           min           max       average
 MEMORY| MemTotal            131773860     131773860     131773860     131773860
 MEMORY| MemFree             118684480     118684480     118684480     118684480
 MEMORY| Buffers                301580        301580        301580        301580
 MEMORY| Cached                7018548       7018548       7018548       7018548
 MEMORY| Slab                   776140        776140        776140        776140
 MEMORY| SReclaimable           331304        331304        331304        331304
 MEMORY| MemLikelyFree       126335912     126335912     126335912     126335912


 GENERATE|  Preliminary Number of Bonds generated:                             0
 GENERATE|  Achieved consistency in connectivity generation.

 *******************************************************************************
 *******************************************************************************
 **                                                                           **
 **     #####                         ##              ##                      **
 **    ##   ##            ##          ##              ##                      **
 **   ##     ##                       ##            ######                    **
 **   ##     ##  ##   ##  ##   #####  ##  ##   ####   ##    #####    #####    **
 **   ##     ##  ##   ##  ##  ##      ## ##   ##      ##   ##   ##  ##   ##   **
 **   ##  ## ##  ##   ##  ##  ##      ####     ###    ##   ######   ######    **
 **    ##  ###   ##   ##  ##  ##      ## ##      ##   ##   ##       ##        **
 **     #######   #####   ##   #####  ##  ##  ####    ##    #####   ##        **
 **           ##                                                    ##        **
 **                                                                           **
 **                                                ... make the atoms dance   **
 **                                                                           **
 **            Copyright (C) by CP2K developers group (2000-2023)             **
 **                      J. Chem. Phys. 152, 194103 (2020)                    **
 **                                                                           **
 *******************************************************************************


 TOTAL NUMBERS AND MAXIMUM NUMBERS

  Total number of            - Atomic kinds:                                   2
                             - Atoms:                                          6
                             - Shell sets:                                     6
                             - Shells:                                        22
                             - Primitive Cartesian functions:                 42
                             - Cartesian basis functions:                     48
                             - Spherical basis functions:                     46

  Maximum angular momentum of- Orbital basis functions:                        2
                             - Local part of the GTH pseudopotential:          2
                             - Non-local part of the GTH pseudopotential:      0

 ------------------------------ Linear scaling SCF -----------------------------
 eps_scf:                                                              0.100E-07
 eps_filter:                                                           0.100E-07
 mixing_fraction:                                                      0.450E+00
 max_scf:                                                                     25
 fixed chemical potential (mu)                                                 F
 has unit metric:                                                              F
 Computing inv(S):                                                             T
 Computing sqrt(S):                                                            T
 Computing S preconditioner                                                    F
 S sqrt method:                                                     NEWTONSCHULZ
 S sqrt order:                                                                 3
 Extrapolation order:                                                          1
 Use single precision matrices                                                 F
 S preconditioner type                                                      NONE
 Polarized Atomic Orbitals (PAO)                                               T
 Purification method                                   Trace resetting 4th order
 Cluster type                                                             ATOMIC
 Computing Chebyshev                                                       FALSE
 Using PAO                                                                     T
 -------------------------------------------------------------------------------

 
 PAO|                                  EPS_PAO                           0.1E-04
 PAO|                                  MIXING                            0.5E+00
 PAO|                                  MAX_PAO                              1000
 PAO|                                  MAX_CYCLES                           1000
 PAO|                                  PARAMETERIZATION              EQUIVARIANT
 PAO|                                  PRECONDITION                            F
 PAO|                                  REGULARIZATION                    0.0E+00
 PAO|                                  EPS_PGF                           0.1E-09
 PAO|                                  PENALTY_DISTANCE                  0.1E+00
 PAO|                                  PENALTY_STRENGTH                  0.5E-02
 PAO|                                  LINPOT_PRECONDITION_DELTA         0.0E+00
 PAO|                                  LINPOT_INITGUESS_DELT             0.0E+00
 PAO|                                  LINPOT_REGULARIZATION_DELTA       0.0E+00
 PAO|                                  LINPOT_REGULARIZATION_STRENGTH    0.0E+00
 PAO|                                  OPTIMIZER                              CG
 PAO|                                  CG_INIT_STEPS                           2
 PAO|                                  CG_RESET_LIMIT                    0.1E+00
 PAO|                                  CHECK_UNITARY_TOL                -0.1E+01
 PAO|                                  CHECK_GRADIENT_TOL               -0.1E+01
 PAO|                                  NUM_GRADIENT_ORDER                      2
 PAO|                                  NUM_GRADIENT_EPS                  0.1E-07
 PAO|                                  PRINT%RESTART%WRITE_CYCLES            100
 PAO|                                  RESTART_FILE 
 PAO|                                  PREOPT_DM_FILE 2H2O_ref_LS_DM_SPIN_1_RESTART.dm
 PAO|                                  MACHINE_LEARNING%METHOD       GAUSSIAN_PR
 PAO|                                  MACHINE_LEARNING%PRIOR               ZERO
 PAO|                                  MACHINE_LEARNING%DESCRIPTOR     POTENTIAL
 PAO|                                  MACHINE_LEARNING%TOLERANCE        0.1E-01
 PAO|                                  MACHINE_LEARNING%GP_NOISE_VAR     0.1E+00
 PAO|                                  MACHINE_LEARNING%GP_SCALE         0.5E-01
 

 Calculating atomic Fock matrix for atomic kind: O

 Electronic structure
    Total number of core electrons                                          2.00
    Total number of valence electrons                                       6.00
    Total number of electrons                                               8.00
    Multiplicity                                                   not specified
    S   [  2.00] 2.00
    P      4.00


 *******************************************************************************
                  Iteration          Convergence                     Energy [au]
 *******************************************************************************
                          1        0.708315                     -15.576645311500
                          2        0.608879                     -15.587933561584
                          3        0.102828E-01                 -15.656849565404
                          4        0.113889E-02                 -15.656866888140
                          5        0.434197E-03                 -15.656867072159
                          6        0.263771E-03                 -15.656867091904
                          7        0.478536E-06                 -15.656867103452

 Energy components [Hartree]           Total Energy ::          -15.656867103452
                                        Band Energy ::           -3.000198112285
                                     Kinetic Energy ::           11.759971203220
                                   Potential Energy ::          -27.416838306672
                                      Virial (-V/T) ::            2.331369510426
                                        Core Energy ::          -26.140716385623
                                          XC Energy ::           -3.154051012914
                                     Coulomb Energy ::           13.637900295084
                       Total Pseudopotential Energy ::          -37.935781716540
                       Local Pseudopotential Energy ::          -39.218907440693
                    Nonlocal Pseudopotential Energy ::            1.283125724153
                                        Confinement ::            0.350941276976

 Orbital energies  State     L     Occupation   Energy[a.u.]          Energy[eV]

                       1     0          2.000      -0.864471          -23.523463

                       1     1          4.000      -0.317814           -8.648154


 Total Electron Density at R=0:                                         0.000068

 Calculating atomic Fock matrix for atomic kind: H

 Electronic structure
    Total number of core electrons                                          0.00
    Total number of valence electrons                                       1.00
    Total number of electrons                                               1.00
    Multiplicity                                                   not specified
    S      1.00


 *******************************************************************************
                  Iteration          Convergence                     Energy [au]
 *******************************************************************************
                          1        0.437545E-02                  -0.424159432110
                          2        0.531356E-03                  -0.424178438213
                          3        0.259176E-06                  -0.424178722480

 Energy components [Hartree]           Total Energy ::           -0.424178722480
                                        Band Energy ::           -0.199015229016
                                     Kinetic Energy ::            0.464007633961
                                   Potential Energy ::           -0.888186356441
                                      Virial (-V/T) ::            1.914163240935
                                        Core Energy ::           -0.479160803564
                                          XC Energy ::           -0.244352904054
                                     Coulomb Energy ::            0.299334985138
                       Total Pseudopotential Energy ::           -0.962295316385
                       Local Pseudopotential Energy ::           -0.962295316385
                    Nonlocal Pseudopotential Energy ::            0.000000000000
                                        Confinement ::            0.191268788606

 Orbital energies  State     L     Occupation   Energy[a.u.]          Energy[eV]

                       1     0          1.000      -0.199015           -5.415480


 Total Electron Density at R=0:                                         0.242907
 PAO| Made initial guess for matrix_X with norm:   4.8989794855663558     

     Lanczos converged:  T threshold:   0.100E-02
     Est. extremal eigenvalues:    0.336E+01   0.110E+00
     Est. condition number :    0.305E+02

 Order=           3
     NS sqrt iter    1 1.00000000   0.820E+00       0.001       64.512
     NS sqrt iter    2 1.00000000   0.440E+00       0.001      110.592
     NS sqrt iter    3 1.00000000   0.171E+00       0.001      110.592
     NS sqrt iter    4 1.00000000   0.213E-01       0.001      110.592
     NS sqrt iter    5 1.00000000   0.633E-04       0.001       98.560
     Symmetrizing Results
     Final NS sqrt iter    5 1.00000000   0.504E-08

 PAO| Read restart DM 2H2O_ref_LS_DM_SPIN_1_RESTART.dm with checksum:    49.828451502106063     
 PAO| Quickstep energy from restart density:  -34.450332418275778     
 PAO| ======================= Iteration:         1 =============================

     Lanczos converged:  T threshold:   0.100E-02
     Est. extremal eigenvalues:    0.336E+01   0.110E+00
     Est. condition number :    0.305E+02

 Order=           3
     NS sqrt iter    1 1.00000000   0.820E+00       0.001       64.512
     NS sqrt iter    2 1.00000000   0.440E+00       0.001      110.592
     NS sqrt iter    3 1.00000000   0.171E+00       0.001      110.592
     NS sqrt iter    4 1.00000000   0.213E-01       0.001      110.592
     NS sqrt iter    5 1.00000000   0.633E-04       0.001       98.560
     Symmetrizing Results
     Final NS sqrt iter    5 1.00000000   0.504E-08

     Est. extremal eigenvalues     -0.92069     1.96273  converged:  T
     TRS4 it   1 1.00000000   0.900E+00       0.000       16.128   0.100E-07
     TRS4 it   2 1.00000000   0.711E+00       0.000       32.256   0.100E-07
     TRS4 it   3 1.00000000   0.507E+00       0.000       32.256   0.100E-07
     TRS4 it   4 1.00000000   0.320E+00       0.000       32.256   0.100E-07
     TRS4 it   5 1.00000000   0.160E+00       0.000       32.256   0.100E-07
     TRS4 it   6 1.00000000   0.514E-01       0.000       32.256   0.100E-07
     TRS4 it   7 1.00000000   0.743E-02       0.000       32.256   0.100E-07
     TRS4 it   8 1.00000000   0.219E-03       0.000       32.256   0.100E-07
     TRS4 it   9 1.00000000   0.213E-06       0.000       32.256   0.100E-07
     TRS4 it  10 1.00000000   0.205E-12       0.000       32.256   0.100E-07
     Final TRS4 iteration   10 1.00000000   0.205E-12
     Chemical potential (mu):      -0.06661
 
 PAO| energy:  -7.6343254989742091      penalty:   3.8826747678846675E-033
 PAO|CG| warming up with steepest descent
 PAO|CG| beta:    0.0000000000000000     
 PAO| norm of gradient:  0.78336232976969999     
 PAO|LS| adapt:  T F F
 PAO|LS| adapt: scan_steps:    0.0000000000000000        0.0000000000000000        0.0000000000000000     
 PAO|LS| adapt: energies:   -7.6343254989742091        0.0000000000000000        0.0000000000000000     
 PAO| ======================= Iteration:         2 =============================

     Lanczos converged:  T threshold:   0.100E-02
     Est. extremal eigenvalues:    0.327E+01   0.122E+00
     Est. condition number :    0.268E+02

 Order=           3
     NS sqrt iter    1 1.00000000   0.804E+00       0.001       64.512
     NS sqrt iter    2 1.00000000   0.425E+00       0.001      110.592
     NS sqrt iter    3 1.00000000   0.154E+00       0.001      110.592
     NS sqrt iter    4 1.00000000   0.149E-01       0.001      110.592
     NS sqrt iter    5 1.00000000   0.218E-04       0.001       82.944
     Symmetrizing Results
     Final NS sqrt iter    5 1.00000000   0.748E-09

     Est. extremal eigenvalues     -0.92436     1.90621  converged:  T
     TRS4 it   1 1.00000000   0.898E+00       0.000       16.128   0.100E-07
     TRS4 it   2 1.00000000   0.693E+00       0.000       32.256   0.100E-07
     TRS4 it   3 1.00000000   0.493E+00       0.000       32.256   0.100E-07
     TRS4 it   4 1.00000000   0.301E+00       0.000       32.256   0.100E-07
     TRS4 it   5 1.00000000   0.142E+00       0.000       32.256   0.100E-07
     TRS4 it   6 1.00000000   0.404E-01       0.000       32.256   0.100E-07
     TRS4 it   7 1.00000000   0.463E-02       0.000       32.256   0.100E-07
     TRS4 it   8 1.00000000   0.856E-04       0.000       32.256   0.100E-07
     TRS4 it   9 1.00000000   0.326E-07       0.000       32.256   0.100E-07
     Final TRS4 iteration    9 1.00000000   0.326E-07
     Chemical potential (mu):      -0.05467
 
 PAO| energy:  -7.6898083876713699      penalty:   2.2484985572633224E-008
 PAO|LS| adapt:  T T F
 PAO|LS| adapt: scan_steps:    0.0000000000000000       0.10000000000000001        0.0000000000000000     
 PAO|LS| adapt: energies:   -7.6343254989742091       -7.6898083876713699        0.0000000000000000     
 PAO| ======================= Iteration:         3 =============================

     Lanczos converged:  T threshold:   0.100E-02
     Est. extremal eigenvalues:    0.318E+01   0.133E+00
     Est. condition number :    0.239E+02

 Order=           3
     NS sqrt iter    1 1.00000000   0.786E+00       0.001       64.512
     NS sqrt iter    2 1.00000000   0.408E+00       0.001      110.592
     NS sqrt iter    3 1.00000000   0.137E+00       0.001      110.592
     NS sqrt iter    4 1.00000000   0.104E-01       0.001      110.592
     NS sqrt iter    5 1.00000000   0.782E-05       0.001       82.944
     Symmetrizing Results
     Final NS sqrt iter    5 1.00000000   0.973E-10

     Est. extremal eigenvalues     -0.92779     1.85916  converged:  T
     TRS4 it   1 1.00000000   0.896E+00       0.000       16.128   0.100E-07
     TRS4 it   2 1.00000000   0.677E+00       0.000       32.256   0.100E-07
     TRS4 it   3 1.00000000   0.479E+00       0.000       32.256   0.100E-07
     TRS4 it   4 1.00000000   0.282E+00       0.000       32.256   0.100E-07
     TRS4 it   5 1.00000000   0.124E+00       0.000       32.256   0.100E-07
     TRS4 it   6 1.00000000   0.308E-01       0.000       32.256   0.100E-07
     TRS4 it   7 1.00000000   0.268E-02       0.000       32.256   0.100E-07
     TRS4 it   8 1.00000000   0.287E-04       0.000       32.256   0.100E-07
     TRS4 it   9 1.00000000   0.366E-08       0.000       32.256   0.100E-07
     Final TRS4 iteration    9 1.00000000   0.366E-08
     Chemical potential (mu):      -0.04176
 
 PAO| energy:  -7.7328673507491636      penalty:   3.5976001924313515E-007
 PAO|LS| adapt:  T T F
 PAO|LS| adapt: scan_steps:    0.0000000000000000       0.20000000000000001        0.0000000000000000     
 PAO|LS| adapt: energies:   -7.6343254989742091       -7.7328673507491636        0.0000000000000000     
 PAO| ======================= Iteration:         4 =============================

     Lanczos converged:  T threshold:   0.100E-02
     Est. extremal eigenvalues:    0.299E+01   0.152E+00
     Est. condition number :    0.197E+02

 Order=           3
     NS sqrt iter    1 1.00000000   0.749E+00       0.001       64.512
     NS sqrt iter    2 1.00000000   0.374E+00       0.001      110.592
     NS sqrt iter    3 1.00000000   0.107E+00       0.001      110.592
     NS sqrt iter    4 1.00000000   0.519E-02       0.001      110.592
     NS sqrt iter    5 1.00000000   0.116E-05       0.001       82.944
     Symmetrizing Results
     Final NS sqrt iter    5 1.00000000   0.227E-11

     Est. extremal eigenvalues     -0.93313     1.78720  converged:  T
     TRS4 it   1 1.00000000   0.892E+00       0.000       16.128   0.100E-07
     TRS4 it   2 1.00000000   0.648E+00       0.000       32.256   0.100E-07
     TRS4 it   3 1.00000000   0.451E+00       0.000       32.256   0.100E-07
     TRS4 it   4 1.00000000   0.247E+00       0.000       32.256   0.100E-07
     TRS4 it   5 1.00000000   0.926E-01       0.000       32.256   0.100E-07
     TRS4 it   6 1.00000000   0.166E-01       0.000       32.256   0.100E-07
     TRS4 it   7 1.00000000   0.741E-03       0.000       32.256   0.100E-07
     TRS4 it   8 1.00000000   0.211E-05       0.000       32.256   0.100E-07
     TRS4 it   9 1.00000000   0.198E-10       0.000       32.256   0.100E-07
     Final TRS4 iteration    9 1.00000000   0.198E-10
     Chemical potential (mu):      -0.01317
 
 PAO| energy:  -7.7800970571579100      penalty:   5.7561623085469259E-006
 PAO|LS| Need extra step
 PAO|LS| adapt:  T T F
 PAO|LS| adapt: scan_steps:    0.0000000000000000       0.40000000000000002        0.0000000000000000     
 PAO|LS| adapt: energies:   -7.6343254989742091       -7.7800970571579100        0.0000000000000000     
 PAO| ======================= Iteration:         5 =============================

     Lanczos converged:  T threshold:   0.100E-02
     Est. extremal eigenvalues:    0.264E+01   0.180E+00
     Est. condition number :    0.146E+02

 Order=           3
     NS sqrt iter    1 1.00000000   0.686E+00       0.001       64.512
     NS sqrt iter    2 1.00000000   0.313E+00       0.001      110.592
     NS sqrt iter    3 1.00000000   0.669E-01       0.001      110.592
     NS sqrt iter    4 1.00000000   0.145E-02       0.001      110.592
     NS sqrt iter    5 1.00000000   0.302E-07       0.001       61.184
     Symmetrizing Results
     Final NS sqrt iter    5 1.00000000   0.357E-08

     Est. extremal eigenvalues     -0.93437     1.69892  converged:  T
     TRS4 it   1 1.00000000   0.884E+00       0.000       16.128   0.100E-07
     TRS4 it   2 1.00000000   0.608E+00       0.000       32.256   0.100E-07
     TRS4 it   3 1.00000000   0.403E+00       0.000       32.256   0.100E-07
     TRS4 it   4 1.00000000   0.190E+00       0.000       32.256   0.100E-07
     TRS4 it   5 1.00000000   0.510E-01       0.000       32.256   0.100E-07
     TRS4 it   6 1.00000000   0.457E-02       0.000       32.256   0.100E-07
     TRS4 it   7 1.00000000   0.475E-04       0.000       32.256   0.100E-07
     TRS4 it   8 1.00000000   0.663E-08       0.000       32.256   0.100E-07
     Final TRS4 iteration    8 1.00000000   0.663E-08
     Chemical potential (mu):       0.03581
 
 PAO| energy:  -7.7253061555851952      penalty:   9.2098612942039109E-005
 PAO|LS| Need extra step
 PAO|LS| adapt:  T T T
 PAO|LS| adapt: scan_steps:    0.0000000000000000       0.40000000000000002       0.80000000000000004     
 PAO|LS| adapt: energies:   -7.6343254989742091       -7.7800970571579100       -7.7253061555851952     
 PAO|LS| adapt: suggested step_size:   0.49072550937147730     
 PAO|LS| adapt: predicted energy  -7.7852559736666498     
 PAO| ======================= Iteration:         6 =============================

     Lanczos converged:  T threshold:   0.100E-02
     Est. extremal eigenvalues:    0.290E+01   0.159E+00
     Est. condition number :    0.183E+02

 Order=           3
     NS sqrt iter    1 1.00000000   0.733E+00       0.001       64.512
     NS sqrt iter    2 1.00000000   0.359E+00       0.001      110.592
     NS sqrt iter    3 1.00000000   0.962E-01       0.001      110.592
     NS sqrt iter    4 1.00000000   0.384E-02       0.001      110.592
     NS sqrt iter    5 1.00000000   0.504E-06       0.001       82.944
     Symmetrizing Results
     Final NS sqrt iter    5 1.00000000   0.440E-12

     Est. extremal eigenvalues     -0.93462     1.76194  converged:  T
     TRS4 it   1 1.00000000   0.890E+00       0.000       16.128   0.100E-07
     TRS4 it   2 1.00000000   0.637E+00       0.000       32.256   0.100E-07
     TRS4 it   3 1.00000000   0.439E+00       0.000       32.256   0.100E-07
     TRS4 it   4 1.00000000   0.232E+00       0.000       32.256   0.100E-07
     TRS4 it   5 1.00000000   0.806E-01       0.000       32.256   0.100E-07
     TRS4 it   6 1.00000000   0.123E-01       0.000       32.256   0.100E-07
     TRS4 it   7 1.00000000   0.388E-03       0.000       32.256   0.100E-07
     TRS4 it   8 1.00000000   0.550E-06       0.000       32.256   0.100E-07
     TRS4 it   9 1.00000000   0.133E-11       0.000       32.256   0.100E-07
     Final TRS4 iteration    9 1.00000000   0.133E-11
     Chemical potential (mu):       0.00075
 
 PAO| energy:  -7.7845335104640991      penalty:   1.3039100476924192E-005
 PAO|CG| warming up with steepest descent
 PAO|CG| beta:    0.0000000000000000     
 PAO| norm of gradient:  0.41708964867209480     
 PAO| energy improvement: -0.15020801148989005     
 PAO| step      6                   -7.784533510  0.261E-01  0.491E+00     0.058
 PAO|LS| adapt:  T F F
 PAO|LS| adapt: scan_steps:    0.0000000000000000        0.0000000000000000        0.0000000000000000     
 PAO|LS| adapt: energies:   -7.7845335104640991        0.0000000000000000        0.0000000000000000     
 PAO| ======================= Iteration:         7 =============================

     Lanczos converged:  T threshold:   0.100E-02
     Est. extremal eigenvalues:    0.281E+01   0.172E+00
     Est. condition number :    0.163E+02

 Order=           3
     NS sqrt iter    1 1.00000000   0.716E+00       0.001       64.512
     NS sqrt iter    2 1.00000000   0.339E+00       0.001      110.592
     NS sqrt iter    3 1.00000000   0.807E-01       0.001      110.592
     NS sqrt iter    4 1.00000000   0.237E-02       0.001      110.592
     NS sqrt iter    5 1.00000000   0.132E-06       0.001       78.464
     Symmetrizing Results
     Final NS sqrt iter    5 1.00000000   0.111E-08

     Est. extremal eigenvalues     -0.93634     1.74660  converged:  T
     TRS4 it   1 1.00000000   0.889E+00       0.000       16.128   0.100E-07
     TRS4 it   2 1.00000000   0.635E+00       0.000       32.256   0.100E-07
     TRS4 it   3 1.00000000   0.439E+00       0.000       32.256   0.100E-07
     TRS4 it   4 1.00000000   0.233E+00       0.000       32.256   0.100E-07
     TRS4 it   5 1.00000000   0.812E-01       0.000       32.256   0.100E-07
     TRS4 it   6 1.00000000   0.122E-01       0.000       32.256   0.100E-07
     TRS4 it   7 1.00000000   0.363E-03       0.000       32.256   0.100E-07
     TRS4 it   8 1.00000000   0.459E-06       0.000       32.256   0.100E-07
     TRS4 it   9 1.00000000   0.904E-12       0.000       32.256   0.100E-07
     Final TRS4 iteration    9 1.00000000   0.904E-12
     Chemical potential (mu):       0.00269
 
 PAO| energy:  -7.7786806201634606      penalty:   1.9736436041241954E-005
 PAO|LS| adapt:  T F T
 PAO|LS| adapt: scan_steps:    0.0000000000000000        0.0000000000000000       0.49072550937147730     
 PAO|LS| adapt: energies:   -7.7845335104640991        0.0000000000000000       -7.7786806201634606     
 PAO| ======================= Iteration:         8 =============================

     Lanczos converged:  T threshold:   0.100E-02
     Est. extremal eigenvalues:    0.286E+01   0.165E+00
     Est. condition number :    0.173E+02

 Order=           3
     NS sqrt iter    1 1.00000000   0.725E+00       0.001       64.512
     NS sqrt iter    2 1.00000000   0.349E+00       0.001      110.592
     NS sqrt iter    3 1.00000000   0.883E-01       0.001      110.592
     NS sqrt iter    4 1.00000000   0.304E-02       0.001      110.592
     NS sqrt iter    5 1.00000000   0.262E-06       0.001       81.536
     Symmetrizing Results
     Final NS sqrt iter    5 1.00000000   0.601E-09

     Est. extremal eigenvalues     -0.93643     1.75366  converged:  T
     TRS4 it   1 1.00000000   0.889E+00       0.000       16.128   0.100E-07
     TRS4 it   2 1.00000000   0.636E+00       0.000       32.256   0.100E-07
     TRS4 it   3 1.00000000   0.438E+00       0.000       32.256   0.100E-07
     TRS4 it   4 1.00000000   0.232E+00       0.000       32.256   0.100E-07
     TRS4 it   5 1.00000000   0.807E-01       0.000       32.256   0.100E-07
     TRS4 it   6 1.00000000   0.123E-01       0.000       32.256   0.100E-07
     TRS4 it   7 1.00000000   0.385E-03       0.000       32.256   0.100E-07
     TRS4 it   8 1.00000000   0.533E-06       0.000       32.256   0.100E-07
     TRS4 it   9 1.00000000   0.124E-11       0.000       32.256   0.100E-07
     Final TRS4 iteration    9 1.00000000   0.124E-11
     Chemical potential (mu):       0.00123
 
 PAO| energy:  -7.8041744222987353      penalty:   1.4138606974295641E-005
 PAO|LS| adapt:  T T T
 PAO|LS| adapt: scan_steps:    0.0000000000000000       0.24536275468573865       0.49072550937147730     
 PAO|LS| adapt: energies:   -7.7845335104640991       -7.8041744222987353       -7.7786806201634606     
 PAO|LS| adapt: suggested step_size:   0.22945392132085377     
 PAO|LS| adapt: predicted energy  -7.8042692947424106     
 PAO| ======================= Iteration:         9 =============================

     Lanczos converged:  T threshold:   0.100E-02
     Est. extremal eigenvalues:    0.286E+01   0.165E+00
     Est. condition number :    0.173E+02

 Order=           3
     NS sqrt iter    1 1.00000000   0.725E+00       0.001       64.512
     NS sqrt iter    2 1.00000000   0.350E+00       0.001      110.592
     NS sqrt iter    3 1.00000000   0.888E-01       0.001      110.592
     NS sqrt iter    4 1.00000000   0.308E-02       0.001      110.592
     NS sqrt iter    5 1.00000000   0.274E-06       0.001       81.536
     Symmetrizing Results
     Final NS sqrt iter    5 1.00000000   0.629E-09

     Est. extremal eigenvalues     -0.93637     1.75416  converged:  T
     TRS4 it   1 1.00000000   0.889E+00       0.000       16.128   0.100E-07
     TRS4 it   2 1.00000000   0.636E+00       0.000       32.256   0.100E-07
     TRS4 it   3 1.00000000   0.438E+00       0.000       32.256   0.100E-07
     TRS4 it   4 1.00000000   0.232E+00       0.000       32.256   0.100E-07
     TRS4 it   5 1.00000000   0.806E-01       0.000       32.256   0.100E-07
     TRS4 it   6 1.00000000   0.123E-01       0.000       32.256   0.100E-07
     TRS4 it   7 1.00000000   0.386E-03       0.000       32.256   0.100E-07
     TRS4 it   8 1.00000000   0.536E-06       0.000       32.256   0.100E-07
     TRS4 it   9 1.00000000   0.125E-11       0.000       32.256   0.100E-07
     Final TRS4 iteration    9 1.00000000   0.125E-11
     Chemical potential (mu):       0.00117
 
 PAO| energy:  -7.8042929514862669      penalty:   1.3968809292416917E-005
 PAO|CG| trace_G_new    3.6884272701031479E-002
 PAO|CG| trace_G_prev   0.17396377502941146     
 PAO|CG| trace_G_mix   -1.4400730493907745E-003
 PAO|CG| trace_D   0.17396377502941146     
 PAO|CG| trace_D_Gnew   1.4400730493907745E-003
 PAO|CG| beta:   0.22030072492933020     
 PAO| norm of gradient:  0.19205278623605407     
 PAO| energy improvement:  -1.9759441022167756E-002
 PAO| step      9                   -7.804292951  0.120E-01  0.229E+00     0.037
 PAO|LS| adapt:  T F F
 PAO|LS| adapt: scan_steps:    0.0000000000000000        0.0000000000000000        0.0000000000000000     
 PAO|LS| adapt: energies:   -7.8042929514862669        0.0000000000000000        0.0000000000000000     
 PAO| ======================= Iteration:        10 =============================

     Lanczos converged:  T threshold:   0.100E-02
     Est. extremal eigenvalues:    0.282E+01   0.171E+00
     Est. condition number :    0.165E+02

 Order=           3
     NS sqrt iter    1 1.00000000   0.718E+00       0.001       64.512
     NS sqrt iter    2 1.00000000   0.341E+00       0.001      110.592
     NS sqrt iter    3 1.00000000   0.832E-01       0.001      110.592
     NS sqrt iter    4 1.00000000   0.254E-02       0.001      110.592
     NS sqrt iter    5 1.00000000   0.152E-06       0.001       79.104
     Symmetrizing Results
     Final NS sqrt iter    5 1.00000000   0.988E-09

     Est. extremal eigenvalues     -0.93726     1.74532  converged:  T
     TRS4 it   1 1.00000000   0.886E+00       0.000       16.128   0.100E-07
     TRS4 it   2 1.00000000   0.633E+00       0.000       32.256   0.100E-07
     TRS4 it   3 1.00000000   0.436E+00       0.000       32.256   0.100E-07
     TRS4 it   4 1.00000000   0.229E+00       0.000       32.256   0.100E-07
     TRS4 it   5 1.00000000   0.782E-01       0.000       32.256   0.100E-07
     TRS4 it   6 1.00000000   0.115E-01       0.000       32.256   0.100E-07
     TRS4 it   7 1.00000000   0.332E-03       0.000       32.256   0.100E-07
     TRS4 it   8 1.00000000   0.388E-06       0.000       32.256   0.100E-07
     TRS4 it   9 1.00000000   0.646E-12       0.000       32.256   0.100E-07
     Final TRS4 iteration    9 1.00000000   0.646E-12
     Chemical potential (mu):       0.00437
 
 PAO| energy:  -7.8093273000478760      penalty:   1.4508440934725983E-005
 PAO|LS| adapt:  T T F
 PAO|LS| adapt: scan_steps:    0.0000000000000000       0.22945392132085377        0.0000000000000000     
 PAO|LS| adapt: energies:   -7.8042929514862669       -7.8093273000478760        0.0000000000000000     
 PAO| ======================= Iteration:        11 =============================

     Lanczos converged:  T threshold:   0.100E-02
     Est. extremal eigenvalues:    0.279E+01   0.177E+00
     Est. condition number :    0.158E+02

 Order=           3
     NS sqrt iter    1 1.00000000   0.710E+00       0.001       64.512
     NS sqrt iter    2 1.00000000   0.333E+00       0.001      110.592
     NS sqrt iter    3 1.00000000   0.778E-01       0.001      110.592
     NS sqrt iter    4 1.00000000   0.208E-02       0.001      110.592
     NS sqrt iter    5 1.00000000   0.828E-07       0.001       75.520
     Symmetrizing Results
     Final NS sqrt iter    5 1.00000000   0.661E-09

     Est. extremal eigenvalues     -0.93717     1.73761  converged:  T
     TRS4 it   1 1.00000000   0.883E+00       0.000       16.128   0.100E-07
     TRS4 it   2 1.00000000   0.631E+00       0.000       32.256   0.100E-07
     TRS4 it   3 1.00000000   0.433E+00       0.000       32.256   0.100E-07
     TRS4 it   4 1.00000000   0.226E+00       0.000       32.256   0.100E-07
     TRS4 it   5 1.00000000   0.758E-01       0.000       32.256   0.100E-07
     TRS4 it   6 1.00000000   0.107E-01       0.000       32.256   0.100E-07
     TRS4 it   7 1.00000000   0.285E-03       0.000       32.256   0.100E-07
     TRS4 it   8 1.00000000   0.277E-06       0.000       32.256   0.100E-07
     TRS4 it   9 1.00000000   0.322E-12       0.000       32.256   0.100E-07
     Final TRS4 iteration    9 1.00000000   0.322E-12
     Chemical potential (mu):       0.00771
 
 PAO| energy:  -7.8078938793339381      penalty:   1.5718094696220240E-005
 PAO|LS| adapt:  T T T
 PAO|LS| adapt: scan_steps:    0.0000000000000000       0.22945392132085377       0.45890784264170753     
 PAO|LS| adapt: energies:   -7.8042929514862669       -7.8093273000478760       -7.8078938793339381     
 PAO|LS| adapt: suggested step_size:   0.29332810883751753     
 PAO|LS| adapt: predicted energy  -7.8095779019326166     
 PAO| ======================= Iteration:        12 =============================

     Lanczos converged:  T threshold:   0.100E-02
     Est. extremal eigenvalues:    0.281E+01   0.173E+00
     Est. condition number :    0.163E+02

 Order=           3
     NS sqrt iter    1 1.00000000   0.715E+00       0.001       64.512
     NS sqrt iter    2 1.00000000   0.339E+00       0.001      110.592
     NS sqrt iter    3 1.00000000   0.816E-01       0.001      110.592
     NS sqrt iter    4 1.00000000   0.241E-02       0.001      110.592
     NS sqrt iter    5 1.00000000   0.129E-06       0.001       78.080
     Symmetrizing Results
     Final NS sqrt iter    5 1.00000000   0.127E-08

     Est. extremal eigenvalues     -0.93733     1.74306  converged:  T
     TRS4 it   1 1.00000000   0.885E+00       0.000       16.128   0.100E-07
     TRS4 it   2 1.00000000   0.632E+00       0.000       32.256   0.100E-07
     TRS4 it   3 1.00000000   0.435E+00       0.000       32.256   0.100E-07
     TRS4 it   4 1.00000000   0.228E+00       0.000       32.256   0.100E-07
     TRS4 it   5 1.00000000   0.775E-01       0.000       32.256   0.100E-07
     TRS4 it   6 1.00000000   0.113E-01       0.000       32.256   0.100E-07
     TRS4 it   7 1.00000000   0.318E-03       0.000       32.256   0.100E-07
     TRS4 it   8 1.00000000   0.353E-06       0.000       32.256   0.100E-07
     TRS4 it   9 1.00000000   0.533E-12       0.000       32.256   0.100E-07
     Final TRS4 iteration    9 1.00000000   0.533E-12
     Chemical potential (mu):       0.00529
 
 PAO| energy:  -7.8095617887351150      penalty:   1.4770264361856107E-005
 PAO|CG| trace_G_new    1.1808329439561428E-002
 PAO|CG| trace_G_prev    3.6884272701031479E-002
 PAO|CG| trace_G_mix   -4.6049001837069952E-004
 PAO|CG| trace_D    4.4692655578827831E-002
 PAO|CG| trace_D_Gnew   2.1107242743347108E-004
 PAO|CG| beta:   0.33263010382170360     
 PAO| norm of gradient:  0.10866613750180609     
 PAO| energy improvement:  -5.2688372488480795E-003
 PAO| step     12                   -7.809561789  0.679E-02  0.293E+00     0.037
 PAO|LS| adapt:  T F F
 PAO|LS| adapt: scan_steps:    0.0000000000000000        0.0000000000000000        0.0000000000000000     
 PAO|LS| adapt: energies:   -7.8095617887351150        0.0000000000000000        0.0000000000000000     
 PAO| ======================= Iteration:        13 =============================

     Lanczos converged:  T threshold:   0.100E-02
     Est. extremal eigenvalues:    0.278E+01   0.177E+00
     Est. condition number :    0.157E+02

 Order=           3
     NS sqrt iter    1 1.00000000   0.708E+00       0.001       64.512
     NS sqrt iter    2 1.00000000   0.332E+00       0.001      110.592
     NS sqrt iter    3 1.00000000   0.773E-01       0.001      110.592
     NS sqrt iter    4 1.00000000   0.206E-02       0.001      110.592
     NS sqrt iter    5 1.00000000   0.808E-07       0.001       75.392
     Symmetrizing Results
     Final NS sqrt iter    5 1.00000000   0.658E-09

     Est. extremal eigenvalues     -0.93781     1.73480  converged:  T
     TRS4 it   1 1.00000000   0.884E+00       0.000       16.128   0.100E-07
     TRS4 it   2 1.00000000   0.629E+00       0.000       32.256   0.100E-07
     TRS4 it   3 1.00000000   0.431E+00       0.000       32.256   0.100E-07
     TRS4 it   4 1.00000000   0.223E+00       0.000       32.256   0.100E-07
     TRS4 it   5 1.00000000   0.738E-01       0.000       32.256   0.100E-07
     TRS4 it   6 1.00000000   0.102E-01       0.000       32.256   0.100E-07
     TRS4 it   7 1.00000000   0.255E-03       0.000       32.256   0.100E-07
     TRS4 it   8 1.00000000   0.220E-06       0.000       32.256   0.100E-07
     TRS4 it   9 1.00000000   0.203E-12       0.000       32.256   0.100E-07
     Final TRS4 iteration    9 1.00000000   0.203E-12
     Chemical potential (mu):       0.00988
 
 PAO| energy:  -7.8116260317220707      penalty:   1.5075713812292000E-005
 PAO|LS| adapt:  T T F
 PAO|LS| adapt: scan_steps:    0.0000000000000000       0.29332810883751753        0.0000000000000000     
 PAO|LS| adapt: energies:   -7.8095617887351150       -7.8116260317220707        0.0000000000000000     
 PAO| ======================= Iteration:        14 =============================

     Lanczos converged:  T threshold:   0.100E-02
     Est. extremal eigenvalues:    0.275E+01   0.181E+00
     Est. condition number :    0.152E+02

 Order=           3
     NS sqrt iter    1 1.00000000   0.701E+00       0.001       64.512
     NS sqrt iter    2 1.00000000   0.325E+00       0.001      110.592
     NS sqrt iter    3 1.00000000   0.732E-01       0.001      110.592
     NS sqrt iter    4 1.00000000   0.176E-02       0.001      110.592
     NS sqrt iter    5 1.00000000   0.507E-07       0.001       71.936
     Symmetrizing Results
     Final NS sqrt iter    5 1.00000000   0.433E-09

     Est. extremal eigenvalues     -0.93779     1.72692  converged:  T
     TRS4 it   1 1.00000000   0.883E+00       0.000       16.128   0.100E-07
     TRS4 it   2 1.00000000   0.626E+00       0.000       32.256   0.100E-07
     TRS4 it   3 1.00000000   0.427E+00       0.000       32.256   0.100E-07
     TRS4 it   4 1.00000000   0.218E+00       0.000       32.256   0.100E-07
     TRS4 it   5 1.00000000   0.702E-01       0.000       32.256   0.100E-07
     TRS4 it   6 1.00000000   0.916E-02       0.000       32.256   0.100E-07
     TRS4 it   7 1.00000000   0.204E-03       0.000       32.256   0.100E-07
     TRS4 it   8 1.00000000   0.137E-06       0.000       32.256   0.100E-07
     TRS4 it   9 1.00000000   0.769E-13       0.000       32.256   0.100E-07
     Final TRS4 iteration    9 1.00000000   0.769E-13
     Chemical potential (mu):       0.01437
 
 PAO| energy:  -7.8109821011555729      penalty:   1.5858917685118623E-005
 PAO|LS| adapt:  T T T
 PAO|LS| adapt: scan_steps:    0.0000000000000000       0.29332810883751753       0.58665621767503506     
 PAO|LS| adapt: energies:   -7.8095617887351150       -7.8116260317220707       -7.8109821011555729     
 PAO|LS| adapt: suggested step_size:   0.37024665708197502     
 PAO|LS| adapt: predicted energy  -7.8117191427862203     
 PAO| ======================= Iteration:        15 =============================

     Lanczos converged:  T threshold:   0.100E-02
     Est. extremal eigenvalues:    0.277E+01   0.178E+00
     Est. condition number :    0.156E+02

 Order=           3
     NS sqrt iter    1 1.00000000   0.707E+00       0.001       64.512
     NS sqrt iter    2 1.00000000   0.330E+00       0.001      110.592
     NS sqrt iter    3 1.00000000   0.762E-01       0.001      110.592
     NS sqrt iter    4 1.00000000   0.197E-02       0.001      110.592
     NS sqrt iter    5 1.00000000   0.715E-07       0.001       74.624
     Symmetrizing Results
     Final NS sqrt iter    5 1.00000000   0.580E-09

     Est. extremal eigenvalues     -0.93786     1.73270  converged:  T
     TRS4 it   1 1.00000000   0.884E+00       0.000       16.128   0.100E-07
     TRS4 it   2 1.00000000   0.628E+00       0.000       32.256   0.100E-07
     TRS4 it   3 1.00000000   0.430E+00       0.000       32.256   0.100E-07
     TRS4 it   4 1.00000000   0.222E+00       0.000       32.256   0.100E-07
     TRS4 it   5 1.00000000   0.728E-01       0.000       32.256   0.100E-07
     TRS4 it   6 1.00000000   0.989E-02       0.000       32.256   0.100E-07
     TRS4 it   7 1.00000000   0.240E-03       0.000       32.256   0.100E-07
     TRS4 it   8 1.00000000   0.195E-06       0.000       32.256   0.100E-07
     TRS4 it   9 1.00000000   0.159E-12       0.000       32.256   0.100E-07
     Final TRS4 iteration    9 1.00000000   0.159E-12
     Chemical potential (mu):       0.01107
 
 PAO| energy:  -7.8117160890356532      penalty:   1.5231836497120551E-005
 PAO|CG| trace_G_new    2.6208247635610212E-003
 PAO|CG| trace_G_prev    1.1808329439561428E-002
 PAO|CG| trace_G_mix    6.4906007592559412E-005
 PAO|CG| trace_D    1.6612831278228574E-002
 PAO|CG| trace_D_Gnew   3.3921566921989025E-005
 PAO|CG| beta:   0.21645049530930016     
 PAO| norm of gradient:   5.1193991479088846E-002
 PAO| energy improvement:  -2.1543003005382033E-003
 PAO| step     15                   -7.811716089  0.320E-02  0.370E+00     0.037
 PAO|LS| adapt:  T F F
 PAO|LS| adapt: scan_steps:    0.0000000000000000        0.0000000000000000        0.0000000000000000     
 PAO|LS| adapt: energies:   -7.8117160890356532        0.0000000000000000        0.0000000000000000     
 PAO| ======================= Iteration:        16 =============================

     Lanczos converged:  T threshold:   0.100E-02
     Est. extremal eigenvalues:    0.276E+01   0.178E+00
     Est. condition number :    0.155E+02

 Order=           3
     NS sqrt iter    1 1.00000000   0.705E+00       0.001       64.512
     NS sqrt iter    2 1.00000000   0.329E+00       0.001      110.592
     NS sqrt iter    3 1.00000000   0.755E-01       0.001      110.592
     NS sqrt iter    4 1.00000000   0.192E-02       0.001      110.592
     NS sqrt iter    5 1.00000000   0.655E-07       0.001       74.112
     Symmetrizing Results
     Final NS sqrt iter    5 1.00000000   0.579E-09

     Est. extremal eigenvalues     -0.93788     1.73144  converged:  T
     TRS4 it   1 1.00000000   0.884E+00       0.000       16.128   0.100E-07
     TRS4 it   2 1.00000000   0.627E+00       0.000       32.256   0.100E-07
     TRS4 it   3 1.00000000   0.428E+00       0.000       32.256   0.100E-07
     TRS4 it   4 1.00000000   0.220E+00       0.000       32.256   0.100E-07
     TRS4 it   5 1.00000000   0.716E-01       0.000       32.256   0.100E-07
     TRS4 it   6 1.00000000   0.957E-02       0.000       32.256   0.100E-07
     TRS4 it   7 1.00000000   0.226E-03       0.000       32.256   0.100E-07
     TRS4 it   8 1.00000000   0.174E-06       0.000       32.256   0.100E-07
     TRS4 it   9 1.00000000   0.127E-12       0.000       32.256   0.100E-07
     Final TRS4 iteration    9 1.00000000   0.127E-12
     Chemical potential (mu):       0.01192
 
 PAO| energy:  -7.8118426072240430      penalty:   1.5013073116082658E-005
 PAO|LS| adapt:  T T F
 PAO|LS| adapt: scan_steps:    0.0000000000000000       0.37024665708197502        0.0000000000000000     
 PAO|LS| adapt: energies:   -7.8117160890356532       -7.8118426072240430        0.0000000000000000     
 PAO| ======================= Iteration:        17 =============================

     Lanczos converged:  T threshold:   0.100E-02
     Est. extremal eigenvalues:    0.275E+01   0.179E+00
     Est. condition number :    0.154E+02

 Order=           3
     NS sqrt iter    1 1.00000000   0.703E+00       0.001       64.512
     NS sqrt iter    2 1.00000000   0.328E+00       0.001      110.592
     NS sqrt iter    3 1.00000000   0.749E-01       0.001      110.592
     NS sqrt iter    4 1.00000000   0.186E-02       0.001      110.592
     NS sqrt iter    5 1.00000000   0.600E-07       0.001       73.984
     Symmetrizing Results
     Final NS sqrt iter    5 1.00000000   0.552E-09

     Est. extremal eigenvalues     -0.93779     1.73024  converged:  T
     TRS4 it   1 1.00000000   0.884E+00       0.000       16.128   0.100E-07
     TRS4 it   2 1.00000000   0.626E+00       0.000       32.256   0.100E-07
     TRS4 it   3 1.00000000   0.427E+00       0.000       32.256   0.100E-07
     TRS4 it   4 1.00000000   0.218E+00       0.000       32.256   0.100E-07
     TRS4 it   5 1.00000000   0.704E-01       0.000       32.256   0.100E-07
     TRS4 it   6 1.00000000   0.926E-02       0.000       32.256   0.100E-07
     TRS4 it   7 1.00000000   0.213E-03       0.000       32.256   0.100E-07
     TRS4 it   8 1.00000000   0.156E-06       0.000       32.256   0.100E-07
     TRS4 it   9 1.00000000   0.102E-12       0.000       32.256   0.100E-07
     Final TRS4 iteration    9 1.00000000   0.102E-12
     Chemical potential (mu):       0.01274
 
 PAO| energy:  -7.8102813622477827      penalty:   1.4920044718100443E-005
 PAO|LS| adapt:  T T T
 PAO|LS| adapt: scan_steps:    0.0000000000000000       0.37024665708197502       0.74049331416395003     
 PAO|LS| adapt: energies:   -7.8117160890356532       -7.8118426072240430       -7.8102813622477827     
 PAO|LS| adapt: suggested step_size:   0.21287777732415553     
 PAO|LS| adapt: predicted energy  -7.8119950605568729     
 PAO| ======================= Iteration:        18 =============================

     Lanczos converged:  T threshold:   0.100E-02
     Est. extremal eigenvalues:    0.277E+01   0.178E+00
     Est. condition number :    0.155E+02

 Order=           3
     NS sqrt iter    1 1.00000000   0.706E+00       0.001       64.512
     NS sqrt iter    2 1.00000000   0.330E+00       0.001      110.592
     NS sqrt iter    3 1.00000000   0.758E-01       0.001      110.592
     NS sqrt iter    4 1.00000000   0.194E-02       0.001      110.592
     NS sqrt iter    5 1.00000000   0.680E-07       0.001       74.496
     Symmetrizing Results
     Final NS sqrt iter    5 1.00000000   0.582E-09

     Est. extremal eigenvalues     -0.93789     1.73197  converged:  T
     TRS4 it   1 1.00000000   0.884E+00       0.000       16.128   0.100E-07
     TRS4 it   2 1.00000000   0.627E+00       0.000       32.256   0.100E-07
     TRS4 it   3 1.00000000   0.429E+00       0.000       32.256   0.100E-07
     TRS4 it   4 1.00000000   0.221E+00       0.000       32.256   0.100E-07
     TRS4 it   5 1.00000000   0.721E-01       0.000       32.256   0.100E-07
     TRS4 it   6 1.00000000   0.971E-02       0.000       32.256   0.100E-07
     TRS4 it   7 1.00000000   0.232E-03       0.000       32.256   0.100E-07
     TRS4 it   8 1.00000000   0.183E-06       0.000       32.256   0.100E-07
     TRS4 it   9 1.00000000   0.140E-12       0.000       32.256   0.100E-07
     Final TRS4 iteration    9 1.00000000   0.140E-12
     Chemical potential (mu):       0.01156
 
 PAO| energy:  -7.8119946065289820      penalty:   1.5090968209918863E-005
 PAO|CG| trace_G_new    7.2658806418279842E-004
 PAO|CG| trace_G_prev    2.6208247635610212E-003
 PAO|CG| trace_G_mix    1.4398822105131830E-006
 PAO|CG| trace_D    3.3844648003703353E-003
 PAO|CG| trace_D_Gnew  -1.7343748950998634E-006
 PAO|CG| beta:   0.27668701549774616     
 PAO| norm of gradient:   2.6955297516124702E-002
 PAO| energy improvement:  -2.7851749332885589E-004
 PAO| step     18                   -7.811994607  0.168E-02  0.213E+00     0.037
 PAO|LS| adapt:  T F F
 PAO|LS| adapt: scan_steps:    0.0000000000000000        0.0000000000000000        0.0000000000000000     
 PAO|LS| adapt: energies:   -7.8119946065289820        0.0000000000000000        0.0000000000000000     
 PAO| ======================= Iteration:        19 =============================

     Lanczos converged:  T threshold:   0.100E-02
     Est. extremal eigenvalues:    0.277E+01   0.178E+00
     Est. condition number :    0.155E+02

 Order=           3
     NS sqrt iter    1 1.00000000   0.705E+00       0.001       64.512
     NS sqrt iter    2 1.00000000   0.330E+00       0.001      110.592
     NS sqrt iter    3 1.00000000   0.760E-01       0.001      110.592
     NS sqrt iter    4 1.00000000   0.195E-02       0.001      110.592
     NS sqrt iter    5 1.00000000   0.688E-07       0.001       74.368
     Symmetrizing Results
     Final NS sqrt iter    5 1.00000000   0.596E-09

     Est. extremal eigenvalues     -0.93789     1.73203  converged:  T
     TRS4 it   1 1.00000000   0.884E+00       0.000       16.128   0.100E-07
     TRS4 it   2 1.00000000   0.627E+00       0.000       32.256   0.100E-07
     TRS4 it   3 1.00000000   0.429E+00       0.000       32.256   0.100E-07
     TRS4 it   4 1.00000000   0.220E+00       0.000       32.256   0.100E-07
     TRS4 it   5 1.00000000   0.720E-01       0.000       32.256   0.100E-07
     TRS4 it   6 1.00000000   0.969E-02       0.000       32.256   0.100E-07
     TRS4 it   7 1.00000000   0.233E-03       0.000       32.256   0.100E-07
     TRS4 it   8 1.00000000   0.185E-06       0.000       32.256   0.100E-07
     TRS4 it   9 1.00000000   0.144E-12       0.000       32.256   0.100E-07
     Final TRS4 iteration    9 1.00000000   0.144E-12
     Chemical potential (mu):       0.01127
 
 PAO| energy:  -7.8121126723237806      penalty:   1.4801725259110473E-005
 PAO|LS| adapt:  T T F
 PAO|LS| adapt: scan_steps:    0.0000000000000000       0.21287777732415553        0.0000000000000000     
 PAO|LS| adapt: energies:   -7.8119946065289820       -7.8121126723237806        0.0000000000000000     
 PAO| ======================= Iteration:        20 =============================

     Lanczos converged:  T threshold:   0.100E-02
     Est. extremal eigenvalues:    0.277E+01   0.178E+00
     Est. condition number :    0.156E+02

 Order=           3
     NS sqrt iter    1 1.00000000   0.705E+00       0.001       64.512
     NS sqrt iter    2 1.00000000   0.330E+00       0.001      110.592
     NS sqrt iter    3 1.00000000   0.762E-01       0.001      110.592
     NS sqrt iter    4 1.00000000   0.196E-02       0.001      110.592
     NS sqrt iter    5 1.00000000   0.696E-07       0.001       74.624
     Symmetrizing Results
     Final NS sqrt iter    5 1.00000000   0.580E-09

     Est. extremal eigenvalues     -0.93789     1.73209  converged:  T
     TRS4 it   1 1.00000000   0.884E+00       0.000       16.128   0.100E-07
     TRS4 it   2 1.00000000   0.627E+00       0.000       32.256   0.100E-07
     TRS4 it   3 1.00000000   0.429E+00       0.000       32.256   0.100E-07
     TRS4 it   4 1.00000000   0.220E+00       0.000       32.256   0.100E-07
     TRS4 it   5 1.00000000   0.719E-01       0.000       32.256   0.100E-07
     TRS4 it   6 1.00000000   0.968E-02       0.000       32.256   0.100E-07
     TRS4 it   7 1.00000000   0.233E-03       0.000       32.256   0.100E-07
     TRS4 it   8 1.00000000   0.187E-06       0.000       32.256   0.100E-07
     TRS4 it   9 1.00000000   0.149E-12       0.000       32.256   0.100E-07
     Final TRS4 iteration    9 1.00000000   0.149E-12
     Chemical potential (mu):       0.01099
 
 PAO| energy:  -7.8121569212692457      penalty:   1.4524955748074026E-005
 PAO|LS| adapt:  T T F
 PAO|LS| adapt: scan_steps:    0.0000000000000000       0.42575555464831105        0.0000000000000000     
 PAO|LS| adapt: energies:   -7.8119946065289820       -7.8121569212692457        0.0000000000000000     
 PAO| ======================= Iteration:        21 =============================

     Lanczos converged:  T threshold:   0.100E-02
     Est. extremal eigenvalues:    0.277E+01   0.178E+00
     Est. condition number :    0.156E+02

 Order=           3
     NS sqrt iter    1 1.00000000   0.705E+00       0.001       64.512
     NS sqrt iter    2 1.00000000   0.330E+00       0.001      110.592
     NS sqrt iter    3 1.00000000   0.767E-01       0.001      110.592
     NS sqrt iter    4 1.00000000   0.198E-02       0.001      110.592
     NS sqrt iter    5 1.00000000   0.714E-07       0.001       74.752
     Symmetrizing Results
     Final NS sqrt iter    5 1.00000000   0.606E-09

     Est. extremal eigenvalues     -0.93788     1.73223  converged:  T
     TRS4 it   1 1.00000000   0.884E+00       0.000       16.128   0.100E-07
     TRS4 it   2 1.00000000   0.627E+00       0.000       32.256   0.100E-07
     TRS4 it   3 1.00000000   0.428E+00       0.000       32.256   0.100E-07
     TRS4 it   4 1.00000000   0.220E+00       0.000       32.256   0.100E-07
     TRS4 it   5 1.00000000   0.717E-01       0.000       32.256   0.100E-07
     TRS4 it   6 1.00000000   0.966E-02       0.000       32.256   0.100E-07
     TRS4 it   7 1.00000000   0.234E-03       0.000       32.256   0.100E-07
     TRS4 it   8 1.00000000   0.193E-06       0.000       32.256   0.100E-07
     TRS4 it   9 1.00000000   0.160E-12       0.000       32.256   0.100E-07
     Final TRS4 iteration    9 1.00000000   0.160E-12
     Chemical potential (mu):       0.01040
 
 PAO| energy:  -7.8120216128752462      penalty:   1.4008253670456086E-005
 PAO|LS| Need extra step
 PAO|LS| adapt:  T T T
 PAO|LS| adapt: scan_steps:    0.0000000000000000       0.42575555464831105       0.85151110929662210     
 PAO|LS| adapt: energies:   -7.8119946065289820       -7.8121569212692457       -7.8120216128752462     
 PAO|LS| adapt: suggested step_size:   0.44507210065741115     
 PAO|LS| adapt: predicted energy  -7.8121572275889894     
 PAO| ======================= Iteration:        22 =============================

     Lanczos converged:  T threshold:   0.100E-02
     Est. extremal eigenvalues:    0.277E+01   0.178E+00
     Est. condition number :    0.156E+02

 Order=           3
     NS sqrt iter    1 1.00000000   0.705E+00       0.001       64.512
     NS sqrt iter    2 1.00000000   0.330E+00       0.001      110.592
     NS sqrt iter    3 1.00000000   0.763E-01       0.001      110.592
     NS sqrt iter    4 1.00000000   0.196E-02       0.001      110.592
     NS sqrt iter    5 1.00000000   0.697E-07       0.001       74.624
     Symmetrizing Results
     Final NS sqrt iter    5 1.00000000   0.581E-09

     Est. extremal eigenvalues     -0.93789     1.73210  converged:  T
     TRS4 it   1 1.00000000   0.884E+00       0.000       16.128   0.100E-07
     TRS4 it   2 1.00000000   0.627E+00       0.000       32.256   0.100E-07
     TRS4 it   3 1.00000000   0.429E+00       0.000       32.256   0.100E-07
     TRS4 it   4 1.00000000   0.220E+00       0.000       32.256   0.100E-07
     TRS4 it   5 1.00000000   0.719E-01       0.000       32.256   0.100E-07
     TRS4 it   6 1.00000000   0.968E-02       0.000       32.256   0.100E-07
     TRS4 it   7 1.00000000   0.233E-03       0.000       32.256   0.100E-07
     TRS4 it   8 1.00000000   0.188E-06       0.000       32.256   0.100E-07
     TRS4 it   9 1.00000000   0.149E-12       0.000       32.256   0.100E-07
     Final TRS4 iteration    9 1.00000000   0.149E-12
     Chemical potential (mu):       0.01096
 
 PAO| energy:  -7.8121572633342975      penalty:   1.4500452790713135E-005
 PAO|CG| trace_G_new    2.2319856535350213E-004
 PAO|CG| trace_G_prev    7.2658806418279842E-004
 PAO|CG| trace_G_mix    2.9609838860232421E-006
 PAO|CG| trace_D    9.8664790951003022E-004
 PAO|CG| trace_D_Gnew  -1.8431065404698557E-006
 PAO|CG| beta:   0.30311202774185747     
 PAO| norm of gradient:   1.4939831503517773E-002
 PAO| energy improvement:  -1.6265680531546423E-004
 PAO| step     22                   -7.812157263  0.934E-03  0.445E+00     0.047
 PAO|LS| adapt:  T F F
 PAO|LS| adapt: scan_steps:    0.0000000000000000        0.0000000000000000        0.0000000000000000     
 PAO|LS| adapt: energies:   -7.8121572633342975        0.0000000000000000        0.0000000000000000     
 PAO| ======================= Iteration:        23 =============================

     Lanczos converged:  T threshold:   0.100E-02
     Est. extremal eigenvalues:    0.277E+01   0.178E+00
     Est. condition number :    0.156E+02

 Order=           3
     NS sqrt iter    1 1.00000000   0.705E+00       0.001       64.512
     NS sqrt iter    2 1.00000000   0.330E+00       0.001      110.592
     NS sqrt iter    3 1.00000000   0.763E-01       0.001      110.592
     NS sqrt iter    4 1.00000000   0.196E-02       0.001      110.592
     NS sqrt iter    5 1.00000000   0.695E-07       0.001       74.624
     Symmetrizing Results
     Final NS sqrt iter    5 1.00000000   0.586E-09

     Est. extremal eigenvalues     -0.93789     1.73153  converged:  T
     TRS4 it   1 1.00000000   0.884E+00       0.000       16.128   0.100E-07
     TRS4 it   2 1.00000000   0.627E+00       0.000       32.256   0.100E-07
     TRS4 it   3 1.00000000   0.429E+00       0.000       32.256   0.100E-07
     TRS4 it   4 1.00000000   0.220E+00       0.000       32.256   0.100E-07
     TRS4 it   5 1.00000000   0.720E-01       0.000       32.256   0.100E-07
     TRS4 it   6 1.00000000   0.971E-02       0.000       32.256   0.100E-07
     TRS4 it   7 1.00000000   0.235E-03       0.000       32.256   0.100E-07
     TRS4 it   8 1.00000000   0.192E-06       0.000       32.256   0.100E-07
     TRS4 it   9 1.00000000   0.157E-12       0.000       32.256   0.100E-07
     Final TRS4 iteration    9 1.00000000   0.157E-12
     Chemical potential (mu):       0.01062
 
 PAO| energy:  -7.8122070676112108      penalty:   1.3817669355746282E-005
 PAO|LS| adapt:  T T F
 PAO|LS| adapt: scan_steps:    0.0000000000000000       0.44507210065741115        0.0000000000000000     
 PAO|LS| adapt: energies:   -7.8121572633342975       -7.8122070676112108        0.0000000000000000     
 PAO| ======================= Iteration:        24 =============================

     Lanczos converged:  T threshold:   0.100E-02
     Est. extremal eigenvalues:    0.277E+01   0.178E+00
     Est. condition number :    0.156E+02

 Order=           3
     NS sqrt iter    1 1.00000000   0.705E+00       0.001       64.512
     NS sqrt iter    2 1.00000000   0.330E+00       0.001      110.592
     NS sqrt iter    3 1.00000000   0.763E-01       0.001      110.592
     NS sqrt iter    4 1.00000000   0.196E-02       0.001      110.592
     NS sqrt iter    5 1.00000000   0.694E-07       0.001       74.624
     Symmetrizing Results
     Final NS sqrt iter    5 1.00000000   0.592E-09

     Est. extremal eigenvalues     -0.93788     1.73095  converged:  T
     TRS4 it   1 1.00000000   0.883E+00       0.000       16.128   0.100E-07
     TRS4 it   2 1.00000000   0.627E+00       0.000       32.256   0.100E-07
     TRS4 it   3 1.00000000   0.429E+00       0.000       32.256   0.100E-07
     TRS4 it   4 1.00000000   0.220E+00       0.000       32.256   0.100E-07
     TRS4 it   5 1.00000000   0.720E-01       0.000       32.256   0.100E-07
     TRS4 it   6 1.00000000   0.975E-02       0.000       32.256   0.100E-07
     TRS4 it   7 1.00000000   0.238E-03       0.000       32.256   0.100E-07
     TRS4 it   8 1.00000000   0.196E-06       0.000       32.256   0.100E-07
     TRS4 it   9 1.00000000   0.164E-12       0.000       32.256   0.100E-07
     Final TRS4 iteration    9 1.00000000   0.164E-12
     Chemical potential (mu):       0.01029
 
 PAO| energy:  -7.8121566726033844      penalty:   1.3163440259867112E-005
 PAO|LS| adapt:  T T T
 PAO|LS| adapt: scan_steps:    0.0000000000000000       0.44507210065741115       0.89014420131482230     
 PAO|LS| adapt: energies:   -7.8121572633342975       -7.8122070676112108       -7.8121566726033844     
 PAO|LS| adapt: suggested step_size:   0.44376012598070175     
 PAO|LS| adapt: predicted energy  -7.8122070680465470     
 PAO| ======================= Iteration:        25 =============================

     Lanczos converged:  T threshold:   0.100E-02
     Est. extremal eigenvalues:    0.277E+01   0.178E+00
     Est. condition number :    0.156E+02

 Order=           3
     NS sqrt iter    1 1.00000000   0.705E+00       0.001       64.512
     NS sqrt iter    2 1.00000000   0.330E+00       0.001      110.592
     NS sqrt iter    3 1.00000000   0.763E-01       0.001      110.592
     NS sqrt iter    4 1.00000000   0.196E-02       0.001      110.592
     NS sqrt iter    5 1.00000000   0.695E-07       0.001       74.624
     Symmetrizing Results
     Final NS sqrt iter    5 1.00000000   0.586E-09

     Est. extremal eigenvalues     -0.93789     1.73153  converged:  T
     TRS4 it   1 1.00000000   0.884E+00       0.000       16.128   0.100E-07
     TRS4 it   2 1.00000000   0.627E+00       0.000       32.256   0.100E-07
     TRS4 it   3 1.00000000   0.429E+00       0.000       32.256   0.100E-07
     TRS4 it   4 1.00000000   0.220E+00       0.000       32.256   0.100E-07
     TRS4 it   5 1.00000000   0.720E-01       0.000       32.256   0.100E-07
     TRS4 it   6 1.00000000   0.971E-02       0.000       32.256   0.100E-07
     TRS4 it   7 1.00000000   0.235E-03       0.000       32.256   0.100E-07
     TRS4 it   8 1.00000000   0.192E-06       0.000       32.256   0.100E-07
     TRS4 it   9 1.00000000   0.155E-12       0.000       32.256   0.100E-07
     Final TRS4 iteration    9 1.00000000   0.155E-12
     Chemical potential (mu):       0.01062
 
 PAO| energy:  -7.8122070675809674      penalty:   1.3819639783182276E-005
 PAO|CG| trace_G_new    8.0453259699766788E-005
 PAO|CG| trace_G_prev    2.2319856535350213E-004
 PAO|CG| trace_G_mix    7.0292973967341582E-007
 PAO|CG| trace_D    3.1496605353601445E-004
 PAO|CG| trace_D_Gnew  -3.5492039162592743E-007
 PAO|CG| beta:   0.35730664233340709     
 PAO| norm of gradient:   8.9695741091629748E-003
 PAO| energy improvement:  -4.9804246669893359E-005
 PAO| step     25                   -7.812207068  0.561E-03  0.444E+00     0.037
 PAO|LS| adapt:  T F F
 PAO|LS| adapt: scan_steps:    0.0000000000000000        0.0000000000000000        0.0000000000000000     
 PAO|LS| adapt: energies:   -7.8122070675809674        0.0000000000000000        0.0000000000000000     
 PAO| ======================= Iteration:        26 =============================

     Lanczos converged:  T threshold:   0.100E-02
     Est. extremal eigenvalues:    0.277E+01   0.178E+00
     Est. condition number :    0.155E+02

 Order=           3
     NS sqrt iter    1 1.00000000   0.705E+00       0.001       64.512
     NS sqrt iter    2 1.00000000   0.330E+00       0.001      110.592
     NS sqrt iter    3 1.00000000   0.762E-01       0.001      110.592
     NS sqrt iter    4 1.00000000   0.195E-02       0.001      110.592
     NS sqrt iter    5 1.00000000   0.686E-07       0.001       74.496
     Symmetrizing Results
     Final NS sqrt iter    5 1.00000000   0.584E-09

     Est. extremal eigenvalues     -0.93789     1.73072  converged:  T
     TRS4 it   1 1.00000000   0.883E+00       0.000       16.128   0.100E-07
     TRS4 it   2 1.00000000   0.627E+00       0.000       32.256   0.100E-07
     TRS4 it   3 1.00000000   0.428E+00       0.000       32.256   0.100E-07
     TRS4 it   4 1.00000000   0.220E+00       0.000       32.256   0.100E-07
     TRS4 it   5 1.00000000   0.718E-01       0.000       32.256   0.100E-07
     TRS4 it   6 1.00000000   0.968E-02       0.000       32.256   0.100E-07
     TRS4 it   7 1.00000000   0.234E-03       0.000       32.256   0.100E-07
     TRS4 it   8 1.00000000   0.189E-06       0.000       32.256   0.100E-07
     TRS4 it   9 1.00000000   0.152E-12       0.000       32.256   0.100E-07
     Final TRS4 iteration    9 1.00000000   0.152E-12
     Chemical potential (mu):       0.01073
 
 PAO| energy:  -7.8122111063728816      penalty:   1.3093539235153076E-005
 PAO|LS| adapt:  T T F
 PAO|LS| adapt: scan_steps:    0.0000000000000000       0.44376012598070175        0.0000000000000000     
 PAO|LS| adapt: energies:   -7.8122070675809674       -7.8122111063728816        0.0000000000000000     
 PAO| ======================= Iteration:        27 =============================

     Lanczos converged:  T threshold:   0.100E-02
     Est. extremal eigenvalues:    0.277E+01   0.178E+00
     Est. condition number :    0.155E+02

 Order=           3
     NS sqrt iter    1 1.00000000   0.705E+00       0.001       64.512
     NS sqrt iter    2 1.00000000   0.330E+00       0.001      110.592
     NS sqrt iter    3 1.00000000   0.761E-01       0.001      110.592
     NS sqrt iter    4 1.00000000   0.194E-02       0.001      110.592
     NS sqrt iter    5 1.00000000   0.676E-07       0.001       74.240
     Symmetrizing Results
     Final NS sqrt iter    5 1.00000000   0.590E-09

     Est. extremal eigenvalues     -0.93789     1.72992  converged:  T
     TRS4 it   1 1.00000000   0.883E+00       0.000       16.128   0.100E-07
     TRS4 it   2 1.00000000   0.627E+00       0.000       32.256   0.100E-07
     TRS4 it   3 1.00000000   0.428E+00       0.000       32.256   0.100E-07
     TRS4 it   4 1.00000000   0.220E+00       0.000       32.256   0.100E-07
     TRS4 it   5 1.00000000   0.717E-01       0.000       32.256   0.100E-07
     TRS4 it   6 1.00000000   0.965E-02       0.000       32.256   0.100E-07
     TRS4 it   7 1.00000000   0.232E-03       0.000       32.256   0.100E-07
     TRS4 it   8 1.00000000   0.186E-06       0.000       32.256   0.100E-07
     TRS4 it   9 1.00000000   0.146E-12       0.000       32.256   0.100E-07
     Final TRS4 iteration    9 1.00000000   0.146E-12
     Chemical potential (mu):       0.01084
 
 PAO| energy:  -7.8121516006481286      penalty:   1.2391438169549469E-005
 PAO|LS| adapt:  T T T
 PAO|LS| adapt: scan_steps:    0.0000000000000000       0.44376012598070175       0.88752025196140349     
 PAO|LS| adapt: energies:   -7.8122070675809674       -7.8122111063728816       -7.8121516006481286     
 PAO|LS| adapt: suggested step_size:   0.25008477525622080     
 PAO|LS| adapt: predicted energy  -7.8122171583912152     
 PAO| ======================= Iteration:        28 =============================

     Lanczos converged:  T threshold:   0.100E-02
     Est. extremal eigenvalues:    0.277E+01   0.178E+00
     Est. condition number :    0.155E+02

 Order=           3
     NS sqrt iter    1 1.00000000   0.705E+00       0.001       64.512
     NS sqrt iter    2 1.00000000   0.330E+00       0.001      110.592
     NS sqrt iter    3 1.00000000   0.762E-01       0.001      110.592
     NS sqrt iter    4 1.00000000   0.196E-02       0.001      110.592
     NS sqrt iter    5 1.00000000   0.690E-07       0.001       74.624
     Symmetrizing Results
     Final NS sqrt iter    5 1.00000000   0.583E-09

     Est. extremal eigenvalues     -0.93789     1.73108  converged:  T
     TRS4 it   1 1.00000000   0.883E+00       0.000       16.128   0.100E-07
     TRS4 it   2 1.00000000   0.627E+00       0.000       32.256   0.100E-07
     TRS4 it   3 1.00000000   0.429E+00       0.000       32.256   0.100E-07
     TRS4 it   4 1.00000000   0.220E+00       0.000       32.256   0.100E-07
     TRS4 it   5 1.00000000   0.719E-01       0.000       32.256   0.100E-07
     TRS4 it   6 1.00000000   0.970E-02       0.000       32.256   0.100E-07
     TRS4 it   7 1.00000000   0.235E-03       0.000       32.256   0.100E-07
     TRS4 it   8 1.00000000   0.190E-06       0.000       32.256   0.100E-07
     TRS4 it   9 1.00000000   0.154E-12       0.000       32.256   0.100E-07
     Final TRS4 iteration    9 1.00000000   0.154E-12
     Chemical potential (mu):       0.01069
 
 PAO| energy:  -7.8122171490770080      penalty:   1.3407468523299954E-005
 PAO|CG| trace_G_new    3.2427182798567346E-005
 PAO|CG| trace_G_prev    8.0453259699766788E-005
 PAO|CG| trace_G_mix    5.0979085514521971E-008
 PAO|CG| trace_D    1.2091798819471899E-004
 PAO|CG| trace_D_Gnew  -2.5575590616597619E-008
 PAO|CG| beta:   0.40242252251647020     
 PAO| norm of gradient:   5.6944870531565302E-003
 PAO| energy improvement:  -1.0081496040648119E-005
 PAO| step     28                   -7.812217149  0.356E-03  0.250E+00     0.037
 PAO|LS| adapt:  T F F
 PAO|LS| adapt: scan_steps:    0.0000000000000000        0.0000000000000000        0.0000000000000000     
 PAO|LS| adapt: energies:   -7.8122171490770080        0.0000000000000000        0.0000000000000000     
 PAO| ======================= Iteration:        29 =============================

     Lanczos converged:  T threshold:   0.100E-02
     Est. extremal eigenvalues:    0.277E+01   0.178E+00
     Est. condition number :    0.155E+02

 Order=           3
     NS sqrt iter    1 1.00000000   0.705E+00       0.001       64.512
     NS sqrt iter    2 1.00000000   0.330E+00       0.001      110.592
     NS sqrt iter    3 1.00000000   0.762E-01       0.001      110.592
     NS sqrt iter    4 1.00000000   0.195E-02       0.001      110.592
     NS sqrt iter    5 1.00000000   0.685E-07       0.001       74.496
     Symmetrizing Results
     Final NS sqrt iter    5 1.00000000   0.584E-09

     Est. extremal eigenvalues     -0.93789     1.73077  converged:  T
     TRS4 it   1 1.00000000   0.883E+00       0.000       16.128   0.100E-07
     TRS4 it   2 1.00000000   0.627E+00       0.000       32.256   0.100E-07
     TRS4 it   3 1.00000000   0.428E+00       0.000       32.256   0.100E-07
     TRS4 it   4 1.00000000   0.220E+00       0.000       32.256   0.100E-07
     TRS4 it   5 1.00000000   0.718E-01       0.000       32.256   0.100E-07
     TRS4 it   6 1.00000000   0.967E-02       0.000       32.256   0.100E-07
     TRS4 it   7 1.00000000   0.233E-03       0.000       32.256   0.100E-07
     TRS4 it   8 1.00000000   0.188E-06       0.000       32.256   0.100E-07
     TRS4 it   9 1.00000000   0.149E-12       0.000       32.256   0.100E-07
     Final TRS4 iteration    9 1.00000000   0.149E-12
     Chemical potential (mu):       0.01081
 
 PAO| energy:  -7.8122242825288781      penalty:   1.2973813126168690E-005
 PAO|LS| adapt:  T T F
 PAO|LS| adapt: scan_steps:    0.0000000000000000       0.25008477525622080        0.0000000000000000     
 PAO|LS| adapt: energies:   -7.8122171490770080       -7.8122242825288781        0.0000000000000000     
 PAO| ======================= Iteration:        30 =============================

     Lanczos converged:  T threshold:   0.100E-02
     Est. extremal eigenvalues:    0.277E+01   0.178E+00
     Est. condition number :    0.155E+02

 Order=           3
     NS sqrt iter    1 1.00000000   0.705E+00       0.001       64.512
     NS sqrt iter    2 1.00000000   0.330E+00       0.001      110.592
     NS sqrt iter    3 1.00000000   0.761E-01       0.001      110.592
     NS sqrt iter    4 1.00000000   0.195E-02       0.001      110.592
     NS sqrt iter    5 1.00000000   0.681E-07       0.001       74.368
     Symmetrizing Results
     Final NS sqrt iter    5 1.00000000   0.590E-09

     Est. extremal eigenvalues     -0.93789     1.73047  converged:  T
     TRS4 it   1 1.00000000   0.883E+00       0.000       16.128   0.100E-07
     TRS4 it   2 1.00000000   0.627E+00       0.000       32.256   0.100E-07
     TRS4 it   3 1.00000000   0.428E+00       0.000       32.256   0.100E-07
     TRS4 it   4 1.00000000   0.220E+00       0.000       32.256   0.100E-07
     TRS4 it   5 1.00000000   0.717E-01       0.000       32.256   0.100E-07
     TRS4 it   6 1.00000000   0.964E-02       0.000       32.256   0.100E-07
     TRS4 it   7 1.00000000   0.232E-03       0.000       32.256   0.100E-07
     TRS4 it   8 1.00000000   0.185E-06       0.000       32.256   0.100E-07
     TRS4 it   9 1.00000000   0.146E-12       0.000       32.256   0.100E-07
     Final TRS4 iteration    9 1.00000000   0.146E-12
     Chemical potential (mu):       0.01094
 
 PAO| energy:  -7.8122294590315642      penalty:   1.2548117633423548E-005
 PAO|LS| adapt:  T T F
 PAO|LS| adapt: scan_steps:    0.0000000000000000       0.50016955051244161        0.0000000000000000     
 PAO|LS| adapt: energies:   -7.8122171490770080       -7.8122294590315642        0.0000000000000000     
 PAO| ======================= Iteration:        31 =============================

     Lanczos converged:  T threshold:   0.100E-02
     Est. extremal eigenvalues:    0.276E+01   0.178E+00
     Est. condition number :    0.155E+02

 Order=           3
     NS sqrt iter    1 1.00000000   0.704E+00       0.001       64.512
     NS sqrt iter    2 1.00000000   0.329E+00       0.001      110.592
     NS sqrt iter    3 1.00000000   0.760E-01       0.001      110.592
     NS sqrt iter    4 1.00000000   0.194E-02       0.001      110.592
     NS sqrt iter    5 1.00000000   0.673E-07       0.001       74.240
     Symmetrizing Results
     Final NS sqrt iter    5 1.00000000   0.587E-09

     Est. extremal eigenvalues     -0.93789     1.72986  converged:  T
     TRS4 it   1 1.00000000   0.883E+00       0.000       16.128   0.100E-07
     TRS4 it   2 1.00000000   0.627E+00       0.000       32.256   0.100E-07
     TRS4 it   3 1.00000000   0.428E+00       0.000       32.256   0.100E-07
     TRS4 it   4 1.00000000   0.219E+00       0.000       32.256   0.100E-07
     TRS4 it   5 1.00000000   0.715E-01       0.000       32.256   0.100E-07
     TRS4 it   6 1.00000000   0.959E-02       0.000       32.256   0.100E-07
     TRS4 it   7 1.00000000   0.229E-03       0.000       32.256   0.100E-07
     TRS4 it   8 1.00000000   0.180E-06       0.000       32.256   0.100E-07
     TRS4 it   9 1.00000000   0.138E-12       0.000       32.256   0.100E-07
     Final TRS4 iteration    9 1.00000000   0.138E-12
     Chemical potential (mu):       0.01119
 
 PAO| energy:  -7.8122339427145464      penalty:   1.1720442032524714E-005
 PAO|LS| Need extra step
 PAO|LS| adapt:  T T F
 PAO|LS| adapt: scan_steps:    0.0000000000000000        1.0003391010248832        0.0000000000000000     
 PAO|LS| adapt: energies:   -7.8122171490770080       -7.8122339427145464        0.0000000000000000     
 PAO| ======================= Iteration:        32 =============================

     Lanczos converged:  T threshold:   0.100E-02
     Est. extremal eigenvalues:    0.276E+01   0.178E+00
     Est. condition number :    0.155E+02

 Order=           3
[...]
     TRS4 it   1 1.00000000   0.880E+00       0.000       16.128   0.100E-07
     TRS4 it   2 1.00000000   0.634E+00       0.000       32.256   0.100E-07
     TRS4 it   3 1.00000000   0.456E+00       0.000       32.256   0.100E-07
     TRS4 it   4 1.00000000   0.279E+00       0.000       32.256   0.100E-07
     TRS4 it   5 1.00000000   0.138E+00       0.000       32.256   0.100E-07
     TRS4 it   6 1.00000000   0.439E-01       0.000       32.256   0.100E-07
     TRS4 it   7 1.00000000   0.617E-02       0.000       32.256   0.100E-07
     TRS4 it   8 1.00000000   0.161E-03       0.000       32.256   0.100E-07
     TRS4 it   9 1.00000000   0.117E-06       0.000       32.256   0.100E-07
     TRS4 it  10 1.00000000   0.620E-13       0.000       32.256   0.100E-07
     Final TRS4 iteration   10 1.00000000   0.620E-13
     Chemical potential (mu):      -0.07709
 
 PAO| energy:  -7.8113092305885745      penalty:   2.4615536851465062E-008
 PAO|CG| warming up with steepest descent
 PAO|CG| beta:    0.0000000000000000     
 PAO| norm of gradient:   1.3386276495543412E-004
 PAO| energy improvement:  -5.4121693793263148E-009
 PAO| step    420                   -7.811309231  0.837E-05  0.262E+00     0.048
 PAO| converged after          420  steps :-)
 PAO| Recalculating energy after mixing.

     Lanczos converged:  T threshold:   0.100E-02
     Est. extremal eigenvalues:    0.250E+01   0.190E+00
     Est. condition number :    0.131E+02

 Order=           3
     NS sqrt iter    1 1.00000000   0.634E+00       0.001       64.512
     NS sqrt iter    2 1.00000000   0.275E+00       0.001      110.592
     NS sqrt iter    3 1.00000000   0.487E-01       0.001      110.592
     NS sqrt iter    4 1.00000000   0.774E-03       0.001      110.592
     NS sqrt iter    5 1.00000000   0.610E-08       0.001       38.272
     Symmetrizing Results
     Final NS sqrt iter    5 1.00000000   0.356E-09

     Est. extremal eigenvalues     -0.93757     1.63304  converged:  T
     TRS4 it   1 1.00000000   0.880E+00       0.000       16.128   0.100E-07
     TRS4 it   2 1.00000000   0.634E+00       0.000       32.256   0.100E-07
     TRS4 it   3 1.00000000   0.456E+00       0.000       32.256   0.100E-07
     TRS4 it   4 1.00000000   0.279E+00       0.000       32.256   0.100E-07
     TRS4 it   5 1.00000000   0.138E+00       0.000       32.256   0.100E-07
     TRS4 it   6 1.00000000   0.439E-01       0.000       32.256   0.100E-07
     TRS4 it   7 1.00000000   0.617E-02       0.000       32.256   0.100E-07
     TRS4 it   8 1.00000000   0.161E-03       0.000       32.256   0.100E-07
     TRS4 it   9 1.00000000   0.117E-06       0.000       32.256   0.100E-07
     TRS4 it  10 1.00000000   0.618E-13       0.000       32.256   0.100E-07
     Final TRS4 iteration   10 1.00000000   0.618E-13
     Chemical potential (mu):      -0.07709
 
 PAO| energy:  -7.8113092292355093      penalty:   2.4877132154041978E-008
 PAO| Writing restart file.
     Est. extremal eigenvalues     -0.93757     1.63304  converged:  T
     TRS4 it   1 1.00000000   0.880E+00       0.000       16.128   0.100E-07
     TRS4 it   2 1.00000000   0.634E+00       0.000       32.256   0.100E-07
     TRS4 it   3 1.00000000   0.456E+00       0.000       32.256   0.100E-07
     TRS4 it   4 1.00000000   0.279E+00       0.000       32.256   0.100E-07
     TRS4 it   5 1.00000000   0.138E+00       0.000       32.256   0.100E-07
     TRS4 it   6 1.00000000   0.439E-01       0.000       32.256   0.100E-07
     TRS4 it   7 1.00000000   0.617E-02       0.000       32.256   0.100E-07
     TRS4 it   8 1.00000000   0.161E-03       0.000       32.256   0.100E-07
     TRS4 it   9 1.00000000   0.117E-06       0.000       32.256   0.100E-07
     TRS4 it  10 1.00000000   0.618E-13       0.000       32.256   0.100E-07
     Final TRS4 iteration   10 1.00000000   0.618E-13
     Chemical potential (mu):      -0.07709

 SCF     1       -34.449784701       -34.449784701    1.026138

*********************************************************
 Using MIXING_FRACTION=0.450 to mix KS matrix:  iscf=  2
 KS_nw=0.450*KS + 0.550*KS_old
*********************************************************
     Est. extremal eigenvalues     -0.93758     1.63304  converged:  T
     TRS4 it   1 1.00000000   0.880E+00       0.000       16.128   0.100E-07
     TRS4 it   2 1.00000000   0.634E+00       0.000       32.256   0.100E-07
     TRS4 it   3 1.00000000   0.456E+00       0.000       32.256   0.100E-07
     TRS4 it   4 1.00000000   0.279E+00       0.000       32.256   0.100E-07
     TRS4 it   5 1.00000000   0.138E+00       0.000       32.256   0.100E-07
     TRS4 it   6 1.00000000   0.439E-01       0.000       32.256   0.100E-07
     TRS4 it   7 1.00000000   0.617E-02       0.000       32.256   0.100E-07
     TRS4 it   8 1.00000000   0.161E-03       0.000       32.256   0.100E-07
     TRS4 it   9 1.00000000   0.117E-06       0.000       32.256   0.100E-07
     TRS4 it  10 1.00000000   0.615E-13       0.000       32.256   0.100E-07
     Final TRS4 iteration   10 1.00000000   0.615E-13
     Chemical potential (mu):      -0.07708

 SCF     2       -34.449784701        -0.000000000    0.981503


 SCF run converged in     2 steps.

 PAO| Storing density matrix for ASPC guess in slot:           1

 ENERGY| Total FORCE_EVAL ( QS ) energy [a.u.]:              -34.449784701373019

 -------------------------------------------------------------------------------
 -                                                                             -
 -                                DBCSR STATISTICS                             -
 -                                                                             -
 -------------------------------------------------------------------------------
 COUNTER                                    TOTAL       BLAS       SMM       ACC
 flops     5 x     5 x     4                20000       0.0%    100.0%      0.0%
 flops    13 x     5 x     4                20800       0.0%    100.0%      0.0%
 flops     5 x    13 x     4                20800       0.0%    100.0%      0.0%
 flops    13 x    13 x     4                40560       0.0%    100.0%      0.0%
 flops     4 x     4 x     5              3298560       0.0%    100.0%      0.0%
 flops     5 x     4 x     5              4035200       0.0%    100.0%      0.0%
 flops     4 x     4 x    13              4288128       0.0%    100.0%      0.0%
 flops    13 x     4 x     5              5245760       0.0%    100.0%      0.0%
 flops     5 x     4 x    13              5245760       0.0%    100.0%      0.0%
 flops     5 x     4 x     4              6393280       0.0%    100.0%      0.0%
 flops    13 x     4 x    13              6819488       0.0%    100.0%      0.0%
 flops    13 x     4 x     4              8439808       0.0%    100.0%      0.0%
 flops     4 x     4 x     4            427379328       0.0%    100.0%      0.0%
 flops inhomo. stacks                           0       0.0%      0.0%      0.0%
 flops total                       471.247472E+06       0.0%    100.0%      0.0%
 flops max/rank                    471.247472E+06       0.0%    100.0%      0.0%
 matmuls inhomo. stacks                         0       0.0%      0.0%      0.0%
 matmuls total                            3475677       0.0%    100.0%      0.0%
 number of processed stacks                 27679       0.0%    100.0%      0.0%
 average stack size                                     0.0     125.6       0.0
 marketing flops                   766.436928E+06
 -------------------------------------------------------------------------------
 # multiplications                          23158
 max memory usage/rank             507.383808E+06
 # max total images/rank                        1
 # max 3D layers                                1
 # MPI messages exchanged                       0
 -------------------------------------------------------------------------------

 -------------------------------------------------------------------------------
 -                                                                             -
 -                                DBM STATISTICS                               -
 -                                                                             -
 -------------------------------------------------------------------------------
    M  x    N  x    K                                          COUNT     PERCENT
 -------------------------------------------------------------------------------

 -------------------------------------------------------------------------------
 -                                                                             -
 -                                GRID STATISTICS                              -
 -                                                                             -
 -------------------------------------------------------------------------------
 LP    KERNEL             BACKEND                              COUNT     PERCENT
 2     collocate ortho    REF                                  38160      30.75%
 2     integrate ortho    REF                                  38160      30.75%
 3     collocate ortho    REF                                  19600      15.79%
 3     integrate ortho    REF                                  19600      15.79%
 4     collocate ortho    REF                                   4290       3.46%
 4     integrate ortho    REF                                   4290       3.46%
 0     collocate general  REF                                      6       0.00%
 -------------------------------------------------------------------------------

 MEMORY| Estimated peak process memory [MiB]                                 484

 -------------------------------------------------------------------------------
 -                                                                             -
 -                           R E F E R E N C E S                               -
 -                                                                             -
 -------------------------------------------------------------------------------
 
 CP2K version 2023.1 (Development Version), the CP2K developers group (2023).
 CP2K is freely available from https://www.cp2k.org/ .

 Kuehne,Thomas D.; Iannuzzi,Marcella; Del Ben,Mauro;
 Rybkin,Vladimir V.; Seewald,Patrick; Stein,Frederick; Laino,Teodoro;
 Khaliullin,Rustam Z.; Schuett,Ole; Schiffmann,Florian; Golze,Dorothea;
 Wilhelm,Jan; Chulkov,Sergey; Bani-Hashemian,Mohammad Hossein;
 Weber,Valery; Borstnik,Urban; Taillefumier,Mathieu;
 Jakobovits,Alice Shoshana; Lazzaro,Alfio; Pabst,Hans; Mueller,Tiziano;
 Schade,Robert; Guidon,Manuel; Andermatt,Samuel; Holmberg,Nico;
 Schenter,Gregory K.; Hehn,Anna; Bussy,Augustin; Belleflamme,Fabian;
 Tabacchi,Gloria; Gloess,Andreas; Lass,Michael; Bethune,Iain;
 Mundy,Christopher J.; Plessl,Christian; Watkins,Matt;
 VandeVondele,Joost; Krack,Matthias; Hutter,Juerg. 
 The Journal of Chemical Physics, 152 (19), (2020). 
 CP2K: An electronic structure and molecular dynamics software package -
 Quickstep: Efficient and accurate electronic structure calculations.
 https://doi.org/10.1063/5.0007045

 Schuett, O; VandeVondele, J. 
 Journal of Chemical Theory and Computation, 14, (2018). 
 Machine Learning Adaptive Basis Sets for Efficient Large Scale
 Density Functional Theory Simulation.
 https://doi.org/10.1021/acs.jctc.8b00378

 Schuett, Ole; Messmer, Peter; Hutter, Juerg; VandeVondele, Joost. 
 Electronic Structure Calculations on Graphics Processing Units, John
 Wiley & Sons, Ltd, 173-190 (2016). 
 GPU-Accelerated Sparse Matrix-Matrix Multiplication for
 Linear Scaling Density Functional Theory.
 https://doi.org/10.1002/9781118670712.ch8

 Heinecke, A; Henry, G; Hutchinson, M; Pabst, H. 
 Proceedings of Intl. Supercomputing Conference, 981-991 (2016). 
 LIBXSMM: Accelerating Small Matrix Multiplications
 by Runtime Code Generation.
 https://doi.org/10.1109/SC.2016.83

 Borstnik, U; VandeVondele, J; Weber, V; Hutter, J. 
 PARALLEL COMPUTING, 40 (5-6), 47-58 (2014). 
 Sparse matrix multiplication: The distributed block-compressed sparse
 row library.
 https://doi.org/10.1016/j.parco.2014.03.012

 Hutter, J; Iannuzzi, M; Schiffmann, F; VandeVondele, J. 
 WIREs Comput Mol Sci., 4 (1), 15-25 (2014). 
 CP2K: atomistic simulations of condensed matter systems.
 https://doi.org/10.1002/wcms.1159

 VandeVondele, J; Borstnik, U; Hutter, J. 
 JOURNAL OF CHEMICAL THEORY AND COMPUTATION, 8 (10), 3565-3573 (2012). 
 Linear Scaling Self-Consistent Field Calculations with Millions of Atoms
 in the Condensed Phase.
 https://doi.org/10.1021/ct200897x

 VandeVondele, J; Hutter, J. 
 JOURNAL OF CHEMICAL PHYSICS, 127 (11), 114105 (2007). 
 Gaussian basis sets for accurate calculations on molecular systems in
 gas and condensed phases.
 https://doi.org/10.1063/1.2770708

 Krack, M. 
 THEORETICAL CHEMISTRY ACCOUNTS, 114 (1-3), 145-152 (2005). 
 Pseudopotentials for H to Kr optimized for gradient-corrected
 exchange-correlation functionals.
 https://doi.org/10.1007/s00214-005-0655-y

 VandeVondele, J; Krack, M; Mohamed, F; Parrinello, M; Chassaing, T;
 Hutter, J. COMPUTER PHYSICS COMMUNICATIONS, 167 (2), 103-128 (2005). 
 QUICKSTEP: Fast and accurate density functional calculations using a
 mixed Gaussian and plane waves approach.
 https://doi.org/10.1016/j.cpc.2004.12.014

 Frigo, M; Johnson, SG. 
 PROCEEDINGS OF THE IEEE, 93 (2), 216-231 (2005). 
 The design and implementation of FFTW3.
 https://doi.org/10.1109/JPROC.2004.840301

 Niklasson, AMN; Tymczak, CJ; Challacombe, M. 
 JOURNAL OF CHEMICAL PHYSICS, 118 (19), 8611-8620 (2003). 
 Trace resetting density matrix purification in O(N)
 self-consistent-field theory.
 https://doi.org/10.1063/1.1559913

 Hartwigsen, C; Goedecker, S; Hutter, J. 
 PHYSICAL REVIEW B, 58 (7), 3641-3662 (1998). 
 Relativistic separable dual-space Gaussian pseudopotentials from H to Rn.
 https://doi.org/10.1103/PhysRevB.58.3641

 Lippert, G; Hutter, J; Parrinello, M. 
 MOLECULAR PHYSICS, 92 (3), 477-487 (1997). 
 A hybrid Gaussian and plane wave density functional scheme.
 https://doi.org/10.1080/002689797170220

 Perdew, JP; Burke, K; Ernzerhof, M. 
 PHYSICAL REVIEW LETTERS, 77 (18), 3865-3868 (1996). 
 Generalized gradient approximation made simple.
 https://doi.org/10.1103/PhysRevLett.77.3865

 Goedecker, S; Teter, M; Hutter, J. 
 PHYSICAL REVIEW B, 54 (3), 1703-1710 (1996). 
 Separable dual-space Gaussian pseudopotentials.
 https://doi.org/10.1103/PhysRevB.54.1703


 -------------------------------------------------------------------------------
 -                                                                             -
 -                                T I M I N G                                  -
 -                                                                             -
 -------------------------------------------------------------------------------
 SUBROUTINE                       CALLS  ASD         SELF TIME        TOTAL TIME
                                MAXIMUM       AVERAGE  MAXIMUM  AVERAGE  MAXIMUM
 CP2K                                 1  1.0    0.008    0.008   25.876   25.876
 qs_energies                          1  2.0    0.000    0.000   25.510   25.510
 ls_scf                               1  3.0    0.000    0.000   25.388   25.388
 ls_scf_main                          4  4.0    0.001    0.001   16.449   16.449
 ls_scf_dm_to_ks                      9  5.0    0.000    0.000   16.379   16.379
 qs_ks_update_qs_env                 10  6.0    0.000    0.000   14.418   14.418
 rebuild_ks_matrix                   10  7.0    0.000    0.000   14.418   14.418
 qs_ks_build_kohn_sham_matrix        10  8.0    0.002    0.002   14.417   14.417
 qs_vxc_create                       10  9.0    0.000    0.000    8.923    8.923
 xc_vxc_pw_create                    10 10.0    0.144    0.144    8.922    8.922
 pw_transfer                        191 11.1    0.020    0.020    7.024    7.024
 fft_wrap_pw1pw2                    171 12.3    0.003    0.003    6.843    6.843
 fft_wrap_pw1pw2_200                111 13.7    0.702    0.702    6.643    6.643
 pao_update                           4  4.0    0.007    0.007    6.619    6.619
 pao_calc_energy                    423  5.0    0.003    0.003    5.989    5.989
 xc_rho_set_and_dset_create          10 11.0    0.194    0.194    5.591    5.591
 xc_pw_derive                        60 12.0    0.001    0.001    4.903    4.903
 dbcsr_multiply_generic           23158  8.4    0.297    0.297    4.743    4.743
 sum_up_and_integrate                10  9.0    0.129    0.129    4.342    4.342
 qs_rho_update_rho_low               10  6.0    0.000    0.000    4.246    4.246
 calculate_rho_elec                  10  7.0    0.035    0.035    4.245    4.245
 integrate_v_rspace                  10 10.0    0.001    0.001    4.213    4.213
 grid_integrate_task_list            10 11.0    3.352    3.352    3.352    3.352
 pao_dm_trs4                        423  6.0    0.002    0.002    3.150    3.150
 xc_pw_divergence                    10 11.0    0.000    0.000    3.070    3.070
 density_matrix_trs4                432  7.0    0.108    0.108    3.035    3.035
 fft3d_s                            172 14.2    2.903    2.903    2.916    2.916
 grid_collocate_task_list            10  8.0    2.841    2.841    2.841    2.841
 ls_scf_init_matrix_S               427  7.0    0.002    0.002    2.815    2.815
 pao_rebuild_S                      423  6.0    0.001    0.001    2.793    2.793
 matrix_sqrt_Newton_Schulz          427  8.0    0.065    0.065    2.541    2.541
 xc_functional_eval                  10 12.0    0.000    0.000    2.511    2.511
 pbe_lda_eval                        10 13.0    2.511    2.511    2.511    2.511
 pao_guess_initial_P                  1  4.0    0.000    0.000    2.289    2.289
 pao_read_preopt_dm                   1  5.0    0.000    0.000    2.289    2.289
 make_m2s                         46316  9.4    0.112    0.112    1.785    1.785
 multiply_cannon                  23158  9.4    0.726    0.726    1.774    1.774
 pw_scatter_s                        90 14.7    1.660    1.660    1.660    1.660
 make_images                      46316 10.4    0.446    0.446    1.585    1.585
 pw_gather_s                         81 13.8    1.542    1.542    1.542    1.542
 density_rs2pw                       10  8.0    0.001    0.001    1.369    1.369
 pw_derive                           60 13.0    0.938    0.938    0.938    0.938
 arnoldi_extremal                   859  8.5    0.003    0.003    0.929    0.929
 arnoldi_normal_ev                  859  9.5    0.009    0.009    0.927    0.927
 potential_pw2rs                     10 11.0    0.002    0.002    0.861    0.861
 build_subspace                     859 10.5    0.038    0.038    0.719    0.719
 dbcsr_matrix_vector_mult         20546 11.5    0.079    0.079    0.669    0.669
 pw_copy                            120 11.8    0.665    0.665    0.665    0.665
 pao_calc_AB                        558  5.8    0.001    0.001    0.627    0.627
 pao_calc_AB_equi                   558  6.8    0.020    0.020    0.626    0.626
 pao_calc_grad_lnv_wrt_AB           134  7.0    0.005    0.005    0.561    0.561
 dbcsr_finalize                   55848  9.6    0.108    0.108    0.528    0.528
 -------------------------------------------------------------------------------

 The number of warnings for this run is : 0
 
 -------------------------------------------------------------------------------
  **** **** ******  **  PROGRAM ENDED AT                 2023-02-01 10:45:45.702
 ***** ** ***  *** **   PROGRAM RAN ON                                    moritz
 **    ****   ******    PROGRAM RAN BY                                       ole
 ***** **    ** ** **   PROGRAM PROCESS ID                                148609
  **** **  *******  **  PROGRAM STOPPED IN /home/ole/git/pao_ml_equivar/2H2O_rot
                                           ations/phi_29
