 DBCSR| CPU Multiplication driver                                           XSMM
 DBCSR| Multrec recursion limit                                              512
 DBCSR| Multiplication stack size                                           1000
 DBCSR| Maximum elements for images                                    UNLIMITED
 DBCSR| Multiplicative factor virtual images                                   1
 DBCSR| Use multiplication densification                                       T
 DBCSR| Multiplication size stacks                                             3


  **** **** ******  **  PROGRAM STARTED AT               2019-02-14 11:15:59.266
 ***** ** ***  *** **   PROGRAM STARTED ON                                  otto
 **    ****   ******    PROGRAM STARTED BY                                   ole
 ***** **    ** ** **   PROGRAM PROCESS ID                                  7849
  **** **  *******  **  PROGRAM STARTED IN /home/ole/git/pao_ml_equivar/2H2O_MD/
                                           frame_1775

 CP2K| version string:                    CP2K version 7.0 (Development Version)
 CP2K| source code revision number:                                git:8bf305913
 CP2K| cp2kflags: libint fftw3 libxc xsmm libderiv_max_am1=5 libint_max_am=6    
 CP2K| is freely available from                            https://www.cp2k.org/
 CP2K| Program compiled at                           So Jan 13 00:02:37 CET 2019
 CP2K| Program compiled on                                                  otto
 CP2K| Program compiled for                                                local
 CP2K| Data directory path                               /home/ole/git/cp2k/data
 CP2K| Input file name                                            2H2O_pao44.inp

 GLOBAL| Force Environment number                                              1
 GLOBAL| Basis set file name                                        BASIS_MOLOPT
 GLOBAL| Potential file name                                      GTH_POTENTIALS
 GLOBAL| MM Potential file name                                     MM_POTENTIAL
 GLOBAL| Coordinate file name                                         coords.xyz
 GLOBAL| Method name                                                        CP2K
 GLOBAL| Project name                                                 2H2O_pao44
 GLOBAL| Preferred FFT library                                             FFTW3
 GLOBAL| Preferred diagonalization lib.                                       SL
 GLOBAL| Run type                                                         ENERGY
 GLOBAL| All-to-all communication in single precision                          F
 GLOBAL| FFTs using library dependent lengths                                  F
 GLOBAL| Global print level                                                  LOW
 GLOBAL| MPI I/O enabled                                                       T
 GLOBAL| Total number of message passing processes                             1
 GLOBAL| Number of threads for this process                                    1
 GLOBAL| This output is from process                                           0
 GLOBAL| CPU model name :  Intel(R) Core(TM) i5-3320M CPU @ 2.60GHz

 MEMORY| system memory details [Kb]
 MEMORY|                        rank 0           min           max       average
 MEMORY| MemTotal              7860772       7860772       7860772       7860772
 MEMORY| MemFree                590776        590776        590776        590776
 MEMORY| Buffers               1048644       1048644       1048644       1048644
 MEMORY| Cached                2111156       2111156       2111156       2111156
 MEMORY| Slab                   280340        280340        280340        280340
 MEMORY| SReclaimable           155756        155756        155756        155756
 MEMORY| MemLikelyFree         3906332       3906332       3906332       3906332


 GENERATE|  Preliminary Number of Bonds generated:                             0
 GENERATE|  Achieved consistency in connectivity generation.

 *******************************************************************************
 *******************************************************************************
 **                                                                           **
 **     #####                         ##              ##                      **
 **    ##   ##            ##          ##              ##                      **
 **   ##     ##                       ##            ######                    **
 **   ##     ##  ##   ##  ##   #####  ##  ##   ####   ##    #####    #####    **
 **   ##     ##  ##   ##  ##  ##      ## ##   ##      ##   ##   ##  ##   ##   **
 **   ##  ## ##  ##   ##  ##  ##      ####     ###    ##   ######   ######    **
 **    ##  ###   ##   ##  ##  ##      ## ##      ##   ##   ##       ##        **
 **     #######   #####   ##   #####  ##  ##  ####    ##    #####   ##        **
 **           ##                                                    ##        **
 **                                                                           **
 **                                                ... make the atoms dance   **
 **                                                                           **
 **            Copyright (C) by CP2K developers group (2000 - 2018)           **
 **                                                                           **
 *******************************************************************************


 TOTAL NUMBERS AND MAXIMUM NUMBERS

  Total number of            - Atomic kinds:                                   2
                             - Atoms:                                          6
                             - Shell sets:                                     6
                             - Shells:                                        22
                             - Primitive Cartesian functions:                 42
                             - Cartesian basis functions:                     48
                             - Spherical basis functions:                     46

  Maximum angular momentum of- Orbital basis functions:                        2
                             - Local part of the GTH pseudopotential:          2
                             - Non-local part of the GTH pseudopotential:      0

 ------------------------------ Linear scaling SCF -----------------------------
 eps_scf:                                       0.100E-07
 eps_filter:                                    0.100E-07
 mixing_fraction:                               0.450E+00
 max_scf:                                              25
 fixed chemical potential (mu)                          F
 has unit metric:                                       F
 Computing inv(S):                                      T
 Computing sqrt(S):                                     T
 Computing s preconditioner                             F
 sign sqrt order:                                       3
 Extrapolation order:                                   1
 Use single precision matrices                          F
 S preconditioner type                               NONE
 Polarized Atomic Orbitals (PAO)                        T
 Purification method                      Trace resetting 4th order
 Cluster type                                      ATOMIC
 Computing Chebyshev                                FALSE
 Using PAO                                              T
 -------------------------------------------------------------------------------

 
 PAO|                                  EPS_PAO                           0.5E-06
 PAO|                                  MIXING                            0.5E+00
 PAO|                                  MAX_PAO                              1000
 PAO|                                  MAX_CYCLES                           1000
 PAO|                                  PARAMETERIZATION                   DIRECT
 PAO|                                  PRECONDITION                            F
 PAO|                                  REGULARIZATION                    0.0E+00
 PAO|                                  EPS_PGF                           0.1E-09
 PAO|                                  PENALTY_DISTANCE                  0.1E+00
 PAO|                                  PENALTY_STRENGTH                  0.5E-02
 PAO|                                  LINPOT_PRECONDITION_DELTA         0.0E+00
 PAO|                                  LINPOT_INITGUESS_DELT             0.0E+00
 PAO|                                  LINPOT_REGULARIZATION_DELTA       0.0E+00
 PAO|                                  LINPOT_REGULARIZATION_STRENGTH    0.0E+00
 PAO|                                  OPTIMIZER                              CG
 PAO|                                  CG_INIT_STEPS                           2
 PAO|                                  CG_RESET_LIMIT                    0.1E+00
 PAO|                                  CHECK_UNITARY_TOL                -0.1E+01
 PAO|                                  CHECK_GRADIENT_TOL               -0.1E+01
 PAO|                                  NUM_GRADIENT_ORDER                      2
 PAO|                                  NUM_GRADIENT_EPS                  0.1E-07
 PAO|                                  PRINT%RESTART%WRITE_CYCLES            100
 PAO|                                  RESTART_FILE 
 PAO|                                  PREOPT_DM_FILE 2H2O_ref_LS_DM_SPIN_1_RESTART.dm
 PAO|                                  MACHINE_LEARNING%METHOD        GAUSSIAN_P
 PAO|                                  MACHINE_LEARNING%PRIOR               ZERO
 PAO|                                  MACHINE_LEARNING%DESCRIPTOR     POTENTIAL
 PAO|                                  MACHINE_LEARNING%TOLERANCE        0.1E-01
 PAO|                                  MACHINE_LEARNING%GP_NOISE_VAR     0.1E+00
 PAO|                                  MACHINE_LEARNING%GP_SCALE         0.5E-01
 

 Calculating atomic Fock matrix for atomic kind: O

 Electronic structure
    Total number of core electrons                                          2.00
    Total number of valence electrons                                       6.00
    Total number of electrons                                               8.00
    Multiplicity                                                   not specified
    S   [  2.00] 2.00
    P      4.00


 *******************************************************************************
                  Iteration          Convergence                     Energy [au]
 *******************************************************************************
                          1        0.708315                     -15.576645311500
                          2        0.608879                     -15.587933561584
                          3        0.102828E-01                 -15.656849565404
                          4        0.113889E-02                 -15.656866888140
                          5        0.434197E-03                 -15.656867072159
                          6        0.263771E-03                 -15.656867091904
                          7        0.478536E-06                 -15.656867103452

 Energy components [Hartree]           Total Energy ::          -15.656867103452
                                        Band Energy ::           -3.000198112285
                                     Kinetic Energy ::           11.759971203220
                                   Potential Energy ::          -27.416838306672
                                      Virial (-V/T) ::            2.331369510426
                                        Core Energy ::          -26.140716385623
                                          XC Energy ::           -3.154051012914
                                     Coulomb Energy ::           13.637900295084
                       Total Pseudopotential Energy ::          -37.935781716540
                       Local Pseudopotential Energy ::          -39.218907440693
                    Nonlocal Pseudopotential Energy ::            1.283125724153
                                        Confinement ::            0.350941276976

 Orbital energies  State     L     Occupation   Energy[a.u.]          Energy[eV]

                       1     0          2.000      -0.864471          -23.523463

                       1     1          4.000      -0.317814           -8.648154


 Total Electron Density at R=0:                                         0.000068

 Calculating atomic Fock matrix for atomic kind: H

 Electronic structure
    Total number of core electrons                                          0.00
    Total number of valence electrons                                       1.00
    Total number of electrons                                               1.00
    Multiplicity                                                   not specified
    S      1.00


 *******************************************************************************
                  Iteration          Convergence                     Energy [au]
 *******************************************************************************
                          1        0.437545E-02                  -0.424159432110
                          2        0.531356E-03                  -0.424178438213
                          3        0.259176E-06                  -0.424178722480

 Energy components [Hartree]           Total Energy ::           -0.424178722480
                                        Band Energy ::           -0.199015229016
                                     Kinetic Energy ::            0.464007633961
                                   Potential Energy ::           -0.888186356441
                                      Virial (-V/T) ::            1.914163240935
                                        Core Energy ::           -0.479160803564
                                          XC Energy ::           -0.244352904054
                                     Coulomb Energy ::            0.299334985138
                       Total Pseudopotential Energy ::           -0.962295316385
                       Local Pseudopotential Energy ::           -0.962295316385
                    Nonlocal Pseudopotential Energy ::            0.000000000000
                                        Confinement ::            0.191268788606

 Orbital energies  State     L     Occupation   Energy[a.u.]          Energy[eV]

                       1     0          1.000      -0.199015           -5.415480


 Total Electron Density at R=0:                                         0.242907
 PAO| Made initial guess for matrix_X with norm:   4.8989794855663558     

     Lanczos converged:  T threshold:   0.100E-02
     Est. extremal eigenvalues:    0.325E+01   0.112E+00
     Est. condition number :    0.291E+02
     NS sqrt iter    1 1.00000000   0.794E+00       0.001       47.435
     NS sqrt iter    2 1.00000000   0.426E+00       0.001       84.005
     NS sqrt iter    3 1.00000000   0.162E+00       0.001       84.168
     NS sqrt iter    4 1.00000000   0.184E-01       0.001       84.895
     NS sqrt iter    5 1.00000000   0.438E-04       0.001       67.534
     Final NS sqrt iter    5 1.00000000   0.406E-08

 PAO| Read restart DM 2H2O_ref_LS_DM_SPIN_1_RESTART.dm with checksum:    53.446085320311845     
 PAO| Quickstep energy from restart density:  -34.446239182868823     
 PAO| ======================= Iteration:         1 =============================

     Lanczos converged:  T threshold:   0.100E-02
     Est. extremal eigenvalues:    0.325E+01   0.112E+00
     Est. condition number :    0.291E+02
     NS sqrt iter    1 1.00000000   0.794E+00       0.001       64.512
     NS sqrt iter    2 1.00000000   0.426E+00       0.001      110.592
     NS sqrt iter    3 1.00000000   0.162E+00       0.001      110.592
     NS sqrt iter    4 1.00000000   0.184E-01       0.001      110.592
     NS sqrt iter    5 1.00000000   0.438E-04       0.001       86.656
     Final NS sqrt iter    5 1.00000000   0.406E-08

     Est. extremal eigenvalues     -0.90783     1.85251  converged:  T
     TRS4 it   1 1.00000000   0.886E+00       0.000       16.128   0.100E-07
     TRS4 it   2 1.00000000   0.688E+00       0.001       32.256   0.100E-07
     TRS4 it   3 1.00000000   0.497E+00       0.001       32.256   0.100E-07
     TRS4 it   4 1.00000000   0.312E+00       0.001       32.256   0.100E-07
     TRS4 it   5 1.00000000   0.155E+00       0.001       32.256   0.100E-07
     TRS4 it   6 1.00000000   0.484E-01       0.001       32.256   0.100E-07
     TRS4 it   7 1.00000000   0.663E-02       0.001       32.256   0.100E-07
     TRS4 it   8 1.00000000   0.166E-03       0.001       32.256   0.100E-07
     TRS4 it   9 1.00000000   0.114E-06       0.001       32.256   0.100E-07
     TRS4 it  10 1.00000000   0.569E-13       0.001       32.256   0.100E-07
     Final TRS4 iteration   10 1.00000000   0.569E-13
     Chemical potential (mu):      -0.07444
 
 PAO| energy:  -7.5907044309274561      penalty:   6.7792734042430721E-033
 PAO|CG| warming up with steepest descent
 PAO|CG| beta:    0.0000000000000000     
 PAO| norm of gradient:  0.78572515417474875     
 PAO|LS| adapt:  T F F
 PAO|LS| adapt: scan_steps:    0.0000000000000000        0.0000000000000000        0.0000000000000000     
 PAO|LS| adapt: energies:   -7.5907044309274561        0.0000000000000000        0.0000000000000000     
 PAO| ======================= Iteration:         2 =============================

     Lanczos converged:  T threshold:   0.100E-02
     Est. extremal eigenvalues:    0.318E+01   0.126E+00
     Est. condition number :    0.252E+02
     NS sqrt iter    1 1.00000000   0.781E+00       0.001       61.752
     NS sqrt iter    2 1.00000000   0.411E+00       0.001      110.592
     NS sqrt iter    3 1.00000000   0.145E+00       0.001      110.592
     NS sqrt iter    4 1.00000000   0.125E-01       0.001      110.592
     NS sqrt iter    5 1.00000000   0.134E-04       0.001       82.944
     Final NS sqrt iter    5 1.00000000   0.306E-09

     Est. extremal eigenvalues     -0.91137     1.79669  converged:  T
     TRS4 it   1 1.00000000   0.882E+00       0.000       16.128   0.100E-07
     TRS4 it   2 1.00000000   0.669E+00       0.001       32.256   0.100E-07
     TRS4 it   3 1.00000000   0.480E+00       0.001       32.256   0.100E-07
     TRS4 it   4 1.00000000   0.291E+00       0.001       32.256   0.100E-07
     TRS4 it   5 1.00000000   0.135E+00       0.001       32.256   0.100E-07
     TRS4 it   6 1.00000000   0.373E-01       0.001       32.256   0.100E-07
     TRS4 it   7 1.00000000   0.401E-02       0.001       32.256   0.100E-07
     TRS4 it   8 1.00000000   0.610E-04       0.001       32.256   0.100E-07
     TRS4 it   9 1.00000000   0.154E-07       0.001       32.256   0.100E-07
     Final TRS4 iteration    9 1.00000000   0.154E-07
     Chemical potential (mu):      -0.06283
 
 PAO| energy:  -7.6463255905622756      penalty:   2.2661057649728502E-008
 PAO|LS| adapt:  T T F
 PAO|LS| adapt: scan_steps:    0.0000000000000000       0.10000000000000001        0.0000000000000000     
 PAO|LS| adapt: energies:   -7.5907044309274561       -7.6463255905622756        0.0000000000000000     
 PAO| ======================= Iteration:         3 =============================

     Lanczos converged:  T threshold:   0.100E-02
     Est. extremal eigenvalues:    0.310E+01   0.139E+00
     Est. condition number :    0.223E+02
     NS sqrt iter    1 1.00000000   0.767E+00       0.001       64.512
     NS sqrt iter    2 1.00000000   0.396E+00       0.001      110.592
     NS sqrt iter    3 1.00000000   0.128E+00       0.001      110.592
     NS sqrt iter    4 1.00000000   0.853E-02       0.001      110.592
     NS sqrt iter    5 1.00000000   0.415E-05       0.001       82.944
     Final NS sqrt iter    5 1.00000000   0.282E-10

     Est. extremal eigenvalues     -0.91463     1.75330  converged:  T
     TRS4 it   1 1.00000000   0.879E+00       0.000       16.128   0.100E-07
     TRS4 it   2 1.00000000   0.652E+00       0.001       32.256   0.100E-07
     TRS4 it   3 1.00000000   0.463E+00       0.001       32.256   0.100E-07
     TRS4 it   4 1.00000000   0.270E+00       0.001       32.256   0.100E-07
     TRS4 it   5 1.00000000   0.117E+00       0.001       32.256   0.100E-07
     TRS4 it   6 1.00000000   0.279E-01       0.001       32.256   0.100E-07
     TRS4 it   7 1.00000000   0.226E-02       0.001       32.256   0.100E-07
     TRS4 it   8 1.00000000   0.194E-04       0.001       32.256   0.100E-07
     TRS4 it   9 1.00000000   0.158E-08       0.001       32.256   0.100E-07
     Final TRS4 iteration    9 1.00000000   0.158E-08
     Chemical potential (mu):      -0.05102
 
 PAO| energy:  -7.6891252638107614      penalty:   3.6257681214134983E-007
 PAO|LS| adapt:  T T F
 PAO|LS| adapt: scan_steps:    0.0000000000000000       0.20000000000000001        0.0000000000000000     
 PAO|LS| adapt: energies:   -7.5907044309274561       -7.6891252638107614        0.0000000000000000     
 PAO| ======================= Iteration:         4 =============================

     Lanczos converged:  T threshold:   0.100E-02
     Est. extremal eigenvalues:    0.293E+01   0.160E+00
     Est. condition number :    0.182E+02
     NS sqrt iter    1 1.00000000   0.735E+00       0.001       64.512
     NS sqrt iter    2 1.00000000   0.364E+00       0.001      110.592
     NS sqrt iter    3 1.00000000   0.100E+00       0.001      110.592
     NS sqrt iter    4 1.00000000   0.411E-02       0.001      110.592
     NS sqrt iter    5 1.00000000   0.502E-06       0.001       82.688
     Final NS sqrt iter    5 1.00000000   0.135E-09

     Est. extremal eigenvalues     -0.91956     1.69332  converged:  T
     TRS4 it   1 1.00000000   0.876E+00       0.000       16.128   0.100E-07
     TRS4 it   2 1.00000000   0.626E+00       0.001       32.256   0.100E-07
     TRS4 it   3 1.00000000   0.433E+00       0.001       32.256   0.100E-07
     TRS4 it   4 1.00000000   0.233E+00       0.001       32.256   0.100E-07
     TRS4 it   5 1.00000000   0.852E-01       0.001       32.256   0.100E-07
     TRS4 it   6 1.00000000   0.147E-01       0.001       32.256   0.100E-07
     TRS4 it   7 1.00000000   0.611E-03       0.001       32.256   0.100E-07
     TRS4 it   8 1.00000000   0.141E-05       0.001       32.256   0.100E-07
     TRS4 it   9 1.00000000   0.851E-11       0.001       32.256   0.100E-07
     Final TRS4 iteration    9 1.00000000   0.851E-11
     Chemical potential (mu):      -0.02566
 
 PAO| energy:  -7.7349391092666773      penalty:   5.8012281122314314E-006
 PAO|LS| Need extra step
 PAO|LS| adapt:  T T F
 PAO|LS| adapt: scan_steps:    0.0000000000000000       0.40000000000000002        0.0000000000000000     
 PAO|LS| adapt: energies:   -7.5907044309274561       -7.7349391092666773        0.0000000000000000     
 PAO| ======================= Iteration:         5 =============================

     Lanczos converged:  T threshold:   0.100E-02
     Est. extremal eigenvalues:    0.260E+01   0.188E+00
     Est. condition number :    0.138E+02
     NS sqrt iter    1 1.00000000   0.677E+00       0.001       64.512
     NS sqrt iter    2 1.00000000   0.304E+00       0.001      110.592
     NS sqrt iter    3 1.00000000   0.619E-01       0.001      110.592
     NS sqrt iter    4 1.00000000   0.114E-02       0.001      110.592
     NS sqrt iter    5 1.00000000   0.127E-07       0.001       47.360
     Final NS sqrt iter    5 1.00000000   0.425E-08

     Est. extremal eigenvalues     -0.92017     1.63209  converged:  T
     TRS4 it   1 1.00000000   0.874E+00       0.000       16.128   0.100E-07
     TRS4 it   2 1.00000000   0.592E+00       0.001       32.256   0.100E-07
     TRS4 it   3 1.00000000   0.386E+00       0.001       32.256   0.100E-07
     TRS4 it   4 1.00000000   0.177E+00       0.001       32.256   0.100E-07
     TRS4 it   5 1.00000000   0.465E-01       0.001       32.256   0.100E-07
     TRS4 it   6 1.00000000   0.410E-02       0.001       32.256   0.100E-07
     TRS4 it   7 1.00000000   0.433E-04       0.001       32.256   0.100E-07
     TRS4 it   8 1.00000000   0.682E-08       0.001       32.256   0.100E-07
     Final TRS4 iteration    8 1.00000000   0.682E-08
     Chemical potential (mu):       0.01952
 
 PAO| energy:  -7.6747967339658851      penalty:   9.2819642739476314E-005
 PAO|LS| Need extra step
 PAO|LS| adapt:  T T T
 PAO|LS| adapt: scan_steps:    0.0000000000000000       0.40000000000000002       0.80000000000000004     
 PAO|LS| adapt: energies:   -7.5907044309274561       -7.7349391092666773       -7.6747967339658851     
 PAO|LS| adapt: suggested step_size:   0.48229133509924071     
 PAO|LS| adapt: predicted energy  -7.7392641516970526     
 PAO| ======================= Iteration:         6 =============================

     Lanczos converged:  T threshold:   0.100E-02
     Est. extremal eigenvalues:    0.286E+01   0.167E+00
     Est. condition number :    0.171E+02
     NS sqrt iter    1 1.00000000   0.722E+00       0.001       64.512
     NS sqrt iter    2 1.00000000   0.350E+00       0.001      110.592
     NS sqrt iter    3 1.00000000   0.903E-01       0.001      110.592
     NS sqrt iter    4 1.00000000   0.311E-02       0.001      110.592
     NS sqrt iter    5 1.00000000   0.230E-06       0.001       79.872
     Final NS sqrt iter    5 1.00000000   0.117E-08

     Est. extremal eigenvalues     -0.92078     1.67590  converged:  T
     TRS4 it   1 1.00000000   0.875E+00       0.000       16.128   0.100E-07
     TRS4 it   2 1.00000000   0.617E+00       0.001       32.256   0.100E-07
     TRS4 it   3 1.00000000   0.422E+00       0.001       32.256   0.100E-07
     TRS4 it   4 1.00000000   0.219E+00       0.001       32.256   0.100E-07
     TRS4 it   5 1.00000000   0.747E-01       0.001       32.256   0.100E-07
     TRS4 it   6 1.00000000   0.111E-01       0.001       32.256   0.100E-07
     TRS4 it   7 1.00000000   0.343E-03       0.001       32.256   0.100E-07
     TRS4 it   8 1.00000000   0.444E-06       0.001       32.256   0.100E-07
     TRS4 it   9 1.00000000   0.846E-12       0.001       32.256   0.100E-07
     Final TRS4 iteration    9 1.00000000   0.846E-12
     Chemical potential (mu):      -0.01505
 
 PAO| energy:  -7.7385399563412625      penalty:   1.2260771647055824E-005
 PAO|CG| warming up with steepest descent
 PAO|CG| beta:    0.0000000000000000     
 PAO| norm of gradient:  0.41843152148125939     
 PAO| energy improvement: -0.14783552541380640     
 PAO| step      6                   -7.738539956  0.262E-01  0.482E+00     0.078
 PAO|LS| adapt:  T F F
 PAO|LS| adapt: scan_steps:    0.0000000000000000        0.0000000000000000        0.0000000000000000     
 PAO|LS| adapt: energies:   -7.7385399563412625        0.0000000000000000        0.0000000000000000     
 PAO| ======================= Iteration:         7 =============================

     Lanczos converged:  T threshold:   0.100E-02
     Est. extremal eigenvalues:    0.277E+01   0.181E+00
     Est. condition number :    0.153E+02
     NS sqrt iter    1 1.00000000   0.705E+00       0.001       64.512
     NS sqrt iter    2 1.00000000   0.329E+00       0.001      110.592
     NS sqrt iter    3 1.00000000   0.751E-01       0.001      110.592
     NS sqrt iter    4 1.00000000   0.185E-02       0.001      110.592
     NS sqrt iter    5 1.00000000   0.541E-07       0.001       70.656
     Final NS sqrt iter    5 1.00000000   0.359E-09

     Est. extremal eigenvalues     -0.92271     1.66776  converged:  T
     TRS4 it   1 1.00000000   0.875E+00       0.000       16.128   0.100E-07
     TRS4 it   2 1.00000000   0.616E+00       0.001       32.256   0.100E-07
     TRS4 it   3 1.00000000   0.422E+00       0.001       32.256   0.100E-07
     TRS4 it   4 1.00000000   0.220E+00       0.001       32.256   0.100E-07
     TRS4 it   5 1.00000000   0.756E-01       0.001       32.256   0.100E-07
     TRS4 it   6 1.00000000   0.112E-01       0.001       32.256   0.100E-07
     TRS4 it   7 1.00000000   0.335E-03       0.001       32.256   0.100E-07
     TRS4 it   8 1.00000000   0.421E-06       0.001       32.256   0.100E-07
     TRS4 it   9 1.00000000   0.763E-12       0.001       32.256   0.100E-07
     Final TRS4 iteration    9 1.00000000   0.763E-12
     Chemical potential (mu):      -0.01434
 
 PAO| energy:  -7.7362529429103732      penalty:   1.8479502679337138E-005
 PAO|LS| adapt:  T F T
 PAO|LS| adapt: scan_steps:    0.0000000000000000        0.0000000000000000       0.48229133509924071     
 PAO|LS| adapt: energies:   -7.7385399563412625        0.0000000000000000       -7.7362529429103732     
 PAO| ======================= Iteration:         8 =============================

     Lanczos converged:  T threshold:   0.100E-02
     Est. extremal eigenvalues:    0.281E+01   0.174E+00
     Est. condition number :    0.161E+02
     NS sqrt iter    1 1.00000000   0.713E+00       0.001       64.512
     NS sqrt iter    2 1.00000000   0.340E+00       0.001      110.592
     NS sqrt iter    3 1.00000000   0.826E-01       0.001      110.592
     NS sqrt iter    4 1.00000000   0.241E-02       0.001      110.592
     NS sqrt iter    5 1.00000000   0.114E-06       0.001       77.312
     Final NS sqrt iter    5 1.00000000   0.908E-09

     Est. extremal eigenvalues     -0.92276     1.67131  converged:  T
     TRS4 it   1 1.00000000   0.875E+00       0.000       16.128   0.100E-07
     TRS4 it   2 1.00000000   0.617E+00       0.001       32.256   0.100E-07
     TRS4 it   3 1.00000000   0.422E+00       0.001       32.256   0.100E-07
     TRS4 it   4 1.00000000   0.219E+00       0.001       32.256   0.100E-07
     TRS4 it   5 1.00000000   0.751E-01       0.001       32.256   0.100E-07
     TRS4 it   6 1.00000000   0.112E-01       0.001       32.256   0.100E-07
     TRS4 it   7 1.00000000   0.350E-03       0.001       32.256   0.100E-07
     TRS4 it   8 1.00000000   0.462E-06       0.001       32.256   0.100E-07
     TRS4 it   9 1.00000000   0.919E-12       0.001       32.256   0.100E-07
     Final TRS4 iteration    9 1.00000000   0.919E-12
     Chemical potential (mu):      -0.01528
 
 PAO| energy:  -7.7588146977862840      penalty:   1.3302087094476537E-005
 PAO|LS| adapt:  T T T
 PAO|LS| adapt: scan_steps:    0.0000000000000000       0.24114566754962036       0.48229133509924071     
 PAO|LS| adapt: energies:   -7.7385399563412625       -7.7588146977862840       -7.7362529429103732     
 PAO|LS| adapt: suggested step_size:   0.23470836025498490     
 PAO|LS| adapt: predicted energy  -7.7588299605612603     
 PAO| ======================= Iteration:         9 =============================

     Lanczos converged:  T threshold:   0.100E-02
     Est. extremal eigenvalues:    0.281E+01   0.174E+00
     Est. condition number :    0.162E+02
     NS sqrt iter    1 1.00000000   0.714E+00       0.001       64.512
     NS sqrt iter    2 1.00000000   0.340E+00       0.001      110.592
     NS sqrt iter    3 1.00000000   0.828E-01       0.001      110.592
     NS sqrt iter    4 1.00000000   0.243E-02       0.001      110.592
     NS sqrt iter    5 1.00000000   0.116E-06       0.001       77.568
     Final NS sqrt iter    5 1.00000000   0.937E-09

     Est. extremal eigenvalues     -0.92273     1.67142  converged:  T
     TRS4 it   1 1.00000000   0.875E+00       0.000       16.128   0.100E-07
     TRS4 it   2 1.00000000   0.617E+00       0.001       32.256   0.100E-07
     TRS4 it   3 1.00000000   0.422E+00       0.001       32.256   0.100E-07
     TRS4 it   4 1.00000000   0.219E+00       0.001       32.256   0.100E-07
     TRS4 it   5 1.00000000   0.751E-01       0.001       32.256   0.100E-07
     TRS4 it   6 1.00000000   0.112E-01       0.001       32.256   0.100E-07
     TRS4 it   7 1.00000000   0.350E-03       0.001       32.256   0.100E-07
     TRS4 it   8 1.00000000   0.462E-06       0.001       32.256   0.100E-07
     TRS4 it   9 1.00000000   0.921E-12       0.001       32.256   0.100E-07
     Final TRS4 iteration    9 1.00000000   0.921E-12
     Chemical potential (mu):      -0.01529
 
 PAO| energy:  -7.7588401831441072      penalty:   1.3234531970628956E-005
 PAO|CG| trace_G_new    4.0416778265618326E-002
 PAO|CG| trace_G_prev   0.17508493816912160     
 PAO|CG| trace_G_mix   -1.5729633008315556E-003
 PAO|CG| trace_D   0.17508493816912160     
 PAO|CG| trace_D_Gnew   1.5729633008315556E-003
 PAO|CG| beta:   0.23982497869628455     
 PAO| norm of gradient:  0.20103924558557801     
 PAO| energy improvement:  -2.0300226802844712E-002
 PAO| step      9                   -7.758840183  0.126E-01  0.235E+00     0.048
 PAO|LS| adapt:  T F F
 PAO|LS| adapt: scan_steps:    0.0000000000000000        0.0000000000000000        0.0000000000000000     
 PAO|LS| adapt: energies:   -7.7588401831441072        0.0000000000000000        0.0000000000000000     
 PAO| ======================= Iteration:        10 =============================

     Lanczos converged:  T threshold:   0.100E-02
     Est. extremal eigenvalues:    0.278E+01   0.180E+00
     Est. condition number :    0.154E+02
     NS sqrt iter    1 1.00000000   0.706E+00       0.001       64.512
     NS sqrt iter    2 1.00000000   0.331E+00       0.001      110.592
     NS sqrt iter    3 1.00000000   0.770E-01       0.001      110.592
     NS sqrt iter    4 1.00000000   0.197E-02       0.001      110.592
     NS sqrt iter    5 1.00000000   0.617E-07       0.001       71.168
     Final NS sqrt iter    5 1.00000000   0.371E-09

     Est. extremal eigenvalues     -0.92367     1.66809  converged:  T
     TRS4 it   1 1.00000000   0.873E+00       0.000       16.128   0.100E-07
     TRS4 it   2 1.00000000   0.615E+00       0.001       32.256   0.100E-07
     TRS4 it   3 1.00000000   0.420E+00       0.001       32.256   0.100E-07
     TRS4 it   4 1.00000000   0.217E+00       0.001       32.256   0.100E-07
     TRS4 it   5 1.00000000   0.729E-01       0.001       32.256   0.100E-07
     TRS4 it   6 1.00000000   0.105E-01       0.001       32.256   0.100E-07
     TRS4 it   7 1.00000000   0.304E-03       0.001       32.256   0.100E-07
     TRS4 it   8 1.00000000   0.349E-06       0.001       32.256   0.100E-07
     TRS4 it   9 1.00000000   0.525E-12       0.001       32.256   0.100E-07
     Final TRS4 iteration    9 1.00000000   0.525E-12
     Chemical potential (mu):      -0.01251
 
 PAO| energy:  -7.7643913083675908      penalty:   1.3903154251509346E-005
 PAO|LS| adapt:  T T F
 PAO|LS| adapt: scan_steps:    0.0000000000000000       0.23470836025498490        0.0000000000000000     
 PAO|LS| adapt: energies:   -7.7588401831441072       -7.7643913083675908        0.0000000000000000     
 PAO| ======================= Iteration:        11 =============================

     Lanczos converged:  T threshold:   0.100E-02
     Est. extremal eigenvalues:    0.274E+01   0.186E+00
     Est. condition number :    0.147E+02
     NS sqrt iter    1 1.00000000   0.697E+00       0.001       64.512
     NS sqrt iter    2 1.00000000   0.322E+00       0.001      110.592
     NS sqrt iter    3 1.00000000   0.715E-01       0.001      110.592
     NS sqrt iter    4 1.00000000   0.159E-02       0.001      110.592
     NS sqrt iter    5 1.00000000   0.322E-07       0.001       62.976
     Final NS sqrt iter    5 1.00000000   0.350E-08

     Est. extremal eigenvalues     -0.92345     1.66648  converged:  T
     TRS4 it   1 1.00000000   0.872E+00       0.000       16.128   0.100E-07
     TRS4 it   2 1.00000000   0.614E+00       0.001       32.256   0.100E-07
     TRS4 it   3 1.00000000   0.418E+00       0.001       32.256   0.100E-07
     TRS4 it   4 1.00000000   0.214E+00       0.001       32.256   0.100E-07
     TRS4 it   5 1.00000000   0.709E-01       0.001       32.256   0.100E-07
     TRS4 it   6 1.00000000   0.989E-02       0.001       32.256   0.100E-07
     TRS4 it   7 1.00000000   0.265E-03       0.001       32.256   0.100E-07
     TRS4 it   8 1.00000000   0.262E-06       0.001       32.256   0.100E-07
     TRS4 it   9 1.00000000   0.298E-12       0.001       32.256   0.100E-07
     Final TRS4 iteration    9 1.00000000   0.298E-12
     Chemical potential (mu):      -0.00965
 
 PAO| energy:  -7.7625436466052449      penalty:   1.5385869937615128E-005
 PAO|LS| adapt:  T T T
 PAO|LS| adapt: scan_steps:    0.0000000000000000       0.23470836025498490       0.46941672050996980     
 PAO|LS| adapt: energies:   -7.7588401831441072       -7.7643913083675908       -7.7625436466052449     
 PAO|LS| adapt: suggested step_size:   0.29345000519574765     
 PAO|LS| adapt: predicted energy  -7.7646230294867804     
 PAO| ======================= Iteration:        12 =============================

     Lanczos converged:  T threshold:   0.100E-02
     Est. extremal eigenvalues:    0.277E+01   0.182E+00
     Est. condition number :    0.152E+02
     NS sqrt iter    1 1.00000000   0.703E+00       0.001       64.512
     NS sqrt iter    2 1.00000000   0.329E+00       0.001      110.592
     NS sqrt iter    3 1.00000000   0.756E-01       0.001      110.592
     NS sqrt iter    4 1.00000000   0.187E-02       0.001      110.592
     NS sqrt iter    5 1.00000000   0.525E-07       0.001       70.016
     Final NS sqrt iter    5 1.00000000   0.346E-09

     Est. extremal eigenvalues     -0.92372     1.66753  converged:  T
     TRS4 it   1 1.00000000   0.873E+00       0.000       16.128   0.100E-07
     TRS4 it   2 1.00000000   0.615E+00       0.001       32.256   0.100E-07
     TRS4 it   3 1.00000000   0.419E+00       0.001       32.256   0.100E-07
     TRS4 it   4 1.00000000   0.216E+00       0.001       32.256   0.100E-07
     TRS4 it   5 1.00000000   0.724E-01       0.001       32.256   0.100E-07
     TRS4 it   6 1.00000000   0.104E-01       0.001       32.256   0.100E-07
     TRS4 it   7 1.00000000   0.294E-03       0.001       32.256   0.100E-07
     TRS4 it   8 1.00000000   0.325E-06       0.001       32.256   0.100E-07
     TRS4 it   9 1.00000000   0.455E-12       0.001       32.256   0.100E-07
     Final TRS4 iteration    9 1.00000000   0.455E-12
     Chemical potential (mu):      -0.01180
 
 PAO| energy:  -7.7646053992468502      penalty:   1.4188400091419983E-005
 PAO|CG| trace_G_new    1.4221193170297162E-002
 PAO|CG| trace_G_prev    4.0416778265618326E-002
 PAO|CG| trace_G_mix   -6.3295365956579511E-004
 PAO|CG| trace_D    4.9732495362030754E-002
 PAO|CG| trace_D_Gnew   2.6105034999067476E-004
 PAO|CG| beta:   0.36752426757624707     
 PAO| norm of gradient:  0.11925264429058653     
 PAO| energy improvement:  -5.7652161027430537E-003
 PAO| step     12                   -7.764605399  0.745E-02  0.293E+00     0.048
 PAO|LS| adapt:  T F F
 PAO|LS| adapt: scan_steps:    0.0000000000000000        0.0000000000000000        0.0000000000000000     
 PAO|LS| adapt: energies:   -7.7646053992468502        0.0000000000000000        0.0000000000000000     
 PAO| ======================= Iteration:        13 =============================

     Lanczos converged:  T threshold:   0.100E-02
     Est. extremal eigenvalues:    0.273E+01   0.187E+00
     Est. condition number :    0.146E+02
     NS sqrt iter    1 1.00000000   0.696E+00       0.001       64.512
     NS sqrt iter    2 1.00000000   0.322E+00       0.001      110.592
     NS sqrt iter    3 1.00000000   0.710E-01       0.001      110.592
     NS sqrt iter    4 1.00000000   0.155E-02       0.001      110.592
     NS sqrt iter    5 1.00000000   0.303E-07       0.001       62.464
     Final NS sqrt iter    5 1.00000000   0.331E-08

     Est. extremal eigenvalues     -0.92432     1.65908  converged:  T
     TRS4 it   1 1.00000000   0.872E+00       0.000       16.128   0.100E-07
     TRS4 it   2 1.00000000   0.611E+00       0.001       32.256   0.100E-07
     TRS4 it   3 1.00000000   0.414E+00       0.001       32.256   0.100E-07
     TRS4 it   4 1.00000000   0.210E+00       0.001       32.256   0.100E-07
     TRS4 it   5 1.00000000   0.682E-01       0.001       32.256   0.100E-07
     TRS4 it   6 1.00000000   0.918E-02       0.001       32.256   0.100E-07
     TRS4 it   7 1.00000000   0.229E-03       0.001       32.256   0.100E-07
     TRS4 it   8 1.00000000   0.196E-06       0.001       32.256   0.100E-07
     TRS4 it   9 1.00000000   0.166E-12       0.001       32.256   0.100E-07
     Final TRS4 iteration    9 1.00000000   0.166E-12
     Chemical potential (mu):      -0.00759
 
 PAO| energy:  -7.7671093784296996      penalty:   1.4698307638446956E-005
 PAO|LS| adapt:  T T F
 PAO|LS| adapt: scan_steps:    0.0000000000000000       0.29345000519574765        0.0000000000000000     
 PAO|LS| adapt: energies:   -7.7646053992468502       -7.7671093784296996        0.0000000000000000     
 PAO| ======================= Iteration:        14 =============================

     Lanczos converged:  T threshold:   0.100E-02
     Est. extremal eigenvalues:    0.269E+01   0.192E+00
     Est. condition number :    0.141E+02
     NS sqrt iter    1 1.00000000   0.689E+00       0.001       64.512
     NS sqrt iter    2 1.00000000   0.314E+00       0.001      110.592
     NS sqrt iter    3 1.00000000   0.668E-01       0.001      110.592
     NS sqrt iter    4 1.00000000   0.129E-02       0.001      110.592
     NS sqrt iter    5 1.00000000   0.168E-07       0.001       51.456
     Final NS sqrt iter    5 1.00000000   0.467E-08

     Est. extremal eigenvalues     -0.92427     1.65130  converged:  T
     TRS4 it   1 1.00000000   0.871E+00       0.000       16.128   0.100E-07
     TRS4 it   2 1.00000000   0.607E+00       0.001       32.256   0.100E-07
     TRS4 it   3 1.00000000   0.409E+00       0.001       32.256   0.100E-07
     TRS4 it   4 1.00000000   0.204E+00       0.001       32.256   0.100E-07
     TRS4 it   5 1.00000000   0.644E-01       0.001       32.256   0.100E-07
     TRS4 it   6 1.00000000   0.813E-02       0.001       32.256   0.100E-07
     TRS4 it   7 1.00000000   0.178E-03       0.001       32.256   0.100E-07
     TRS4 it   8 1.00000000   0.119E-06       0.001       32.256   0.100E-07
     TRS4 it   9 1.00000000   0.616E-13       0.001       32.256   0.100E-07
     Final TRS4 iteration    9 1.00000000   0.616E-13
     Chemical potential (mu):      -0.00351
 
 PAO| energy:  -7.7663934059487207      penalty:   1.5829931001031870E-005
 PAO|LS| adapt:  T T T
 PAO|LS| adapt: scan_steps:    0.0000000000000000       0.29345000519574765       0.58690001039149531     
 PAO|LS| adapt: energies:   -7.7646053992468502       -7.7671093784296996       -7.7663934059487207     
 PAO|LS| adapt: suggested step_size:   0.37492492015302969     
 PAO|LS| adapt: predicted energy  -7.7672334861920085     
 PAO| ======================= Iteration:        15 =============================

     Lanczos converged:  T threshold:   0.100E-02
     Est. extremal eigenvalues:    0.272E+01   0.188E+00
     Est. condition number :    0.145E+02
     NS sqrt iter    1 1.00000000   0.694E+00       0.001       64.512
     NS sqrt iter    2 1.00000000   0.319E+00       0.001      110.592
     NS sqrt iter    3 1.00000000   0.698E-01       0.001      110.592
     NS sqrt iter    4 1.00000000   0.148E-02       0.001      110.592
     NS sqrt iter    5 1.00000000   0.259E-07       0.001       60.416
     Final NS sqrt iter    5 1.00000000   0.396E-08

     Est. extremal eigenvalues     -0.92437     1.65685  converged:  T
     TRS4 it   1 1.00000000   0.871E+00       0.000       16.128   0.100E-07
     TRS4 it   2 1.00000000   0.610E+00       0.001       32.256   0.100E-07
     TRS4 it   3 1.00000000   0.413E+00       0.001       32.256   0.100E-07
     TRS4 it   4 1.00000000   0.208E+00       0.001       32.256   0.100E-07
     TRS4 it   5 1.00000000   0.671E-01       0.001       32.256   0.100E-07
     TRS4 it   6 1.00000000   0.888E-02       0.001       32.256   0.100E-07
     TRS4 it   7 1.00000000   0.213E-03       0.001       32.256   0.100E-07
     TRS4 it   8 1.00000000   0.171E-06       0.001       32.256   0.100E-07
     TRS4 it   9 1.00000000   0.126E-12       0.001       32.256   0.100E-07
     Final TRS4 iteration    9 1.00000000   0.126E-12
     Chemical potential (mu):      -0.00644
 
 PAO| energy:  -7.7672294712274468      penalty:   1.4945060721950490E-005
 PAO|CG| trace_G_new    3.1052135012288136E-003
 PAO|CG| trace_G_prev    1.4221193170297162E-002
 PAO|CG| trace_G_mix    9.9967426465515287E-005
 PAO|CG| trace_D    2.0746879910997489E-002
 PAO|CG| trace_D_Gnew   4.1141379733752158E-005
 PAO|CG| beta:   0.21132165485524460     
 PAO| norm of gradient:   5.5724442583383577E-002
 PAO| energy improvement:  -2.6240719805965540E-003
 PAO| step     15                   -7.767229471  0.348E-02  0.375E+00     0.048
 PAO|LS| adapt:  T F F
 PAO|LS| adapt: scan_steps:    0.0000000000000000        0.0000000000000000        0.0000000000000000     
 PAO|LS| adapt: energies:   -7.7672294712274468        0.0000000000000000        0.0000000000000000     
 PAO| ======================= Iteration:        16 =============================

     Lanczos converged:  T threshold:   0.100E-02
     Est. extremal eigenvalues:    0.271E+01   0.189E+00
     Est. condition number :    0.144E+02
     NS sqrt iter    1 1.00000000   0.692E+00       0.001       64.512
     NS sqrt iter    2 1.00000000   0.318E+00       0.001      110.592
     NS sqrt iter    3 1.00000000   0.692E-01       0.001      110.592
     NS sqrt iter    4 1.00000000   0.143E-02       0.001      110.592
     NS sqrt iter    5 1.00000000   0.233E-07       0.001       59.264
     Final NS sqrt iter    5 1.00000000   0.240E-08

     Est. extremal eigenvalues     -0.92439     1.65550  converged:  T
     TRS4 it   1 1.00000000   0.871E+00       0.000       16.128   0.100E-07
     TRS4 it   2 1.00000000   0.609E+00       0.001       32.256   0.100E-07
     TRS4 it   3 1.00000000   0.411E+00       0.001       32.256   0.100E-07
     TRS4 it   4 1.00000000   0.207E+00       0.001       32.256   0.100E-07
     TRS4 it   5 1.00000000   0.659E-01       0.001       32.256   0.100E-07
     TRS4 it   6 1.00000000   0.857E-02       0.001       32.256   0.100E-07
     TRS4 it   7 1.00000000   0.200E-03       0.001       32.256   0.100E-07
     TRS4 it   8 1.00000000   0.151E-06       0.001       32.256   0.100E-07
     TRS4 it   9 1.00000000   0.984E-13       0.001       32.256   0.100E-07
     Final TRS4 iteration    9 1.00000000   0.984E-13
     Chemical potential (mu):      -0.00559
 
 PAO| energy:  -7.7673580431325950      penalty:   1.4825684820875974E-005
 PAO|LS| adapt:  T T F
 PAO|LS| adapt: scan_steps:    0.0000000000000000       0.37492492015302969        0.0000000000000000     
 PAO|LS| adapt: energies:   -7.7672294712274468       -7.7673580431325950        0.0000000000000000     
 PAO| ======================= Iteration:        17 =============================

     Lanczos converged:  T threshold:   0.100E-02
     Est. extremal eigenvalues:    0.270E+01   0.190E+00
     Est. condition number :    0.143E+02
     NS sqrt iter    1 1.00000000   0.690E+00       0.001       64.512
     NS sqrt iter    2 1.00000000   0.317E+00       0.001      110.592
     NS sqrt iter    3 1.00000000   0.686E-01       0.001      110.592
     NS sqrt iter    4 1.00000000   0.139E-02       0.001      110.592
     NS sqrt iter    5 1.00000000   0.211E-07       0.001       58.368
     Final NS sqrt iter    5 1.00000000   0.222E-08

     Est. extremal eigenvalues     -0.92430     1.65423  converged:  T
     TRS4 it   1 1.00000000   0.871E+00       0.000       16.128   0.100E-07
     TRS4 it   2 1.00000000   0.608E+00       0.001       32.256   0.100E-07
     TRS4 it   3 1.00000000   0.409E+00       0.001       32.256   0.100E-07
     TRS4 it   4 1.00000000   0.205E+00       0.001       32.256   0.100E-07
     TRS4 it   5 1.00000000   0.647E-01       0.001       32.256   0.100E-07
     TRS4 it   6 1.00000000   0.827E-02       0.001       32.256   0.100E-07
     TRS4 it   7 1.00000000   0.188E-03       0.001       32.256   0.100E-07
     TRS4 it   8 1.00000000   0.133E-06       0.001       32.256   0.100E-07
     TRS4 it   9 1.00000000   0.767E-13       0.001       32.256   0.100E-07
     Final TRS4 iteration    9 1.00000000   0.767E-13
     Chemical potential (mu):      -0.00473
 
 PAO| energy:  -7.7654129377977226      penalty:   1.4858928111245693E-005
 PAO|LS| adapt:  T T T
 PAO|LS| adapt: scan_steps:    0.0000000000000000       0.37492492015302969       0.74984984030605939     
 PAO|LS| adapt: energies:   -7.7672294712274468       -7.7673580431325950       -7.7654129377977226     
 PAO|LS| adapt: suggested step_size:   0.21070851319476722     
 PAO|LS| adapt: predicted energy  -7.7675569526854922     
 PAO| ======================= Iteration:        18 =============================

     Lanczos converged:  T threshold:   0.100E-02
     Est. extremal eigenvalues:    0.271E+01   0.188E+00
     Est. condition number :    0.144E+02
     NS sqrt iter    1 1.00000000   0.693E+00       0.001       64.512
     NS sqrt iter    2 1.00000000   0.319E+00       0.001      110.592
     NS sqrt iter    3 1.00000000   0.695E-01       0.001      110.592
     NS sqrt iter    4 1.00000000   0.145E-02       0.001      110.592
     NS sqrt iter    5 1.00000000   0.244E-07       0.001       59.520
     Final NS sqrt iter    5 1.00000000   0.248E-08

     Est. extremal eigenvalues     -0.92440     1.65608  converged:  T
     TRS4 it   1 1.00000000   0.871E+00       0.000       16.128   0.100E-07
     TRS4 it   2 1.00000000   0.609E+00       0.001       32.256   0.100E-07
     TRS4 it   3 1.00000000   0.412E+00       0.001       32.256   0.100E-07
     TRS4 it   4 1.00000000   0.207E+00       0.001       32.256   0.100E-07
     TRS4 it   5 1.00000000   0.664E-01       0.001       32.256   0.100E-07
     TRS4 it   6 1.00000000   0.870E-02       0.001       32.256   0.100E-07
     TRS4 it   7 1.00000000   0.206E-03       0.001       32.256   0.100E-07
     TRS4 it   8 1.00000000   0.159E-06       0.001       32.256   0.100E-07
     TRS4 it   9 1.00000000   0.110E-12       0.001       32.256   0.100E-07
     Final TRS4 iteration    9 1.00000000   0.110E-12
     Chemical potential (mu):      -0.00596
 
 PAO| energy:  -7.7675561989709534      penalty:   1.4859651995672907E-005
 PAO|CG| trace_G_new    8.4225055081159816E-004
 PAO|CG| trace_G_prev    3.1052135012288136E-003
 PAO|CG| trace_G_mix    2.3326262871777330E-006
 PAO|CG| trace_D    4.0143155065843145E-003
 PAO|CG| trace_D_Gnew  -2.5787514087731714E-006
 PAO|CG| beta:   0.27048636887352290     
 PAO| norm of gradient:   2.9021553211563269E-002
 PAO| energy improvement:  -3.2672774350661626E-004
 PAO| step     18                   -7.767556199  0.181E-02  0.211E+00     0.048
 PAO|LS| adapt:  T F F
 PAO|LS| adapt: scan_steps:    0.0000000000000000        0.0000000000000000        0.0000000000000000     
 PAO|LS| adapt: energies:   -7.7675561989709534        0.0000000000000000        0.0000000000000000     
 PAO| ======================= Iteration:        19 =============================

     Lanczos converged:  T threshold:   0.100E-02
     Est. extremal eigenvalues:    0.271E+01   0.188E+00
     Est. condition number :    0.144E+02
     NS sqrt iter    1 1.00000000   0.693E+00       0.001       64.512
     NS sqrt iter    2 1.00000000   0.319E+00       0.001      110.592
     NS sqrt iter    3 1.00000000   0.697E-01       0.001      110.592
     NS sqrt iter    4 1.00000000   0.146E-02       0.001      110.592
     NS sqrt iter    5 1.00000000   0.248E-07       0.001       59.904
     Final NS sqrt iter    5 1.00000000   0.390E-08

     Est. extremal eigenvalues     -0.92440     1.65624  converged:  T
     TRS4 it   1 1.00000000   0.871E+00       0.000       16.128   0.100E-07
     TRS4 it   2 1.00000000   0.609E+00       0.001       32.256   0.100E-07
     TRS4 it   3 1.00000000   0.412E+00       0.001       32.256   0.100E-07
     TRS4 it   4 1.00000000   0.207E+00       0.001       32.256   0.100E-07
     TRS4 it   5 1.00000000   0.663E-01       0.001       32.256   0.100E-07
     TRS4 it   6 1.00000000   0.870E-02       0.001       32.256   0.100E-07
     TRS4 it   7 1.00000000   0.207E-03       0.001       32.256   0.100E-07
     TRS4 it   8 1.00000000   0.160E-06       0.001       32.256   0.100E-07
     TRS4 it   9 1.00000000   0.112E-12       0.001       32.256   0.100E-07
     Final TRS4 iteration    9 1.00000000   0.112E-12
     Chemical potential (mu):      -0.00613
 
 PAO| energy:  -7.7676922712608789      penalty:   1.4593890229589687E-005
 PAO|LS| adapt:  T T F
 PAO|LS| adapt: scan_steps:    0.0000000000000000       0.21070851319476722        0.0000000000000000     
 PAO|LS| adapt: energies:   -7.7675561989709534       -7.7676922712608789        0.0000000000000000     
 PAO| ======================= Iteration:        20 =============================

     Lanczos converged:  T threshold:   0.100E-02
     Est. extremal eigenvalues:    0.271E+01   0.188E+00
     Est. condition number :    0.144E+02
     NS sqrt iter    1 1.00000000   0.693E+00       0.001       64.512
     NS sqrt iter    2 1.00000000   0.319E+00       0.001      110.592
     NS sqrt iter    3 1.00000000   0.700E-01       0.001      110.592
     NS sqrt iter    4 1.00000000   0.147E-02       0.001      110.592
     NS sqrt iter    5 1.00000000   0.251E-07       0.001       60.160
     Final NS sqrt iter    5 1.00000000   0.403E-08

     Est. extremal eigenvalues     -0.92440     1.65641  converged:  T
     TRS4 it   1 1.00000000   0.871E+00       0.000       16.128   0.100E-07
     TRS4 it   2 1.00000000   0.609E+00       0.001       32.256   0.100E-07
     TRS4 it   3 1.00000000   0.412E+00       0.001       32.256   0.100E-07
     TRS4 it   4 1.00000000   0.207E+00       0.001       32.256   0.100E-07
     TRS4 it   5 1.00000000   0.663E-01       0.001       32.256   0.100E-07
     TRS4 it   6 1.00000000   0.870E-02       0.001       32.256   0.100E-07
     TRS4 it   7 1.00000000   0.207E-03       0.001       32.256   0.100E-07
     TRS4 it   8 1.00000000   0.162E-06       0.001       32.256   0.100E-07
     TRS4 it   9 1.00000000   0.113E-12       0.001       32.256   0.100E-07
     Final TRS4 iteration    9 1.00000000   0.113E-12
     Chemical potential (mu):      -0.00630
 
 PAO| energy:  -7.7677447187202588      penalty:   1.4340856171070860E-005
 PAO|LS| adapt:  T T F
 PAO|LS| adapt: scan_steps:    0.0000000000000000       0.42141702638953443        0.0000000000000000     
 PAO|LS| adapt: energies:   -7.7675561989709534       -7.7677447187202588        0.0000000000000000     
 PAO| ======================= Iteration:        21 =============================

     Lanczos converged:  T threshold:   0.100E-02
     Est. extremal eigenvalues:    0.271E+01   0.188E+00
     Est. condition number :    0.145E+02
     NS sqrt iter    1 1.00000000   0.693E+00       0.001       64.512
     NS sqrt iter    2 1.00000000   0.320E+00       0.001      110.592
     NS sqrt iter    3 1.00000000   0.705E-01       0.001      110.592
     NS sqrt iter    4 1.00000000   0.149E-02       0.001      110.592
     NS sqrt iter    5 1.00000000   0.261E-07       0.001       61.824
     Final NS sqrt iter    5 1.00000000   0.947E-09

     Est. extremal eigenvalues     -0.92439     1.65675  converged:  T
     TRS4 it   1 1.00000000   0.871E+00       0.000       16.128   0.100E-07
     TRS4 it   2 1.00000000   0.609E+00       0.001       32.256   0.100E-07
     TRS4 it   3 1.00000000   0.411E+00       0.001       32.256   0.100E-07
     TRS4 it   4 1.00000000   0.207E+00       0.001       32.256   0.100E-07
     TRS4 it   5 1.00000000   0.661E-01       0.001       32.256   0.100E-07
     TRS4 it   6 1.00000000   0.869E-02       0.001       32.256   0.100E-07
     TRS4 it   7 1.00000000   0.209E-03       0.001       32.256   0.100E-07
     TRS4 it   8 1.00000000   0.165E-06       0.001       32.256   0.100E-07
     TRS4 it   9 1.00000000   0.117E-12       0.001       32.256   0.100E-07
     Final TRS4 iteration    9 1.00000000   0.117E-12
     Chemical potential (mu):      -0.00666
 
 PAO| energy:  -7.7675955362129967      penalty:   1.3872602131672106E-005
 PAO|LS| Need extra step
 PAO|LS| adapt:  T T T
 PAO|LS| adapt: scan_steps:    0.0000000000000000       0.42141702638953443       0.84283405277906887     
 PAO|LS| adapt: energies:   -7.7675561989709534       -7.7677447187202588       -7.7675955362129967     
 PAO|LS| adapt: suggested step_size:   0.44596140423400943     
 PAO|LS| adapt: predicted energy  -7.7677452914950118     
 PAO| ======================= Iteration:        22 =============================

     Lanczos converged:  T threshold:   0.100E-02
     Est. extremal eigenvalues:    0.271E+01   0.188E+00
     Est. condition number :    0.144E+02
     NS sqrt iter    1 1.00000000   0.693E+00       0.001       64.512
     NS sqrt iter    2 1.00000000   0.319E+00       0.001      110.592
     NS sqrt iter    3 1.00000000   0.700E-01       0.001      110.592
     NS sqrt iter    4 1.00000000   0.147E-02       0.001      110.592
     NS sqrt iter    5 1.00000000   0.252E-07       0.001       60.160
     Final NS sqrt iter    5 1.00000000   0.405E-08

     Est. extremal eigenvalues     -0.92439     1.65643  converged:  T
     TRS4 it   1 1.00000000   0.871E+00       0.000       16.128   0.100E-07
     TRS4 it   2 1.00000000   0.609E+00       0.001       32.256   0.100E-07
     TRS4 it   3 1.00000000   0.412E+00       0.001       32.256   0.100E-07
     TRS4 it   4 1.00000000   0.207E+00       0.001       32.256   0.100E-07
     TRS4 it   5 1.00000000   0.663E-01       0.001       32.256   0.100E-07
     TRS4 it   6 1.00000000   0.870E-02       0.001       32.256   0.100E-07
     TRS4 it   7 1.00000000   0.207E-03       0.001       32.256   0.100E-07
     TRS4 it   8 1.00000000   0.162E-06       0.001       32.256   0.100E-07
     TRS4 it   9 1.00000000   0.113E-12       0.001       32.256   0.100E-07
     Final TRS4 iteration    9 1.00000000   0.113E-12
     Chemical potential (mu):      -0.00633
 
 PAO| energy:  -7.7677453536196817      penalty:   1.4312202821864915E-005
 PAO|CG| trace_G_new    2.3090147213508498E-004
 PAO|CG| trace_G_prev    8.4225055081159816E-004
 PAO|CG| trace_G_mix    4.5037197742351242E-006
 PAO|CG| trace_D    1.1373444516361800E-003
 PAO|CG| trace_D_Gnew  -2.5139444963735261E-006
 PAO|CG| beta:   0.26880095494469131     
 PAO| norm of gradient:   1.5195442479081844E-002
 PAO| energy improvement:  -1.8915464872826249E-004
 PAO| step     22                   -7.767745354  0.950E-03  0.446E+00     0.062
 PAO|LS| adapt:  T F F
 PAO|LS| adapt: scan_steps:    0.0000000000000000        0.0000000000000000        0.0000000000000000     
 PAO|LS| adapt: energies:   -7.7677453536196817        0.0000000000000000        0.0000000000000000     
 PAO| ======================= Iteration:        23 =============================

     Lanczos converged:  T threshold:   0.100E-02
     Est. extremal eigenvalues:    0.271E+01   0.188E+00
     Est. condition number :    0.144E+02
     NS sqrt iter    1 1.00000000   0.693E+00       0.001       64.512
     NS sqrt iter    2 1.00000000   0.319E+00       0.001      110.592
     NS sqrt iter    3 1.00000000   0.700E-01       0.001      110.592
     NS sqrt iter    4 1.00000000   0.147E-02       0.001      110.592
     NS sqrt iter    5 1.00000000   0.251E-07       0.001       60.160
     Final NS sqrt iter    5 1.00000000   0.408E-08

     Est. extremal eigenvalues     -0.92439     1.65656  converged:  T
     TRS4 it   1 1.00000000   0.871E+00       0.000       16.128   0.100E-07
     TRS4 it   2 1.00000000   0.609E+00       0.001       32.256   0.100E-07
     TRS4 it   3 1.00000000   0.412E+00       0.001       32.256   0.100E-07
     TRS4 it   4 1.00000000   0.207E+00       0.001       32.256   0.100E-07
     TRS4 it   5 1.00000000   0.664E-01       0.001       32.256   0.100E-07
     TRS4 it   6 1.00000000   0.875E-02       0.001       32.256   0.100E-07
     TRS4 it   7 1.00000000   0.210E-03       0.001       32.256   0.100E-07
     TRS4 it   8 1.00000000   0.166E-06       0.001       32.256   0.100E-07
     TRS4 it   9 1.00000000   0.119E-12       0.001       32.256   0.100E-07
     Final TRS4 iteration    9 1.00000000   0.119E-12
     Chemical potential (mu):      -0.00654
 
 PAO| energy:  -7.7677850840305167      penalty:   1.3665299711404104E-005
 PAO|LS| adapt:  T T F
 PAO|LS| adapt: scan_steps:    0.0000000000000000       0.44596140423400943        0.0000000000000000     
 PAO|LS| adapt: energies:   -7.7677453536196817       -7.7677850840305167        0.0000000000000000     
 PAO| ======================= Iteration:        24 =============================

     Lanczos converged:  T threshold:   0.100E-02
     Est. extremal eigenvalues:    0.272E+01   0.188E+00
     Est. condition number :    0.144E+02
     NS sqrt iter    1 1.00000000   0.693E+00       0.001       64.161
     NS sqrt iter    2 1.00000000   0.319E+00       0.001      110.592
     NS sqrt iter    3 1.00000000   0.700E-01       0.001      110.592
     NS sqrt iter    4 1.00000000   0.147E-02       0.001      110.592
     NS sqrt iter    5 1.00000000   0.251E-07       0.001       60.160
     Final NS sqrt iter    5 1.00000000   0.412E-08

     Est. extremal eigenvalues     -0.92439     1.65668  converged:  T
     TRS4 it   1 1.00000000   0.871E+00       0.000       16.128   0.100E-07
     TRS4 it   2 1.00000000   0.610E+00       0.001       32.256   0.100E-07
     TRS4 it   3 1.00000000   0.412E+00       0.001       32.256   0.100E-07
     TRS4 it   4 1.00000000   0.208E+00       0.001       32.256   0.100E-07
     TRS4 it   5 1.00000000   0.666E-01       0.001       32.256   0.100E-07
     TRS4 it   6 1.00000000   0.880E-02       0.001       32.256   0.100E-07
     TRS4 it   7 1.00000000   0.212E-03       0.001       32.256   0.100E-07
     TRS4 it   8 1.00000000   0.170E-06       0.001       32.256   0.100E-07
     TRS4 it   9 1.00000000   0.125E-12       0.001       32.256   0.100E-07
     Final TRS4 iteration    9 1.00000000   0.125E-12
     Chemical potential (mu):      -0.00674
 
 PAO| energy:  -7.7676971061444195      penalty:   1.3044353452138828E-005
 PAO|LS| adapt:  T T T
 PAO|LS| adapt: scan_steps:    0.0000000000000000       0.44596140423400943       0.89192280846801886     
 PAO|LS| adapt: energies:   -7.7677453536196817       -7.7677850840305167       -7.7676971061444195     
 PAO|LS| adapt: suggested step_size:   0.36172055091632010     
 PAO|LS| adapt: predicted energy  -7.7677873624835687     
 PAO| ======================= Iteration:        25 =============================

     Lanczos converged:  T threshold:   0.100E-02
     Est. extremal eigenvalues:    0.271E+01   0.188E+00
     Est. condition number :    0.144E+02
     NS sqrt iter    1 1.00000000   0.693E+00       0.001       64.512
     NS sqrt iter    2 1.00000000   0.319E+00       0.001      110.592
     NS sqrt iter    3 1.00000000   0.700E-01       0.001      110.592
     NS sqrt iter    4 1.00000000   0.147E-02       0.001      110.592
     NS sqrt iter    5 1.00000000   0.251E-07       0.001       60.160
     Final NS sqrt iter    5 1.00000000   0.408E-08

     Est. extremal eigenvalues     -0.92439     1.65653  converged:  T
     TRS4 it   1 1.00000000   0.871E+00       0.000       16.128   0.100E-07
     TRS4 it   2 1.00000000   0.609E+00       0.001       32.256   0.100E-07
     TRS4 it   3 1.00000000   0.412E+00       0.001       32.256   0.100E-07
     TRS4 it   4 1.00000000   0.207E+00       0.001       32.256   0.100E-07
     TRS4 it   5 1.00000000   0.664E-01       0.001       32.256   0.100E-07
     TRS4 it   6 1.00000000   0.874E-02       0.001       32.256   0.100E-07
     TRS4 it   7 1.00000000   0.209E-03       0.001       32.256   0.100E-07
     TRS4 it   8 1.00000000   0.165E-06       0.001       32.256   0.100E-07
     TRS4 it   9 1.00000000   0.118E-12       0.001       32.256   0.100E-07
     Final TRS4 iteration    9 1.00000000   0.118E-12
     Chemical potential (mu):      -0.00650
 
 PAO| energy:  -7.7677873342851189      penalty:   1.3785494093458440E-005
 PAO|CG| trace_G_new    7.2783929998447377E-005
 PAO|CG| trace_G_prev    2.3090147213508498E-004
 PAO|CG| trace_G_mix    2.6169092682510568E-007
 PAO|CG| trace_D    3.1443060648227866E-004
 PAO|CG| trace_D_Gnew  -3.1016622569487385E-007
 PAO|CG| beta:   0.31408305196596742     
 PAO| norm of gradient:   8.5313498344896967E-003
 PAO| energy improvement:  -4.1980665437257869E-005
 PAO| step     25                   -7.767787334  0.533E-03  0.362E+00     0.048
 PAO|LS| adapt:  T F F
 PAO|LS| adapt: scan_steps:    0.0000000000000000        0.0000000000000000        0.0000000000000000     
 PAO|LS| adapt: energies:   -7.7677873342851189        0.0000000000000000        0.0000000000000000     
 PAO| ======================= Iteration:        26 =============================

     Lanczos converged:  T threshold:   0.100E-02
     Est. extremal eigenvalues:    0.271E+01   0.188E+00
     Est. condition number :    0.144E+02
     NS sqrt iter    1 1.00000000   0.693E+00       0.001       64.512
     NS sqrt iter    2 1.00000000   0.319E+00       0.001      110.592
     NS sqrt iter    3 1.00000000   0.699E-01       0.001      110.592
     NS sqrt iter    4 1.00000000   0.147E-02       0.001      110.592
     NS sqrt iter    5 1.00000000   0.249E-07       0.001       60.160
     Final NS sqrt iter    5 1.00000000   0.400E-08

     Est. extremal eigenvalues     -0.92440     1.65624  converged:  T
     TRS4 it   1 1.00000000   0.871E+00       0.000       16.128   0.100E-07
     TRS4 it   2 1.00000000   0.609E+00       0.001       32.256   0.100E-07
     TRS4 it   3 1.00000000   0.412E+00       0.001       32.256   0.100E-07
     TRS4 it   4 1.00000000   0.207E+00       0.001       32.256   0.100E-07
     TRS4 it   5 1.00000000   0.664E-01       0.001       32.256   0.100E-07
     TRS4 it   6 1.00000000   0.873E-02       0.001       32.256   0.100E-07
     TRS4 it   7 1.00000000   0.209E-03       0.001       32.256   0.100E-07
     TRS4 it   8 1.00000000   0.164E-06       0.001       32.256   0.100E-07
     TRS4 it   9 1.00000000   0.116E-12       0.001       32.256   0.100E-07
     Final TRS4 iteration    9 1.00000000   0.116E-12
     Chemical potential (mu):      -0.00645
 
 PAO| energy:  -7.7677940310185685      penalty:   1.3223216467429744E-005
 PAO|LS| adapt:  T T F
 PAO|LS| adapt: scan_steps:    0.0000000000000000       0.36172055091632010        0.0000000000000000     
 PAO|LS| adapt: energies:   -7.7677873342851189       -7.7677940310185685        0.0000000000000000     
 PAO| ======================= Iteration:        27 =============================

     Lanczos converged:  T threshold:   0.100E-02
     Est. extremal eigenvalues:    0.271E+01   0.188E+00
     Est. condition number :    0.144E+02
     NS sqrt iter    1 1.00000000   0.693E+00       0.001       64.512
     NS sqrt iter    2 1.00000000   0.319E+00       0.001      110.592
     NS sqrt iter    3 1.00000000   0.698E-01       0.001      110.592
     NS sqrt iter    4 1.00000000   0.146E-02       0.001      110.592
     NS sqrt iter    5 1.00000000   0.247E-07       0.001       59.904
     Final NS sqrt iter    5 1.00000000   0.392E-08

     Est. extremal eigenvalues     -0.92440     1.65595  converged:  T
     TRS4 it   1 1.00000000   0.871E+00       0.000       16.128   0.100E-07
     TRS4 it   2 1.00000000   0.609E+00       0.001       32.256   0.100E-07
     TRS4 it   3 1.00000000   0.412E+00       0.001       32.256   0.100E-07
     TRS4 it   4 1.00000000   0.207E+00       0.001       32.256   0.100E-07
     TRS4 it   5 1.00000000   0.664E-01       0.001       32.256   0.100E-07
     TRS4 it   6 1.00000000   0.872E-02       0.001       32.256   0.100E-07
     TRS4 it   7 1.00000000   0.208E-03       0.001       32.256   0.100E-07
     TRS4 it   8 1.00000000   0.163E-06       0.001       32.256   0.100E-07
     TRS4 it   9 1.00000000   0.116E-12       0.001       32.256   0.100E-07
     Final TRS4 iteration    9 1.00000000   0.116E-12
     Chemical potential (mu):      -0.00640
 
 PAO| energy:  -7.7677613432757608      penalty:   1.2674779906980524E-005
 PAO|LS| adapt:  T T T
 PAO|LS| adapt: scan_steps:    0.0000000000000000       0.36172055091632010       0.72344110183264021     
 PAO|LS| adapt: energies:   -7.7677873342851189       -7.7677940310185685       -7.7677613432757608     
 PAO|LS| adapt: suggested step_size:   0.24236537449499643     
 PAO|LS| adapt: predicted energy  -7.7677961750504050     
 PAO| ======================= Iteration:        28 =============================

     Lanczos converged:  T threshold:   0.100E-02
     Est. extremal eigenvalues:    0.271E+01   0.188E+00
     Est. condition number :    0.144E+02
     NS sqrt iter    1 1.00000000   0.693E+00       0.001       64.512
     NS sqrt iter    2 1.00000000   0.319E+00       0.001      110.592
     NS sqrt iter    3 1.00000000   0.699E-01       0.001      110.592
     NS sqrt iter    4 1.00000000   0.147E-02       0.001      110.592
     NS sqrt iter    5 1.00000000   0.250E-07       0.001       60.160
     Final NS sqrt iter    5 1.00000000   0.402E-08

     Est. extremal eigenvalues     -0.92440     1.65634  converged:  T
     TRS4 it   1 1.00000000   0.871E+00       0.000       16.128   0.100E-07
     TRS4 it   2 1.00000000   0.609E+00       0.001       32.256   0.100E-07
     TRS4 it   3 1.00000000   0.412E+00       0.001       32.256   0.100E-07
     TRS4 it   4 1.00000000   0.207E+00       0.001       32.256   0.100E-07
     TRS4 it   5 1.00000000   0.664E-01       0.001       32.256   0.100E-07
     TRS4 it   6 1.00000000   0.873E-02       0.001       32.256   0.100E-07
     TRS4 it   7 1.00000000   0.209E-03       0.001       32.256   0.100E-07
     TRS4 it   8 1.00000000   0.165E-06       0.001       32.256   0.100E-07
     TRS4 it   9 1.00000000   0.117E-12       0.001       32.256   0.100E-07
     Final TRS4 iteration    9 1.00000000   0.117E-12
     Chemical potential (mu):      -0.00646
 
 PAO| energy:  -7.7677961711583565      penalty:   1.3407212444687371E-005
 PAO|CG| trace_G_new    1.7534278758055405E-005
 PAO|CG| trace_G_prev    7.2783929998447377E-005
 PAO|CG| trace_G_mix    4.9981763656473792E-008
 PAO|CG| trace_D    1.0399676779582385E-004
 PAO|CG| trace_D_Gnew  -2.4732386359346432E-008
 PAO|CG| beta:   0.24022194177714648     
 PAO| norm of gradient:   4.1873952235316177E-003
 PAO| energy improvement:  -8.8368732376054027E-006
 PAO| step     28                   -7.767796171  0.262E-03  0.242E+00     0.049
 PAO|LS| adapt:  T F F
 PAO|LS| adapt: scan_steps:    0.0000000000000000        0.0000000000000000        0.0000000000000000     
 PAO|LS| adapt: energies:   -7.7677961711583565        0.0000000000000000        0.0000000000000000     
 PAO| ======================= Iteration:        29 =============================

     Lanczos converged:  T threshold:   0.100E-02
     Est. extremal eigenvalues:    0.271E+01   0.188E+00
     Est. condition number :    0.144E+02
     NS sqrt iter    1 1.00000000   0.693E+00       0.001       64.512
     NS sqrt iter    2 1.00000000   0.319E+00       0.001      110.592
     NS sqrt iter    3 1.00000000   0.699E-01       0.001      110.592
     NS sqrt iter    4 1.00000000   0.146E-02       0.001      100.001
     NS sqrt iter    5 1.00000000   0.249E-07       0.001       60.160
     Final NS sqrt iter    5 1.00000000   0.397E-08

     Est. extremal eigenvalues     -0.92440     1.65629  converged:  T
     TRS4 it   1 1.00000000   0.871E+00       0.000       16.128   0.100E-07
     TRS4 it   2 1.00000000   0.609E+00       0.001       32.256   0.100E-07
     TRS4 it   3 1.00000000   0.412E+00       0.001       32.256   0.100E-07
     TRS4 it   4 1.00000000   0.207E+00       0.001       32.256   0.100E-07
     TRS4 it   5 1.00000000   0.663E-01       0.001       32.256   0.100E-07
     TRS4 it   6 1.00000000   0.872E-02       0.001       32.256   0.100E-07
     TRS4 it   7 1.00000000   0.208E-03       0.001       32.256   0.100E-07
     TRS4 it   8 1.00000000   0.163E-06       0.001       32.256   0.100E-07
     TRS4 it   9 1.00000000   0.116E-12       0.001       32.256   0.100E-07
     Final TRS4 iteration    9 1.00000000   0.116E-12
     Chemical potential (mu):      -0.00640
 
 PAO| energy:  -7.7677998180040859      penalty:   1.3054763703684603E-005
 PAO|LS| adapt:  T T F
 PAO|LS| adapt: scan_steps:    0.0000000000000000       0.24236537449499643        0.0000000000000000     
 PAO|LS| adapt: energies:   -7.7677961711583565       -7.7677998180040859        0.0000000000000000     
 PAO| ======================= Iteration:        30 =============================

     Lanczos converged:  T threshold:   0.100E-02
     Est. extremal eigenvalues:    0.271E+01   0.188E+00
     Est. condition number :    0.144E+02
     NS sqrt iter    1 1.00000000   0.692E+00       0.001       64.305
     NS sqrt iter    2 1.00000000   0.319E+00       0.001      110.592
     NS sqrt iter    3 1.00000000   0.698E-01       0.001      110.592
     NS sqrt iter    4 1.00000000   0.146E-02       0.001      110.592
     NS sqrt iter    5 1.00000000   0.248E-07       0.001       60.160
     Final NS sqrt iter    5 1.00000000   0.393E-08

     Est. extremal eigenvalues     -0.92440     1.65624  converged:  T
     TRS4 it   1 1.00000000   0.871E+00       0.000       16.128   0.100E-07
     TRS4 it   2 1.00000000   0.609E+00       0.001       32.256   0.100E-07
     TRS4 it   3 1.00000000   0.412E+00       0.001       32.256   0.100E-07
     TRS4 it   4 1.00000000   0.207E+00       0.001       32.256   0.100E-07
     TRS4 it   5 1.00000000   0.663E-01       0.001       32.256   0.100E-07
     TRS4 it   6 1.00000000   0.870E-02       0.001       32.256   0.100E-07
     TRS4 it   7 1.00000000   0.208E-03       0.001       32.256   0.100E-07
     TRS4 it   8 1.00000000   0.162E-06       0.001       32.256   0.100E-07
     TRS4 it   9 1.00000000   0.114E-12       0.001       32.256   0.100E-07
     Final TRS4 iteration    9 1.00000000   0.114E-12
     Chemical potential (mu):      -0.00634
 
 PAO| energy:  -7.7678022560994702      penalty:   1.2707322707671238E-005
 PAO|LS| adapt:  T T F
 PAO|LS| adapt: scan_steps:    0.0000000000000000       0.48473074898999285        0.0000000000000000     
 PAO|LS| adapt: energies:   -7.7677961711583565       -7.7678022560994702        0.0000000000000000     
 PAO| ======================= Iteration:        31 =============================

     Lanczos converged:  T threshold:   0.100E-02
     Est. extremal eigenvalues:    0.271E+01   0.188E+00
     Est. condition number :    0.144E+02
     NS sqrt iter    1 1.00000000   0.692E+00       0.001       64.512
     NS sqrt iter    2 1.00000000   0.319E+00       0.001      110.592
     NS sqrt iter    3 1.00000000   0.697E-01       0.001      110.592
     NS sqrt iter    4 1.00000000   0.146E-02       0.001      110.592
     NS sqrt iter    5 1.00000000   0.247E-07       0.001       60.032
     Final NS sqrt iter    5 1.00000000   0.326E-08

     Est. extremal eigenvalues     -0.92440     1.65613  converged:  T
     TRS4 it   1 1.00000000   0.871E+00       0.000       16.128   0.100E-07
     TRS4 it   2 1.00000000   0.609E+00       0.001       32.256   0.100E-07
     TRS4 it   3 1.00000000   0.411E+00       0.001       32.256   0.100E-07
     TRS4 it   4 1.00000000   0.207E+00       0.001       32.256   0.100E-07
     TRS4 it   5 1.00000000   0.662E-01       0.001       32.256   0.100E-07
     TRS4 it   6 1.00000000   0.868E-02       0.001       32.256   0.100E-07
     TRS4 it   7 1.00000000   0.206E-03       0.001       32.256   0.100E-07
     TRS4 it   8 1.00000000   0.160E-06       0.001       32.256   0.100E-07
     TRS4 it   9 1.00000000   0.111E-12       0.001       32.256   0.100E-07
     Final TRS4 iteration    9 1.00000000   0.111E-12
     Chemical potential (mu):      -0.00621
 
 PAO| energy:  -7.7678035053106367      penalty:   1.2027413381242862E-005
 PAO|LS| Need extra step
 PAO|LS| adapt:  T T F
 PAO|LS| adapt: scan_steps:    0.0000000000000000       0.96946149797998571        0.0000000000000000     
 PAO|LS| adapt: energies:   -7.7677961711583565       -7.7678035053106367        0.0000000000000000     
 PAO| ======================= Iteration:        32 =============================

     Lanczos converged:  T threshold:   0.100E-02
     Est. extremal eigenvalues:    0.271E+01   0.188E+00
     Est. condition number :    0.144E+02
     NS sqrt iter    1 1.00000000   0.692E+00       0.001       64.512
     NS sqrt iter    2 1.00000000   0.319E+00       0.001      110.592
     NS sqrt iter    3 1.00000000   0.696E-01       0.001      110.592
     NS sqrt iter    4 1.00000000   0.145E-02       0.001      110.592
     NS sqrt iter    5 1.00000000   0.245E-07       0.001       59.904
     Final NS sqrt iter    5 1.00000000   0.240E-08

     Est. extremal eigenvalues     -0.92441     1.65592  converged:  T
     TRS4 it   1 1.00000000   0.872E+00       0.000       16.128   0.100E-07
     TRS4 it   2 1.00000000   0.609E+00       0.001       32.256   0.100E-07
     TRS4 it   3 1.00000000   0.411E+00       0.001       32.256   0.100E-07
     TRS4 it   4 1.00000000   0.207E+00       0.001       32.256   0.100E-07
     TRS4 it   5 1.00000000   0.660E-01       0.001       32.256   0.100E-07
     TRS4 it   6 1.00000000   0.862E-02       0.001       32.256   0.100E-07
     TRS4 it   7 1.00000000   0.203E-03       0.001       32.256   0.100E-07
     TRS4 it   8 1.00000000   0.156E-06       0.001       32.256   0.100E-07
     TRS4 it   9 1.00000000   0.105E-12       0.001       32.256   0.100E-07
     Final TRS4 iteration    9 1.00000000   0.105E-12
     Chemical potential (mu):      -0.00596
 
 PAO| energy:  -7.7677914808094943      penalty:   1.0727132735127901E-005
 PAO|LS| Need extra step
 PAO|LS| adapt:  T T T
 PAO|LS| adapt: scan_steps:    0.0000000000000000       0.96946149797998571        1.9389229959599714     
 PAO|LS| adapt: energies:   -7.7677961711583565       -7.7678035053106367       -7.7677914808094943     
 PAO|LS| adapt: suggested step_size:   0.85201756903652370     
 PAO|LS| adapt: predicted energy  -7.7678036473619185     
 PAO| ======================= Iteration:        33 =============================

     Lanczos converged:  T threshold:   0.100E-02
     Est. extremal eigenvalues:    0.271E+01   0.188E+00
     Est. condition number :    0.144E+02
     NS sqrt iter    1 1.00000000   0.692E+00       0.001       64.512
     NS sqrt iter    2 1.00000000   0.319E+00       0.001      110.592
     NS sqrt iter    3 1.00000000   0.698E-01       0.001      110.592
     NS sqrt iter    4 1.00000000   0.146E-02       0.001      110.592
     NS sqrt iter    5 1.00000000   0.247E-07       0.001       60.032
     Final NS sqrt iter    5 1.00000000   0.328E-08

     Est. extremal eigenvalues     -0.92440     1.65616  converged:  T
     TRS4 it   1 1.00000000   0.871E+00       0.000       16.128   0.100E-07
     TRS4 it   2 1.00000000   0.609E+00       0.001       32.256   0.100E-07
     TRS4 it   3 1.00000000   0.412E+00       0.001       32.256   0.100E-07
     TRS4 it   4 1.00000000   0.207E+00       0.001       32.256   0.100E-07
     TRS4 it   5 1.00000000   0.662E-01       0.001       32.256   0.100E-07
     TRS4 it   6 1.00000000   0.868E-02       0.001       32.256   0.100E-07
     TRS4 it   7 1.00000000   0.206E-03       0.001       32.256   0.100E-07
     TRS4 it   8 1.00000000   0.161E-06       0.001       32.256   0.100E-07
     TRS4 it   9 1.00000000   0.111E-12       0.001       32.256   0.100E-07
     Final TRS4 iteration    9 1.00000000   0.111E-12
     Chemical potential (mu):      -0.00624
 
 PAO| energy:  -7.7678036468827152      penalty:   1.2190317921407652E-005
 PAO|CG| trace_G_new    4.7167941258317495E-005
[...]
 PAO| ======================= Iteration:       958 =============================

     Lanczos converged:  T threshold:   0.100E-02
     Est. extremal eigenvalues:    0.250E+01   0.224E+00
     Est. condition number :    0.112E+02
     NS sqrt iter    1 1.00000000   0.633E+00       0.001       64.512
     NS sqrt iter    2 1.00000000   0.270E+00       0.001      110.592
     NS sqrt iter    3 1.00000000   0.441E-01       0.001      110.592
     NS sqrt iter    4 1.00000000   0.377E-03       0.001      110.080
     NS sqrt iter    5 1.00000000   0.312E-09       0.001       36.864
     Final NS sqrt iter    5 1.00000000   0.386E-10

     Est. extremal eigenvalues     -0.92419     1.49545  converged:  T
     TRS4 it   1 1.00000000   0.844E+00       0.000       16.128   0.100E-07
     TRS4 it   2 1.00000000   0.604E+00       0.001       32.256   0.100E-07
     TRS4 it   3 1.00000000   0.432E+00       0.001       32.256   0.100E-07
     TRS4 it   4 1.00000000   0.261E+00       0.001       32.256   0.100E-07
     TRS4 it   5 1.00000000   0.121E+00       0.001       32.256   0.100E-07
     TRS4 it   6 1.00000000   0.331E-01       0.001       32.256   0.100E-07
     TRS4 it   7 1.00000000   0.356E-02       0.001       32.256   0.100E-07
     TRS4 it   8 1.00000000   0.502E-04       0.001       32.256   0.100E-07
     TRS4 it   9 1.00000000   0.107E-07       0.001       32.256   0.100E-07
     Final TRS4 iteration    9 1.00000000   0.107E-07
     Chemical potential (mu):      -0.07956
 
 PAO| energy:  -7.7672710023868969      penalty:   1.7910740303871290E-011
 PAO|LS| Need extra step
 PAO|LS| adapt:  T T T
 PAO|LS| adapt: scan_steps:    0.0000000000000000       0.20000000000000001       0.40000000000000002     
 PAO|LS| adapt: energies:   -7.7672710023734055       -7.7672710023958027       -7.7672710023868969     
 PAO|LS| adapt: suggested step_size:   0.24309953467256842     
 PAO|LS| adapt: predicted energy  -7.7672710023965283     
 PAO| ======================= Iteration:       959 =============================

     Lanczos converged:  T threshold:   0.100E-02
     Est. extremal eigenvalues:    0.250E+01   0.224E+00
     Est. condition number :    0.112E+02
     NS sqrt iter    1 1.00000000   0.633E+00       0.001       64.512
     NS sqrt iter    2 1.00000000   0.270E+00       0.001      110.592
     NS sqrt iter    3 1.00000000   0.441E-01       0.001      110.592
     NS sqrt iter    4 1.00000000   0.377E-03       0.001      110.080
     NS sqrt iter    5 1.00000000   0.312E-09       0.001       36.864
     Final NS sqrt iter    5 1.00000000   0.386E-10

     Est. extremal eigenvalues     -0.92419     1.49545  converged:  T
     TRS4 it   1 1.00000000   0.844E+00       0.000       16.128   0.100E-07
     TRS4 it   2 1.00000000   0.604E+00       0.001       32.256   0.100E-07
     TRS4 it   3 1.00000000   0.432E+00       0.001       32.256   0.100E-07
     TRS4 it   4 1.00000000   0.261E+00       0.001       32.256   0.100E-07
     TRS4 it   5 1.00000000   0.121E+00       0.001       32.256   0.100E-07
     TRS4 it   6 1.00000000   0.331E-01       0.001       32.256   0.100E-07
     TRS4 it   7 1.00000000   0.356E-02       0.001       32.256   0.100E-07
     TRS4 it   8 1.00000000   0.502E-04       0.001       32.256   0.100E-07
     TRS4 it   9 1.00000000   0.107E-07       0.001       32.256   0.100E-07
     Final TRS4 iteration    9 1.00000000   0.107E-07
     Chemical potential (mu):      -0.07956
 
 PAO| energy:  -7.7672710023965319      penalty:   1.8082121894385499E-011
 PAO|CG| warming up with steepest descent
 PAO|CG| beta:    0.0000000000000000     
 PAO| norm of gradient:   7.5267239624708027E-006
 PAO| energy improvement:  -2.3126389692151861E-011
 PAO| step    959                   -7.767271002  0.470E-06  0.243E+00     0.063
 PAO| converged after          959  steps :-)
 PAO| Recalculating energy after mixing.

     Lanczos converged:  T threshold:   0.100E-02
     Est. extremal eigenvalues:    0.250E+01   0.224E+00
     Est. condition number :    0.112E+02
     NS sqrt iter    1 1.00000000   0.633E+00       0.001       64.512
     NS sqrt iter    2 1.00000000   0.270E+00       0.001      110.592
     NS sqrt iter    3 1.00000000   0.441E-01       0.001      110.592
     NS sqrt iter    4 1.00000000   0.377E-03       0.001      110.080
     NS sqrt iter    5 1.00000000   0.312E-09       0.001       36.864
     Final NS sqrt iter    5 1.00000000   0.386E-10

     Est. extremal eigenvalues     -0.92419     1.49545  converged:  T
     TRS4 it   1 1.00000000   0.844E+00       0.000       16.128   0.100E-07
     TRS4 it   2 1.00000000   0.604E+00       0.001       32.256   0.100E-07
     TRS4 it   3 1.00000000   0.432E+00       0.001       32.256   0.100E-07
     TRS4 it   4 1.00000000   0.261E+00       0.001       32.256   0.100E-07
     TRS4 it   5 1.00000000   0.121E+00       0.001       32.256   0.100E-07
     TRS4 it   6 1.00000000   0.331E-01       0.001       32.256   0.100E-07
     TRS4 it   7 1.00000000   0.356E-02       0.001       32.256   0.100E-07
     TRS4 it   8 1.00000000   0.502E-04       0.001       32.256   0.100E-07
     TRS4 it   9 1.00000000   0.107E-07       0.001       32.256   0.100E-07
     Final TRS4 iteration    9 1.00000000   0.107E-07
     Chemical potential (mu):      -0.07956
 
 PAO| energy:  -7.7672710023907543      penalty:   1.8215725176782979E-011
 PAO| Writing restart file.
     Est. extremal eigenvalues     -0.92419     1.49545  converged:  T
     TRS4 it   1 1.00000000   0.844E+00       0.000       16.128   0.100E-07
     TRS4 it   2 1.00000000   0.604E+00       0.001       32.256   0.100E-07
     TRS4 it   3 1.00000000   0.432E+00       0.001       32.256   0.100E-07
     TRS4 it   4 1.00000000   0.261E+00       0.001       32.256   0.100E-07
     TRS4 it   5 1.00000000   0.121E+00       0.001       32.256   0.100E-07
     TRS4 it   6 1.00000000   0.331E-01       0.001       32.256   0.100E-07
     TRS4 it   7 1.00000000   0.356E-02       0.001       32.256   0.100E-07
     TRS4 it   8 1.00000000   0.502E-04       0.001       32.256   0.100E-07
     TRS4 it   9 1.00000000   0.107E-07       0.001       32.256   0.100E-07
     Final TRS4 iteration    9 1.00000000   0.107E-07
     Chemical potential (mu):      -0.07956

 SCF     1       -34.445979467       -34.445979467    1.889800

*********************************************************
 Using MIXING_FRACTION=0.450 to mix KS matrix:  iscf=  2
 KS_nw=0.450*KS + 0.550*KS_old
*********************************************************
     Est. extremal eigenvalues     -0.92419     1.49545  converged:  T
     TRS4 it   1 1.00000000   0.844E+00       0.000       16.128   0.100E-07
     TRS4 it   2 1.00000000   0.604E+00       0.001       32.256   0.100E-07
     TRS4 it   3 1.00000000   0.432E+00       0.001       32.256   0.100E-07
     TRS4 it   4 1.00000000   0.261E+00       0.001       32.256   0.100E-07
     TRS4 it   5 1.00000000   0.121E+00       0.001       32.256   0.100E-07
     TRS4 it   6 1.00000000   0.331E-01       0.001       32.256   0.100E-07
     TRS4 it   7 1.00000000   0.356E-02       0.001       32.256   0.100E-07
     TRS4 it   8 1.00000000   0.502E-04       0.001       32.256   0.100E-07
     TRS4 it   9 1.00000000   0.107E-07       0.001       32.256   0.100E-07
     Final TRS4 iteration    9 1.00000000   0.107E-07
     Chemical potential (mu):      -0.07956

 SCF     2       -34.445979467         0.000000000    1.884740

 PAO| Storing density matrix for ASPC guess in slot:           1

 ENERGY| Total FORCE_EVAL ( QS ) energy (a.u.):              -34.445979467431378


 -------------------------------------------------------------------------------
 -                                                                             -
 -                                DBCSR STATISTICS                             -
 -                                                                             -
 -------------------------------------------------------------------------------
 COUNTER                                    TOTAL       BLAS       SMM       ACC
 flops     5 x     5 x     4                26000       0.0%    100.0%      0.0%
 flops    13 x     5 x     4                27040       0.0%    100.0%      0.0%
 flops     5 x    13 x     4                27040       0.0%    100.0%      0.0%
 flops    13 x    13 x     4                52728       0.0%    100.0%      0.0%
 flops     4 x     4 x     5              7472640       0.0%    100.0%      0.0%
 flops     5 x     4 x     5              9126400       0.0%    100.0%      0.0%
 flops     4 x     4 x    13              9714432       0.0%    100.0%      0.0%
 flops    13 x     4 x     5             11864320       0.0%    100.0%      0.0%
 flops     5 x     4 x    13             11864320       0.0%    100.0%      0.0%
 flops     5 x     4 x     4             14332800       0.0%    100.0%      0.0%
 flops    13 x     4 x    13             15423616       0.0%    100.0%      0.0%
 flops    13 x     4 x     4             18979584       0.0%    100.0%      0.0%
 flops     4 x     4 x     4            947533440       0.0%    100.0%      0.0%
 flops inhomo. stacks                           0       0.0%      0.0%      0.0%
 flops total                         1.046444E+09       0.0%    100.0%      0.0%
 flops max/rank                      1.046444E+09       0.0%    100.0%      0.0%
 matmuls inhomo. stacks                         0       0.0%      0.0%      0.0%
 matmuls total                            7710810       0.0%    100.0%      0.0%
 number of processed stacks                 61896       0.0%    100.0%      0.0%
 average stack size                                     0.0     124.6       0.0
 marketing flops                     1.708111E+09
 -------------------------------------------------------------------------------
 # multiplications                          51492
 max memory usage/rank             321.282048E+06
 # max total images/rank                        1
 # max 3D layers                                1
 # MPI messages exchanged                       0
 MPI messages size (bytes):
  total size                         0.000000E+00
  min size                           0.000000E+00
  max size                           0.000000E+00
  average size                       0.000000E+00
 MPI breakdown and total messages size (bytes):
             size <=      128                   0                        0
       128 < size <=     8192                   0                        0
      8192 < size <=    32768                   0                        0
     32768 < size <=   131072                   0                        0
    131072 < size <=  4194304                   0                        0
   4194304 < size <= 16777216                   0                        0
  16777216 < size                               0                        0
 -------------------------------------------------------------------------------

 MEMORY| Estimated peak process memory [MiB]                                 307

 -------------------------------------------------------------------------------
 -                                                                             -
 -                           R E F E R E N C E S                               -
 -                                                                             -
 -------------------------------------------------------------------------------
 
 CP2K version 7.0 (Development Version), the CP2K developers group (2018).
 CP2K is freely available from https://www.cp2k.org/ .

 Schuett, O; VandeVondele, J. 
 Journal of Chemical Theory and Computation, 14, (2018). 
 Machine Learning Adaptive Basis Sets for Efficient Large Scale Density Functional Theory Simulation.
 https://dx.doi.org/10.1021/acs.jctc.8b00378


 Schuett, Ole; Messmer, Peter; Hutter, Juerg; VandeVondele, Joost. 
 Electronic Structure Calculations on Graphics Processing Units, John Wiley & Sons, Ltd, 173-190 (2016). 
 GPU-Accelerated Sparse Matrix-Matrix Multiplication for Linear Scaling Density Functional Theory.
 https://dx.doi.org/10.1002/9781118670712.ch8


 Borstnik, U; VandeVondele, J; Weber, V; Hutter, J. 
 PARALLEL COMPUTING, 40 (5-6), 47-58 (2014). 
 Sparse matrix multiplication: The distributed block-compressed sparse
 row library.
 https://dx.doi.org/10.1016/j.parco.2014.03.012


 Hutter, J; Iannuzzi, M; Schiffmann, F; VandeVondele, J. 
 WILEY INTERDISCIPLINARY REVIEWS-COMPUTATIONAL MOLECULAR SCIENCE, 4 (1), 15-25 (2014). 
 CP2K: atomistic simulations of condensed matter systems.
 https://dx.doi.org/10.1002/wcms.1159


 VandeVondele, J; Borstnik, U; Hutter, J. 
 JOURNAL OF CHEMICAL THEORY AND COMPUTATION, 8 (10), 3565-3573 (2012). 
 Linear Scaling Self-Consistent Field Calculations with Millions of Atoms
 in the Condensed Phase.
 https://dx.doi.org/10.1021/ct200897x


 VandeVondele, J; Hutter, J. 
 JOURNAL OF CHEMICAL PHYSICS, 127 (11), 114105 (2007). 
 Gaussian basis sets for accurate calculations on molecular systems in
 gas and condensed phases.
 https://dx.doi.org/10.1063/1.2770708


 Krack, M. 
 THEORETICAL CHEMISTRY ACCOUNTS, 114 (1-3), 145-152 (2005). 
 Pseudopotentials for H to Kr optimized for gradient-corrected
 exchange-correlation functionals.
 https://dx.doi.org/10.1007/s00214-005-0655-y


 VandeVondele, J; Krack, M; Mohamed, F; Parrinello, M; Chassaing, T;
 Hutter, J. COMPUTER PHYSICS COMMUNICATIONS, 167 (2), 103-128 (2005). 
 QUICKSTEP: Fast and accurate density functional calculations using a
 mixed Gaussian and plane waves approach.
 https://dx.doi.org/10.1016/j.cpc.2004.12.014


 Frigo, M; Johnson, SG. 
 PROCEEDINGS OF THE IEEE, 93 (2), 216-231 (2005). 
 The design and implementation of FFTW3.
 https://dx.doi.org/10.1109/JPROC.2004.840301


 Niklasson, AMN; Tymczak, CJ; Challacombe, M. 
 JOURNAL OF CHEMICAL PHYSICS, 118 (19), 8611-8620 (2003). 
 Trace resetting density matrix purification in O(N)
 self-consistent-field theory.
 https://dx.doi.org/10.1063/1.1559913


 Hartwigsen, C; Goedecker, S; Hutter, J. 
 PHYSICAL REVIEW B, 58 (7), 3641-3662 (1998). 
 Relativistic separable dual-space Gaussian pseudopotentials from H to Rn.
 https://dx.doi.org/10.1103/PhysRevB.58.3641


 Lippert, G; Hutter, J; Parrinello, M. 
 MOLECULAR PHYSICS, 92 (3), 477-487 (1997). 
 A hybrid Gaussian and plane wave density functional scheme.
 https://dx.doi.org/10.1080/002689797170220


 Perdew, JP; Burke, K; Ernzerhof, M. 
 PHYSICAL REVIEW LETTERS, 77 (18), 3865-3868 (1996). 
 Generalized gradient approximation made simple.
 https://dx.doi.org/10.1103/PhysRevLett.77.3865


 Goedecker, S; Teter, M; Hutter, J. 
 PHYSICAL REVIEW B, 54 (3), 1703-1710 (1996). 
 Separable dual-space Gaussian pseudopotentials.
 https://dx.doi.org/10.1103/PhysRevB.54.1703


 -------------------------------------------------------------------------------
 -                                                                             -
 -                                T I M I N G                                  -
 -                                                                             -
 -------------------------------------------------------------------------------
 SUBROUTINE                       CALLS  ASD         SELF TIME        TOTAL TIME
                                MAXIMUM       AVERAGE  MAXIMUM  AVERAGE  MAXIMUM
 CP2K                                 1  1.0    0.026    0.026   40.751   40.751
 qs_energies                          1  2.0    0.000    0.000   40.388   40.388
 ls_scf                               1  3.0    0.000    0.000   40.285   40.285
 ls_scf_main                          6  4.0    0.001    0.001   22.596   22.596
 ls_scf_dm_to_ks                     12  5.0    0.000    0.000   22.502   22.502
 qs_ks_update_qs_env                 13  6.0    0.000    0.000   17.247   17.247
 rebuild_ks_matrix                   13  7.0    0.000    0.000   17.246   17.246
 qs_ks_build_kohn_sham_matrix        13  8.0    0.001    0.001   17.246   17.246
 pao_update                           6  4.0    0.021    0.021   15.680   15.680
 pao_calc_energy                    964  5.0    0.008    0.008   14.179   14.179
 dbcsr_multiply_generic           51492  8.4    0.894    0.894   11.484   11.484
 qs_vxc_create                       13  9.0    0.000    0.000    9.754    9.754
 xc_vxc_pw_create                    13 10.0    0.159    0.159    9.753    9.753
 pao_dm_trs4                        964  6.0    0.005    0.005    7.352    7.352
 qs_rho_update_rho                   13  6.0    0.000    0.000    7.192    7.192
 calculate_rho_elec                  13  7.0    5.861    5.861    7.192    7.192
 xc_rho_set_and_dset_create          13 11.0    0.059    0.059    7.123    7.123
 density_matrix_trs4                976  7.0    0.385    0.385    6.992    6.992
 ls_scf_init_matrix_S               970  7.0    0.006    0.006    6.788    6.788
 pao_rebuild_S                      964  6.0    0.004    0.004    6.749    6.749
 sum_up_and_integrate                13  9.0    0.027    0.027    6.444    6.444
 integrate_v_rspace                  13 10.0    5.712    5.712    6.416    6.416
 pw_transfer                        248 10.6    0.016    0.016    6.170    6.170
 matrix_sqrt_Newton_Schulz          970  8.0    0.252    0.252    6.099    6.099
 fft_wrap_pw1pw2                    222 11.7    0.002    0.002    6.038    6.038
 fft_wrap_pw1pw2_200                144 12.8    0.494    0.494    5.778    5.778
 xc_functional_eval                  13 12.0    0.000    0.000    4.891    4.891
 pbe_lda_eval                        13 13.0    4.891    4.891    4.891    4.891
 multiply_cannon                  51492  9.4    1.999    1.999    4.393    4.393
 make_m2s                        102984  9.4    0.302    0.302    4.242    4.242
 make_images                     102984 10.4    1.111    1.111    3.770    3.770
 fft3d_s                            223 13.6    3.355    3.355    3.367    3.367
 pao_guess_initial_P                  1  4.0    0.000    0.000    1.943    1.943
 pao_read_preopt_dm                   1  5.0    0.000    0.000    1.943    1.943
 arnoldi_extremal                  1946  8.5    0.007    0.007    1.872    1.872
 arnoldi_normal_ev                 1946  9.5    0.021    0.021    1.865    1.865
 pao_calc_AB                       1267  5.8    0.001    0.001    1.468    1.468
 pao_calc_AB_direct                1267  6.8    0.048    0.048    1.467    1.467
 build_subspace                    1946 10.5    0.115    0.115    1.388    1.388
 pao_calc_grad_lnv_wrt_AB           302  7.0    0.015    0.015    1.364    1.364
 density_rs2pw                       13  8.0    0.001    0.001    1.309    1.309
 dbcsr_create_new                393820 10.7    0.707    0.707    1.267    1.267
 dbcsr_matrix_vector_mult         46454 11.5    0.225    0.225    1.223    1.223
 dbcsr_finalize                  121626  9.7    0.230    0.230    1.196    1.196
 pw_scatter_s                       117 14.2    1.122    1.122    1.122    1.122
 pw_gather_s                        105 13.1    1.032    1.032    1.032    1.032
 matrix_qs_to_ls                   1946  7.5    0.013    0.013    0.889    0.889
 dbcsr_merge_all                 114195 10.7    0.447    0.447    0.831    0.831
 -------------------------------------------------------------------------------

 The number of warnings for this run is : 0
 
 -------------------------------------------------------------------------------
  **** **** ******  **  PROGRAM ENDED AT                 2019-02-14 11:16:40.086
 ***** ** ***  *** **   PROGRAM RAN ON                                      otto
 **    ****   ******    PROGRAM RAN BY                                       ole
 ***** **    ** ** **   PROGRAM PROCESS ID                                  7849
  **** **  *******  **  PROGRAM STOPPED IN /home/ole/git/pao_ml_equivar/2H2O_MD/
                                           frame_1775
