       6
 i =      775, time =      155.000, E =       -34.4462885436
  O         2.8425064614        4.5374235591        3.2213837248
  H         2.0287537018        3.9410256468        3.2240831167
  H         2.8826856108        4.7521268867        2.2884726527
  O         5.6177005363        4.4161171752        4.9476440913
  H         5.7914113141        3.4966048723        4.8327922644
  H         4.8962917681        4.5761973400        4.3165820941