       6
 i =      250, time =       50.000, E =       -34.4446713213
  O         2.7561312915        4.3019650709        3.3192436969
  H         1.9995185864        4.9041684812        3.5092324500
  H         2.5925208040        4.1559956203        2.4016184969
  O         5.9474442396        4.2916329173        4.9034648834
  H         6.3151418690        3.4525164821        5.2241477777
  H         5.1145640487        4.0410700164        4.3806164894