       6
 i =      225, time =       45.000, E =       -34.4470446056
  O         2.3902117052        4.2381849947        4.1904377952
  H         2.7818711571        4.7877677232        3.5099438772
  H         2.0966209126        3.4904083729        3.6383041718
  O         5.4568771117        4.2459313187        3.8295333866
  H         6.1497064497        3.9573047923        4.4514361231
  H         4.6410445067        4.0788282279        4.2911466232
