6
Properties=species:S:1:pos:R:3 i=0 time=0.0 E=-34.4504806384 pbc="F F F"
O      -0.46029406      -4.86833037       4.35000000 
H       0.21077159      -5.12786823       3.71000000 
H      -0.54989902      -3.91477705       4.25600000 
O      -3.06398995      -6.17548021       3.63500000 
H      -3.38947813      -6.70959859       4.36500000 
H      -2.22865674      -5.79429335       3.94700000 
