 DBCSR| CPU Multiplication driver                                           XSMM (U)
 DBCSR| Multrec recursion limit                                              512 (U)
 DBCSR| Multiplication stack size                                           1000 (D)
 DBCSR| Maximum elements for images                                    UNLIMITED (U)
 DBCSR| Multiplicative factor virtual images                                   1 (U)
 DBCSR| Use multiplication densification                                       T (D)
 DBCSR| Multiplication size stacks                                             3 (U)
 DBCSR| Use memory pool for CPU allocation                                     F (U)
 DBCSR| Number of 3D layers                                               SINGLE (U)
 DBCSR| Use MPI memory allocation                                              F (U)
 DBCSR| Use RMA algorithm                                                      F (U)
 DBCSR| Use Communication thread                                               T (U)
 DBCSR| Communication thread load                                             87 (D)
 DBCSR| MPI: My process id                                                     0
 DBCSR| MPI: Number of processes                                              32
 DBCSR| OMP: Current number of threads                                         1
 DBCSR| OMP: Max number of threads                                             1
 DBCSR| Split modifier for TAS multiplication algorithm                  1.0E+00 (U)


  **** **** ******  **  PROGRAM STARTED AT               2024-09-24 01:00:02.854
 ***** ** ***  *** **   PROGRAM STARTED ON                                moritz
 **    ****   ******    PROGRAM STARTED BY                                   ole
 ***** **    ** ** **   PROGRAM PROCESS ID                                165713
  **** **  *******  **  PROGRAM STARTED IN /home/ole/git/pao_ml_equivar/64H2O_MD
                                           /Frame2200

 CP2K| version string:                 CP2K version 2024.3 (Development Version)
 CP2K| source code revision number:                                  git:3f890bb
 CP2K| cp2kflags: omp libint fftw3 libxc libgrpp pexsi elpa parallel scalapack c
 CP2K|            osma quip deepmd xsmm plumed2 spglib libdftd4 sirius libvori l
 CP2K|            libbqb libvdwxc hdf5
 CP2K| is freely available from                            https://www.cp2k.org/
 CP2K| Program compiled at                          Mo 23 Sep 2024 17:17:04 CEST
 CP2K| Program compiled on                                                moritz
 CP2K| Program compiled for                                                local
 CP2K| Data directory path                               /home/ole/git/cp2k/data
 CP2K| Input file name                                           64H2O_pao44.inp

 GLOBAL| Force Environment number                                              1
 GLOBAL| Basis set file name                                        BASIS_MOLOPT
 GLOBAL| Potential file name                                      GTH_POTENTIALS
 GLOBAL| MM Potential file name                                     MM_POTENTIAL
 GLOBAL| Coordinate file name                                         coords.xyz
 GLOBAL| Method name                                                        CP2K
 GLOBAL| Project name                                                64H2O_pao44
 GLOBAL| Run type                                                         ENERGY
 GLOBAL| FFT library                                                       FFTW3
 GLOBAL| Diagonalization library                                            ELPA
 GLOBAL| DGEMM library                                                      BLAS
 GLOBAL| Minimum number of eigenvectors for ELPA usage                        16
 GLOBAL| Orthonormality check for eigenvectors                          DISABLED
 GLOBAL| Matrix multiplication library                                     COSMA
 GLOBAL| All-to-all communication in single precision                          F
 GLOBAL| FFTs using library dependent lengths                                  F
 GLOBAL| Grid backend                                                       AUTO
 GLOBAL| Global print level                                                  LOW
 GLOBAL| MPI I/O enabled                                                       T
 GLOBAL| Total number of message passing processes                            32
 GLOBAL| Number of threads for this process                                    1
 GLOBAL| This output is from process                                           0
 GLOBAL| Stack size for threads created by OpenMP (OMP_STACKSIZE)        default
 GLOBAL| CPU model name           AMD Ryzen Threadripper 3970X 32-Core Processor
 GLOBAL| CPUID                                                              1002

 MEMORY| system memory details [Kb]
 MEMORY|                        rank 0           min           max       average
 MEMORY| MemTotal            131752136     131752136     131752136     131752136
 MEMORY| MemFree             114328872     114328872     114328872     114328872
 MEMORY| Buffers               1997632       1997632       1997632       1997632
 MEMORY| Cached                8638616       8638616       8638616       8638616
 MEMORY| Slab                  1642428       1642428       1642428       1642428
 MEMORY| SReclaimable          1143700       1143700       1143700       1143700
 MEMORY| MemLikelyFree       126108820     126108820     126108820     126108820


 GENERATE|  Preliminary Number of Bonds generated:                             0
 GENERATE|  Achieved consistency in connectivity generation.

 *******************************************************************************
 *******************************************************************************
 **                                                                           **
 **     #####                         ##              ##                      **
 **    ##   ##            ##          ##              ##                      **
 **   ##     ##                       ##            ######                    **
 **   ##     ##  ##   ##  ##   #####  ##  ##   ####   ##    #####    #####    **
 **   ##     ##  ##   ##  ##  ##      ## ##   ##      ##   ##   ##  ##   ##   **
 **   ##  ## ##  ##   ##  ##  ##      ####     ###    ##   ######   ######    **
 **    ##  ###   ##   ##  ##  ##      ## ##      ##   ##   ##       ##        **
 **     #######   #####   ##   #####  ##  ##  ####    ##    #####   ##        **
 **           ##                                                    ##        **
 **                                                                           **
 **                                                ... make the atoms dance   **
 **                                                                           **
 **            Copyright (C) by CP2K developers group (2000-2024)             **
 **                      J. Chem. Phys. 152, 194103 (2020)                    **
 **                                                                           **
 *******************************************************************************


 TOTAL NUMBERS AND MAXIMUM NUMBERS

  Total number of            - Atomic kinds:                                   2
                             - Atoms:                                        192
                             - Shell sets:                                   192
                             - Shells:                                       704
                             - Primitive Cartesian functions:               1344
                             - Cartesian basis functions:                   1536
                             - Spherical basis functions:                   1472

  Maximum angular momentum of- Orbital basis functions:                        2
                             - Local part of the GTH pseudopotential:          2
                             - Non-local part of the GTH pseudopotential:      0

 ------------------------------ Linear scaling SCF -----------------------------
 eps_scf:                                                              0.100E-07
 eps_filter:                                                           0.100E-11
 mixing_fraction:                                                      0.450E+00
 max_scf:                                                                     25
 fixed chemical potential (mu)                                                 F
 has unit metric:                                                              F
 Computing inv(S):                                                             T
 Computing sqrt(S):                                                            T
 Computing S preconditioner                                                    F
 S sqrt method:                                                     NEWTONSCHULZ
 S sqrt order:                                                                 3
 Extrapolation order:                                                          1
 S preconditioner type                                                      NONE
 Polarized Atomic Orbitals (PAO)                                               T
 Purification method                                   Trace resetting 4th order
 Cluster type                                                             ATOMIC
 Computing Chebyshev                                                       FALSE
 Using PAO                                                                     T
 -------------------------------------------------------------------------------

 
 PAO|                                  EPS_PAO                           0.5E-06
 PAO|                                  MIXING                            0.5E+00
 PAO|                                  MAX_PAO                              1500
 PAO|                                  MAX_CYCLES                           1000
 PAO|                                  PARAMETERIZATION              EQUIVARIANT
 PAO|                                  PRECONDITION                            F
 PAO|                                  REGULARIZATION                    0.0E+00
 PAO|                                  EPS_PGF                           0.1E-09
 PAO|                                  PENALTY_DISTANCE                  0.1E+00
 PAO|                                  PENALTY_STRENGTH                  0.5E-02
 PAO|                                  LINPOT_PRECONDITION_DELTA         0.0E+00
 PAO|                                  LINPOT_INITGUESS_DELT             0.0E+00
 PAO|                                  LINPOT_REGULARIZATION_DELTA       0.0E+00
 PAO|                                  LINPOT_REGULARIZATION_STRENGTH    0.0E+00
 PAO|                                  OPTIMIZER                              CG
 PAO|                                  CG_INIT_STEPS                           2
 PAO|                                  CG_RESET_LIMIT                    0.1E+00
 PAO|                                  CHECK_UNITARY_TOL                -0.1E+01
 PAO|                                  CHECK_GRADIENT_TOL               -0.1E+01
 PAO|                                  NUM_GRADIENT_ORDER                      2
 PAO|                                  NUM_GRADIENT_EPS                  0.1E-07
 PAO|                                  PRINT%RESTART%WRITE_CYCLES            100
 PAO|                                  RESTART_FILE 
 PAO|                                  PREOPT_DM_FILE 64H2O_ref_LS_DM_SPIN_1_RESTART.dm
 PAO|                                  MACHINE_LEARNING%METHOD       GAUSSIAN_PR
 PAO|                                  MACHINE_LEARNING%PRIOR               ZERO
 PAO|                                  MACHINE_LEARNING%DESCRIPTOR     POTENTIAL
 PAO|                                  MACHINE_LEARNING%TOLERANCE        0.1E-01
 PAO|                                  MACHINE_LEARNING%GP_NOISE_VAR     0.1E+00
 PAO|                                  MACHINE_LEARNING%GP_SCALE         0.5E-01
 

 Calculating atomic Fock matrix for atomic kind: O

 Electronic structure
    Total number of core electrons                                          2.00
    Total number of valence electrons                                       6.00
    Total number of electrons                                               8.00
    Multiplicity                                                   not specified
    S   [  2.00] 2.00
    P      4.00


 *******************************************************************************
                  Iteration          Convergence                     Energy [au]
 *******************************************************************************
                          1        0.708315                     -15.576645311500
                          2        0.608879                     -15.587933561584
                          3        0.102828E-01                 -15.656849565404
                          4        0.113889E-02                 -15.656866888140
                          5        0.434197E-03                 -15.656867072159
                          6        0.263771E-03                 -15.656867091904
                          7        0.478536E-06                 -15.656867103452

 Energy components [Hartree]           Total Energy ::          -15.656867103452
                                        Band Energy ::           -3.000198112285
                                     Kinetic Energy ::           11.759971203220
                                   Potential Energy ::          -27.416838306672
                                      Virial (-V/T) ::            2.331369510426
                                        Core Energy ::          -26.140716385623
                                          XC Energy ::           -3.154051012914
                                     Coulomb Energy ::           13.637900295084
                       Total Pseudopotential Energy ::          -37.935781716540
                       Local Pseudopotential Energy ::          -39.218907440693
                    Nonlocal Pseudopotential Energy ::            1.283125724153
                                        Confinement ::            0.350941276976

 Orbital energies  State     L     Occupation   Energy[a.u.]          Energy[eV]

                       1     0          2.000      -0.864471          -23.523463

                       1     1          4.000      -0.317814           -8.648154


 Total Electron Density at R=0:                                         0.000068

 Calculating atomic Fock matrix for atomic kind: H

 Electronic structure
    Total number of core electrons                                          0.00
    Total number of valence electrons                                       1.00
    Total number of electrons                                               1.00
    Multiplicity                                                   not specified
    S      1.00


 *******************************************************************************
                  Iteration          Convergence                     Energy [au]
 *******************************************************************************
                          1        0.437545E-02                  -0.424159432110
                          2        0.531356E-03                  -0.424178438213
                          3        0.259176E-06                  -0.424178722480

 Energy components [Hartree]           Total Energy ::           -0.424178722480
                                        Band Energy ::           -0.199015229016
                                     Kinetic Energy ::            0.464007633961
                                   Potential Energy ::           -0.888186356441
                                      Virial (-V/T) ::            1.914163240935
                                        Core Energy ::           -0.479160803564
                                          XC Energy ::           -0.244352904054
                                     Coulomb Energy ::            0.299334985138
                       Total Pseudopotential Energy ::           -0.962295316385
                       Local Pseudopotential Energy ::           -0.962295316385
                    Nonlocal Pseudopotential Energy ::            0.000000000000
                                        Confinement ::            0.191268788606

 Orbital energies  State     L     Occupation   Energy[a.u.]          Energy[eV]

                       1     0          1.000      -0.199015           -5.415480


 Total Electron Density at R=0:                                         0.242907
 PAO| Made initial guess for matrix_X with norm:   27.712812921102035     

     Lanczos converged:  F threshold:   0.100E-02
     Est. extremal eigenvalues:    0.616E+01   0.957E-01
     Est. condition number :    0.643E+02

 Order=           3
     NS sqrt iter    1 1.00000000   0.150E+01       0.021     2689.957
     NS sqrt iter    2 1.00000000   0.818E+00       0.034     3344.421
     NS sqrt iter    3 1.00000000   0.329E+00       0.034     3339.543
     NS sqrt iter    4 1.00000000   0.911E-01       0.034     3350.848
     NS sqrt iter    5 1.00000000   0.321E-02       0.034     3364.185
     NS sqrt iter    6 1.00000000   0.251E-06       0.029     2907.851
     Symmetrizing Results
     Final NS sqrt iter    6 1.00000000   0.140E-12

 PAO| Read restart DM 64H2O_ref_LS_DM_SPIN_1_RESTART.dm with checksum:    6118.2038234956826     
 PAO| Quickstep energy from restart density:  -1103.1327637052289     
 PAO| ======================= Iteration:         1 =============================

     Lanczos converged:  F threshold:   0.100E-02
     Est. extremal eigenvalues:    0.616E+01   0.957E-01
     Est. condition number :    0.643E+02

 Order=           3
     NS sqrt iter    1 1.00000000   0.150E+01       0.021     2692.330
     NS sqrt iter    2 1.00000000   0.818E+00       0.034     3351.073
     NS sqrt iter    3 1.00000000   0.329E+00       0.034     3369.498
     NS sqrt iter    4 1.00000000   0.911E-01       0.033     3393.058
     NS sqrt iter    5 1.00000000   0.321E-02       0.034     3371.836
     NS sqrt iter    6 1.00000000   0.251E-06       0.029     2909.971
     Symmetrizing Results
     Final NS sqrt iter    6 1.00000000   0.140E-12

     Est. extremal eigenvalues     -0.82483     2.62437  converged:  T
     TRS4 it   1 1.00000000   0.274E+02       0.007     2064.026   0.100E-11
     TRS4 it   2 1.00000000   0.237E+02       0.013     2193.995   0.100E-11
     TRS4 it   3 1.00000000   0.161E+02       0.013     2208.425   0.100E-11
     TRS4 it   4 1.00000000   0.101E+02       0.013     2221.955   0.100E-11
     TRS4 it   5 1.00000000   0.491E+01       0.013     2198.170   0.100E-11
     TRS4 it   6 1.00000000   0.166E+01       0.013     2172.723   0.100E-11
     TRS4 it   7 1.00000000   0.342E+00       0.013     2191.822   0.100E-11
     TRS4 it   8 1.00000000   0.263E-01       0.013     2184.785   0.100E-11
     TRS4 it   9 1.00000000   0.297E-03       0.013     2178.741   0.100E-11
     TRS4 it  10 1.00000000   0.827E-07       0.013     2214.185   0.100E-11
     TRS4 it  11 1.00000000   0.124E-13       0.013     2192.477   0.100E-11
     Final TRS4 iteration   11 1.00000000   0.124E-13
     Chemical potential (mu):       0.01359
 
 PAO| energy:  -186.25643043203161      penalty:   1.1999313925510234E-031
 PAO|CG| warming up with steepest descent
 PAO|CG| beta:    0.0000000000000000     
 PAO| norm of gradient:   3.9818294105643752     
 PAO|LS| adapt:  T F F
 PAO|LS| adapt: scan_steps:    0.0000000000000000        0.0000000000000000        0.0000000000000000     
 PAO|LS| adapt: energies:   -186.25643043203161        0.0000000000000000        0.0000000000000000     
 PAO| ======================= Iteration:         2 =============================

     Lanczos converged:  F threshold:   0.100E-02
     Est. extremal eigenvalues:    0.594E+01   0.998E-01
     Est. condition number :    0.595E+02

 Order=           3
     NS sqrt iter    1 1.00000000   0.146E+01       0.021     2706.884
     NS sqrt iter    2 1.00000000   0.788E+00       0.034     3364.339
     NS sqrt iter    3 1.00000000   0.308E+00       0.034     3366.305
     NS sqrt iter    4 1.00000000   0.764E-01       0.034     3363.138
     NS sqrt iter    5 1.00000000   0.198E-02       0.034     3349.319
     NS sqrt iter    6 1.00000000   0.714E-07       0.029     2923.506
     Symmetrizing Results
     Final NS sqrt iter    6 1.00000000   0.134E-13

     Est. extremal eigenvalues     -0.82817     2.61988  converged:  T
     TRS4 it   1 1.00000000   0.276E+02       0.007     2111.652   0.100E-11
     TRS4 it   2 1.00000000   0.237E+02       0.013     2183.366   0.100E-11
     TRS4 it   3 1.00000000   0.160E+02       0.013     2181.394   0.100E-11
     TRS4 it   4 1.00000000   0.991E+01       0.013     2208.268   0.100E-11
     TRS4 it   5 1.00000000   0.469E+01       0.013     2195.450   0.100E-11
     TRS4 it   6 1.00000000   0.153E+01       0.013     2178.571   0.100E-11
     TRS4 it   7 1.00000000   0.294E+00       0.013     2210.798   0.100E-11
     TRS4 it   8 1.00000000   0.190E-01       0.013     2200.031   0.100E-11
     TRS4 it   9 1.00000000   0.143E-03       0.013     2169.148   0.100E-11
     TRS4 it  10 1.00000000   0.220E-07       0.013     2204.896   0.100E-11
     TRS4 it  11 1.00000000   0.142E-13       0.013     2191.328   0.100E-11
     Final TRS4 iteration   11 1.00000000   0.142E-13
     Chemical potential (mu):       0.01996
 
 PAO| energy:  -187.71181814340767      penalty:   4.7202137670072720E-007
 PAO|LS| adapt:  T T F
 PAO|LS| adapt: scan_steps:    0.0000000000000000       0.10000000000000001        0.0000000000000000     
 PAO|LS| adapt: energies:   -186.25643043203161       -187.71181814340767        0.0000000000000000     
 PAO| ======================= Iteration:         3 =============================

     Lanczos converged:  F threshold:   0.100E-02
     Est. extremal eigenvalues:    0.572E+01   0.105E+00
     Est. condition number :    0.544E+02

 Order=           3
     NS sqrt iter    1 1.00000000   0.142E+01       0.021     2682.929
     NS sqrt iter    2 1.00000000   0.759E+00       0.033     3385.596
     NS sqrt iter    3 1.00000000   0.288E+00       0.033     3384.520
     NS sqrt iter    4 1.00000000   0.639E-01       0.034     3375.928
     NS sqrt iter    5 1.00000000   0.125E-02       0.034     3371.355
     NS sqrt iter    6 1.00000000   0.218E-07       0.029     2913.692
     Symmetrizing Results
     Final NS sqrt iter    6 1.00000000   0.353E-14

     Est. extremal eigenvalues     -0.83126     2.61695  converged:  T
     TRS4 it   1 1.00000000   0.278E+02       0.007     2125.260   0.100E-11
     TRS4 it   2 1.00000000   0.236E+02       0.013     2189.886   0.100E-11
     TRS4 it   3 1.00000000   0.159E+02       0.013     2225.419   0.100E-11
     TRS4 it   4 1.00000000   0.972E+01       0.013     2172.409   0.100E-11
     TRS4 it   5 1.00000000   0.449E+01       0.013     2189.916   0.100E-11
     TRS4 it   6 1.00000000   0.140E+01       0.013     2167.203   0.100E-11
     TRS4 it   7 1.00000000   0.249E+00       0.013     2188.724   0.100E-11
     TRS4 it   8 1.00000000   0.133E-01       0.013     2202.169   0.100E-11
     TRS4 it   9 1.00000000   0.639E-04       0.013     2209.845   0.100E-11
     TRS4 it  10 1.00000000   0.503E-08       0.013     2196.438   0.100E-11
     TRS4 it  11 1.00000000   0.231E-13       0.013     2192.776   0.100E-11
     Final TRS4 iteration   11 1.00000000   0.231E-13
     Chemical potential (mu):       0.02735
 
 PAO| energy:  -188.89074836938568      penalty:   7.5523420272370597E-006
 PAO|LS| adapt:  T T F
 PAO|LS| adapt: scan_steps:    0.0000000000000000       0.20000000000000001        0.0000000000000000     
 PAO|LS| adapt: energies:   -186.25643043203161       -188.89074836938568        0.0000000000000000     
 PAO| ======================= Iteration:         4 =============================

     Lanczos converged:  F threshold:   0.100E-02
     Est. extremal eigenvalues:    0.532E+01   0.115E+00
     Est. condition number :    0.464E+02

 Order=           3
     NS sqrt iter    1 1.00000000   0.134E+01       0.021     2683.455
     NS sqrt iter    2 1.00000000   0.704E+00       0.034     3356.522
     NS sqrt iter    3 1.00000000   0.250E+00       0.034     3365.359
     NS sqrt iter    4 1.00000000   0.449E-01       0.034     3346.971
     NS sqrt iter    5 1.00000000   0.516E-03       0.034     3369.247
     NS sqrt iter    6 1.00000000   0.210E-08       0.029     2863.243
     Symmetrizing Results
     Final NS sqrt iter    6 1.00000000   0.157E-13

     Est. extremal eigenvalues     -0.83617     2.61570  converged:  T
     TRS4 it   1 1.00000000   0.282E+02       0.007     2094.020   0.100E-11
     TRS4 it   2 1.00000000   0.236E+02       0.013     2206.374   0.100E-11
     TRS4 it   3 1.00000000   0.157E+02       0.013     2198.094   0.100E-11
     TRS4 it   4 1.00000000   0.938E+01       0.013     2197.668   0.100E-11
     TRS4 it   5 1.00000000   0.413E+01       0.013     2199.543   0.100E-11
     TRS4 it   6 1.00000000   0.118E+01       0.013     2192.454   0.100E-11
     TRS4 it   7 1.00000000   0.178E+00       0.013     2201.607   0.100E-11
     TRS4 it   8 1.00000000   0.623E-02       0.013     2212.594   0.100E-11
     TRS4 it   9 1.00000000   0.120E-04       0.013     2203.699   0.100E-11
     TRS4 it  10 1.00000000   0.200E-09       0.013     2201.868   0.100E-11
     Final TRS4 iteration   10 1.00000000   0.200E-09
     Chemical potential (mu):       0.04419
 
 PAO| energy:  -190.37752224165729      penalty:   1.2083747243599516E-004
 PAO|LS| Need extra step
 PAO|LS| adapt:  T T F
 PAO|LS| adapt: scan_steps:    0.0000000000000000       0.40000000000000002        0.0000000000000000     
 PAO|LS| adapt: energies:   -186.25643043203161       -190.37752224165729        0.0000000000000000     
 PAO| ======================= Iteration:         5 =============================

     Lanczos converged:  F threshold:   0.100E-02
     Est. extremal eigenvalues:    0.469E+01   0.131E+00
     Est. condition number :    0.358E+02

 Order=           3
     NS sqrt iter    1 1.00000000   0.122E+01       0.022     2642.073
     NS sqrt iter    2 1.00000000   0.617E+00       0.034     3376.665
     NS sqrt iter    3 1.00000000   0.194E+00       0.034     3350.105
     NS sqrt iter    4 1.00000000   0.238E-01       0.033     3380.783
     NS sqrt iter    5 1.00000000   0.102E-03       0.034     3372.896
     NS sqrt iter    6 1.00000000   0.235E-10       0.018     2193.738
     Symmetrizing Results
     Final NS sqrt iter    6 1.00000000   0.207E-11

     Est. extremal eigenvalues     -0.83864     2.61528  converged:  T
     TRS4 it   1 1.00000000   0.288E+02       0.007     2115.459   0.100E-11
     TRS4 it   2 1.00000000   0.236E+02       0.013     2194.486   0.100E-11
     TRS4 it   3 1.00000000   0.155E+02       0.013     2202.009   0.100E-11
     TRS4 it   4 1.00000000   0.888E+01       0.013     2206.001   0.100E-11
     TRS4 it   5 1.00000000   0.360E+01       0.013     2206.971   0.100E-11
     TRS4 it   6 1.00000000   0.877E+00       0.013     2213.418   0.100E-11
     TRS4 it   7 1.00000000   0.961E-01       0.013     2190.931   0.100E-11
     TRS4 it   8 1.00000000   0.170E-02       0.013     2197.293   0.100E-11
     TRS4 it   9 1.00000000   0.915E-06       0.013     2201.268   0.100E-11
     TRS4 it  10 1.00000000   0.134E-11       0.013     2184.660   0.100E-11
     Final TRS4 iteration   10 1.00000000   0.134E-11
     Chemical potential (mu):       0.06756
 
 PAO| energy:  -189.99501450374567      penalty:   1.9333995589775454E-003
 PAO|LS| Need extra step
 PAO|LS| adapt:  T T T
 PAO|LS| adapt: scan_steps:    0.0000000000000000       0.40000000000000002       0.80000000000000004     
 PAO|LS| adapt: energies:   -186.25643043203161       -190.37752224165729       -189.99501450374567     
 PAO|LS| adapt: suggested step_size:   0.56602648757962604     
 PAO|LS| adapt: predicted energy  -190.76546223037468     
 PAO| ======================= Iteration:         6 =============================

     Lanczos converged:  F threshold:   0.100E-02
     Est. extremal eigenvalues:    0.502E+01   0.122E+00
     Est. condition number :    0.413E+02

 Order=           3
     NS sqrt iter    1 1.00000000   0.128E+01       0.021     2680.809
     NS sqrt iter    2 1.00000000   0.663E+00       0.034     3352.706
     NS sqrt iter    3 1.00000000   0.224E+00       0.034     3369.717
     NS sqrt iter    4 1.00000000   0.339E-01       0.034     3343.820
     NS sqrt iter    5 1.00000000   0.256E-03       0.034     3369.493
     NS sqrt iter    6 1.00000000   0.307E-09       0.028     2674.004
     Symmetrizing Results
     Final NS sqrt iter    6 1.00000000   0.468E-12

     Est. extremal eigenvalues     -0.83849     2.61631  converged:  T
     TRS4 it   1 1.00000000   0.285E+02       0.007     2138.955   0.100E-11
     TRS4 it   2 1.00000000   0.236E+02       0.013     2197.159   0.100E-11
     TRS4 it   3 1.00000000   0.156E+02       0.013     2190.783   0.100E-11
     TRS4 it   4 1.00000000   0.915E+01       0.013     2191.247   0.100E-11
     TRS4 it   5 1.00000000   0.388E+01       0.013     2199.208   0.100E-11
     TRS4 it   6 1.00000000   0.103E+01       0.013     2204.102   0.100E-11
     TRS4 it   7 1.00000000   0.135E+00       0.013     2182.627   0.100E-11
     TRS4 it   8 1.00000000   0.342E-02       0.013     2216.544   0.100E-11
     TRS4 it   9 1.00000000   0.353E-05       0.013     2191.900   0.100E-11
     TRS4 it  10 1.00000000   0.178E-10       0.013     2199.975   0.100E-11
     Final TRS4 iteration   10 1.00000000   0.178E-10
     Chemical potential (mu):       0.05537
 
 PAO| energy:  -190.73881806624053      penalty:   4.8451662819386579E-004
 PAO|CG| warming up with steepest descent
 PAO|CG| beta:    0.0000000000000000     
 PAO| norm of gradient:   2.0991551512881945     
 PAO| energy improvement:  -4.4823876342089193     
 PAO| step      6                 -190.738818066  0.410E-02  0.566E+00     2.435
 PAO|LS| adapt:  T F F
 PAO|LS| adapt: scan_steps:    0.0000000000000000        0.0000000000000000        0.0000000000000000     
 PAO|LS| adapt: energies:   -190.73881806624053        0.0000000000000000        0.0000000000000000     
 PAO| ======================= Iteration:         7 =============================

     Lanczos converged:  F threshold:   0.100E-02
     Est. extremal eigenvalues:    0.487E+01   0.130E+00
     Est. condition number :    0.374E+02

 Order=           3
     NS sqrt iter    1 1.00000000   0.125E+01       0.021     2684.051
     NS sqrt iter    2 1.00000000   0.639E+00       0.034     3331.997
     NS sqrt iter    3 1.00000000   0.207E+00       0.034     3338.220
     NS sqrt iter    4 1.00000000   0.274E-01       0.034     3344.963
     NS sqrt iter    5 1.00000000   0.144E-03       0.034     3364.113
     NS sqrt iter    6 1.00000000   0.600E-10       0.023     2371.159
     Symmetrizing Results
     Final NS sqrt iter    6 1.00000000   0.216E-11

     Est. extremal eigenvalues     -0.83873     2.60757  converged:  T
     TRS4 it   1 1.00000000   0.286E+02       0.007     2122.857   0.100E-11
     TRS4 it   2 1.00000000   0.237E+02       0.013     2210.693   0.100E-11
     TRS4 it   3 1.00000000   0.157E+02       0.013     2167.839   0.100E-11
     TRS4 it   4 1.00000000   0.927E+01       0.013     2166.494   0.100E-11
     TRS4 it   5 1.00000000   0.397E+01       0.013     2193.653   0.100E-11
     TRS4 it   6 1.00000000   0.106E+01       0.013     2201.229   0.100E-11
     TRS4 it   7 1.00000000   0.137E+00       0.013     2177.677   0.100E-11
     TRS4 it   8 1.00000000   0.349E-02       0.013     2196.704   0.100E-11
     TRS4 it   9 1.00000000   0.369E-05       0.013     2206.636   0.100E-11
     TRS4 it  10 1.00000000   0.187E-10       0.013     2194.509   0.100E-11
     Final TRS4 iteration   10 1.00000000   0.187E-10
     Chemical potential (mu):       0.05676
 
 PAO| energy:  -189.84883051088372      penalty:   6.8312574045732602E-004
 PAO|LS| adapt:  T F T
 PAO|LS| adapt: scan_steps:    0.0000000000000000        0.0000000000000000       0.56602648757962604     
 PAO|LS| adapt: energies:   -190.73881806624053        0.0000000000000000       -189.84883051088372     
 PAO| ======================= Iteration:         8 =============================

     Lanczos converged:  F threshold:   0.100E-02
     Est. extremal eigenvalues:    0.495E+01   0.126E+00
     Est. condition number :    0.393E+02

 Order=           3
     NS sqrt iter    1 1.00000000   0.126E+01       0.021     2693.774
     NS sqrt iter    2 1.00000000   0.651E+00       0.034     3359.667
     NS sqrt iter    3 1.00000000   0.215E+00       0.034     3354.973
     NS sqrt iter    4 1.00000000   0.306E-01       0.034     3357.948
     NS sqrt iter    5 1.00000000   0.193E-03       0.034     3357.642
     NS sqrt iter    6 1.00000000   0.139E-09       0.026     2527.928
     Symmetrizing Results
     Final NS sqrt iter    6 1.00000000   0.136E-11

     Est. extremal eigenvalues     -0.83983     2.61194  converged:  T
     TRS4 it   1 1.00000000   0.285E+02       0.007     2079.059   0.100E-11
     TRS4 it   2 1.00000000   0.236E+02       0.013     2184.068   0.100E-11
     TRS4 it   3 1.00000000   0.156E+02       0.013     2205.123   0.100E-11
     TRS4 it   4 1.00000000   0.918E+01       0.013     2203.284   0.100E-11
     TRS4 it   5 1.00000000   0.390E+01       0.013     2202.183   0.100E-11
     TRS4 it   6 1.00000000   0.104E+01       0.013     2215.182   0.100E-11
     TRS4 it   7 1.00000000   0.135E+00       0.013     2211.889   0.100E-11
     TRS4 it   8 1.00000000   0.345E-02       0.013     2189.204   0.100E-11
     TRS4 it   9 1.00000000   0.367E-05       0.013     2177.436   0.100E-11
     TRS4 it  10 1.00000000   0.194E-10       0.013     2196.420   0.100E-11
     Final TRS4 iteration   10 1.00000000   0.194E-10
     Chemical potential (mu):       0.05514
 
 PAO| energy:  -191.12602850604645      penalty:   5.1436803301382135E-004
 PAO|LS| adapt:  T T T
 PAO|LS| adapt: scan_steps:    0.0000000000000000       0.28301324378981302       0.56602648757962604     
 PAO|LS| adapt: energies:   -190.73881806624053       -191.12602850604645       -189.84883051088372     
 PAO|LS| adapt: suggested step_size:   0.20734724147865585     
 PAO|LS| adapt: predicted energy  -191.18551494519571     
 PAO| ======================= Iteration:         9 =============================

     Lanczos converged:  F threshold:   0.100E-02
     Est. extremal eigenvalues:    0.497E+01   0.125E+00
     Est. condition number :    0.399E+02

 Order=           3
     NS sqrt iter    1 1.00000000   0.127E+01       0.021     2683.603
     NS sqrt iter    2 1.00000000   0.654E+00       0.034     3375.918
     NS sqrt iter    3 1.00000000   0.218E+00       0.034     3353.246
     NS sqrt iter    4 1.00000000   0.314E-01       0.034     3371.163
     NS sqrt iter    5 1.00000000   0.208E-03       0.034     3365.980
     NS sqrt iter    6 1.00000000   0.172E-09       0.027     2576.410
     Symmetrizing Results
     Final NS sqrt iter    6 1.00000000   0.107E-11

     Est. extremal eigenvalues     -0.83972     2.61308  converged:  T
     TRS4 it   1 1.00000000   0.285E+02       0.007     2072.181   0.100E-11
     TRS4 it   2 1.00000000   0.236E+02       0.013     2171.949   0.100E-11
     TRS4 it   3 1.00000000   0.156E+02       0.013     2204.605   0.100E-11
     TRS4 it   4 1.00000000   0.916E+01       0.013     2202.106   0.100E-11
     TRS4 it   5 1.00000000   0.389E+01       0.013     2192.323   0.100E-11
     TRS4 it   6 1.00000000   0.104E+01       0.013     2171.910   0.100E-11
     TRS4 it   7 1.00000000   0.135E+00       0.013     2196.621   0.100E-11
     TRS4 it   8 1.00000000   0.344E-02       0.013     2190.670   0.100E-11
     TRS4 it   9 1.00000000   0.364E-05       0.013     2204.045   0.100E-11
     TRS4 it  10 1.00000000   0.192E-10       0.013     2193.518   0.100E-11
     Final TRS4 iteration   10 1.00000000   0.192E-10
     Chemical potential (mu):       0.05502
 
 PAO| energy:  -191.18979011128144      penalty:   4.9719187151074087E-004
 PAO|CG| trace_G_new   0.73515939656358176     
 PAO|CG| trace_G_prev    4.4064523491797623     
 PAO|CG| trace_G_mix   -4.3909571141251498E-002
 PAO|CG| trace_D    4.4064523491797623     
 PAO|CG| trace_D_Gnew   4.3909571141251498E-002
 PAO|CG| beta:   0.17680185917586350     
 PAO| norm of gradient:  0.85741436689828199     
 PAO| energy improvement: -0.45097204504091337     
 PAO| step      9                 -191.189790111  0.167E-02  0.207E+00     1.509
 PAO|LS| adapt:  T F F
 PAO|LS| adapt: scan_steps:    0.0000000000000000        0.0000000000000000        0.0000000000000000     
 PAO|LS| adapt: energies:   -191.18979011128144        0.0000000000000000        0.0000000000000000     
 PAO| ======================= Iteration:        10 =============================

     Lanczos converged:  F threshold:   0.100E-02
     Est. extremal eigenvalues:    0.492E+01   0.128E+00
     Est. condition number :    0.385E+02

 Order=           3
     NS sqrt iter    1 1.00000000   0.126E+01       0.021     2682.794
     NS sqrt iter    2 1.00000000   0.645E+00       0.034     3349.793
     NS sqrt iter    3 1.00000000   0.212E+00       0.034     3368.999
     NS sqrt iter    4 1.00000000   0.292E-01       0.034     3349.360
     NS sqrt iter    5 1.00000000   0.167E-03       0.034     3347.652
     NS sqrt iter    6 1.00000000   0.891E-10       0.025     2424.135
     Symmetrizing Results
     Final NS sqrt iter    6 1.00000000   0.184E-11

     Est. extremal eigenvalues     -0.84029     2.59930  converged:  T
     TRS4 it   1 1.00000000   0.285E+02       0.007     2118.628   0.100E-11
     TRS4 it   2 1.00000000   0.236E+02       0.013     2189.653   0.100E-11
     TRS4 it   3 1.00000000   0.156E+02       0.013     2211.210   0.100E-11
     TRS4 it   4 1.00000000   0.914E+01       0.013     2196.710   0.100E-11
     TRS4 it   5 1.00000000   0.387E+01       0.013     2201.134   0.100E-11
     TRS4 it   6 1.00000000   0.102E+01       0.013     2205.721   0.100E-11
     TRS4 it   7 1.00000000   0.131E+00       0.013     2184.465   0.100E-11
     TRS4 it   8 1.00000000   0.326E-02       0.013     2208.814   0.100E-11
     TRS4 it   9 1.00000000   0.329E-05       0.013     2188.111   0.100E-11
     TRS4 it  10 1.00000000   0.157E-10       0.013     2197.171   0.100E-11
     Final TRS4 iteration   10 1.00000000   0.157E-10
     Chemical potential (mu):       0.05583
 
 PAO| energy:  -191.29171688812093      penalty:   4.9999585007281730E-004
 PAO|LS| adapt:  T T F
 PAO|LS| adapt: scan_steps:    0.0000000000000000       0.20734724147865585        0.0000000000000000     
 PAO|LS| adapt: energies:   -191.18979011128144       -191.29171688812093        0.0000000000000000     
 PAO| ======================= Iteration:        11 =============================

     Lanczos converged:  F threshold:   0.100E-02
     Est. extremal eigenvalues:    0.486E+01   0.131E+00
     Est. condition number :    0.372E+02

 Order=           3
     NS sqrt iter    1 1.00000000   0.125E+01       0.021     2674.022
     NS sqrt iter    2 1.00000000   0.637E+00       0.034     3332.852
     NS sqrt iter    3 1.00000000   0.206E+00       0.034     3359.741
     NS sqrt iter    4 1.00000000   0.271E-01       0.034     3367.879
     NS sqrt iter    5 1.00000000   0.134E-03       0.033     3384.480
     NS sqrt iter    6 1.00000000   0.456E-10       0.021     2286.807
     Symmetrizing Results
     Final NS sqrt iter    6 1.00000000   0.227E-11

     Est. extremal eigenvalues     -0.84029     2.58527  converged:  T
     TRS4 it   1 1.00000000   0.285E+02       0.007     2098.563   0.100E-11
     TRS4 it   2 1.00000000   0.235E+02       0.013     2198.595   0.100E-11
     TRS4 it   3 1.00000000   0.156E+02       0.013     2170.330   0.100E-11
     TRS4 it   4 1.00000000   0.912E+01       0.013     2217.955   0.100E-11
     TRS4 it   5 1.00000000   0.384E+01       0.013     2205.070   0.100E-11
     TRS4 it   6 1.00000000   0.101E+01       0.013     2196.215   0.100E-11
     TRS4 it   7 1.00000000   0.127E+00       0.013     2188.185   0.100E-11
     TRS4 it   8 1.00000000   0.306E-02       0.013     2200.131   0.100E-11
     TRS4 it   9 1.00000000   0.292E-05       0.013     2207.915   0.100E-11
     TRS4 it  10 1.00000000   0.125E-10       0.013     2191.986   0.100E-11
     Final TRS4 iteration   10 1.00000000   0.125E-10
     Chemical potential (mu):       0.05673
 
 PAO| energy:  -191.29851841883956      penalty:   5.1313880332098157E-004
 PAO|LS| adapt:  T T F
 PAO|LS| adapt: scan_steps:    0.0000000000000000       0.41469448295731171        0.0000000000000000     
 PAO|LS| adapt: energies:   -191.18979011128144       -191.29851841883956        0.0000000000000000     
 PAO| ======================= Iteration:        12 =============================

     Lanczos converged:  F threshold:   0.100E-02
     Est. extremal eigenvalues:    0.477E+01   0.138E+00
     Est. condition number :    0.347E+02

 Order=           3
     NS sqrt iter    1 1.00000000   0.123E+01       0.021     2696.354
     NS sqrt iter    2 1.00000000   0.621E+00       0.034     3370.519
     NS sqrt iter    3 1.00000000   0.196E+00       0.034     3372.323
     NS sqrt iter    4 1.00000000   0.233E-01       0.034     3342.253
     NS sqrt iter    5 1.00000000   0.850E-04       0.034     3366.830
     NS sqrt iter    6 1.00000000   0.115E-10       0.015     2138.825
     Symmetrizing Results
     Final NS sqrt iter    6 1.00000000   0.170E-11

     Est. extremal eigenvalues     -0.83872     2.55715  converged:  T
     TRS4 it   1 1.00000000   0.284E+02       0.007     2138.618   0.100E-11
     TRS4 it   2 1.00000000   0.233E+02       0.013     2202.517   0.100E-11
     TRS4 it   3 1.00000000   0.155E+02       0.013     2211.463   0.100E-11
     TRS4 it   4 1.00000000   0.904E+01       0.013     2169.174   0.100E-11
     TRS4 it   5 1.00000000   0.377E+01       0.013     2196.054   0.100E-11
     TRS4 it   6 1.00000000   0.968E+00       0.013     2200.300   0.100E-11
     TRS4 it   7 1.00000000   0.118E+00       0.013     2191.218   0.100E-11
     TRS4 it   8 1.00000000   0.262E-02       0.013     2193.452   0.100E-11
     TRS4 it   9 1.00000000   0.220E-05       0.013     2206.923   0.100E-11
     TRS4 it  10 1.00000000   0.736E-11       0.013     2190.945   0.100E-11
     Final TRS4 iteration   10 1.00000000   0.736E-11
     Chemical potential (mu):       0.05875
 
 PAO| energy:  -191.04352283698029      penalty:   5.7792418313186108E-004
 PAO|LS| Need extra step
 PAO|LS| adapt:  T T T
 PAO|LS| adapt: scan_steps:    0.0000000000000000       0.41469448295731171       0.82938896591462341     
 PAO|LS| adapt: energies:   -191.18979011128144       -191.29851841883956       -191.04352283698029     
 PAO|LS| adapt: suggested step_size:   0.33131223414895244     
 PAO|LS| adapt: predicted energy  -191.30587087634714     
 PAO| ======================= Iteration:        13 =============================

     Lanczos converged:  F threshold:   0.100E-02
     Est. extremal eigenvalues:    0.488E+01   0.130E+00
     Est. condition number :    0.377E+02

 Order=           3
     NS sqrt iter    1 1.00000000   0.125E+01       0.021     2684.648
     NS sqrt iter    2 1.00000000   0.640E+00       0.034     3353.313
     NS sqrt iter    3 1.00000000   0.209E+00       0.034     3306.838
     NS sqrt iter    4 1.00000000   0.279E-01       0.034     3324.647
     NS sqrt iter    5 1.00000000   0.146E-03       0.034     3372.291
     NS sqrt iter    6 1.00000000   0.598E-10       0.022     2373.217
     Symmetrizing Results
     Final NS sqrt iter    6 1.00000000   0.220E-11

     Est. extremal eigenvalues     -0.84035     2.59093  converged:  T
     TRS4 it   1 1.00000000   0.285E+02       0.007     2100.152   0.100E-11
     TRS4 it   2 1.00000000   0.235E+02       0.013     2196.055   0.100E-11
     TRS4 it   3 1.00000000   0.156E+02       0.013     2207.851   0.100E-11
     TRS4 it   4 1.00000000   0.913E+01       0.013     2194.584   0.100E-11
     TRS4 it   5 1.00000000   0.385E+01       0.013     2185.336   0.100E-11
     TRS4 it   6 1.00000000   0.101E+01       0.013     2197.963   0.100E-11
     TRS4 it   7 1.00000000   0.129E+00       0.013     2178.621   0.100E-11
     TRS4 it   8 1.00000000   0.314E-02       0.013     2208.663   0.100E-11
     TRS4 it   9 1.00000000   0.307E-05       0.013     2198.123   0.100E-11
     TRS4 it  10 1.00000000   0.138E-10       0.013     2174.888   0.100E-11
     Final TRS4 iteration   10 1.00000000   0.138E-10
     Chemical potential (mu):       0.05635
 
 PAO| energy:  -191.30695607210657      penalty:   5.0652387140498120E-004
 PAO|CG| trace_G_new   0.28465285329077872     
 PAO|CG| trace_G_prev   0.73515939656358176     
 PAO|CG| trace_G_mix   -1.2341531927689216E-002
 PAO|CG| trace_D   0.85737365085324080     
 PAO|CG| trace_D_Gnew   1.1871396903193675E-002
 PAO|CG| beta:   0.40398638255422442     
 PAO| norm of gradient:  0.53352868085115979     
 PAO| energy improvement: -0.11716596082513320     
 PAO| step     13                 -191.306956072  0.104E-02  0.331E+00     1.939
 PAO|LS| adapt:  T F F
 PAO|LS| adapt: scan_steps:    0.0000000000000000        0.0000000000000000        0.0000000000000000     
 PAO|LS| adapt: energies:   -191.30695607210657        0.0000000000000000        0.0000000000000000     
 PAO| ======================= Iteration:        14 =============================

     Lanczos converged:  F threshold:   0.100E-02
     Est. extremal eigenvalues:    0.481E+01   0.133E+00
     Est. condition number :    0.363E+02

 Order=           3
     NS sqrt iter    1 1.00000000   0.124E+01       0.021     2691.503
     NS sqrt iter    2 1.00000000   0.629E+00       0.034     3358.241
     NS sqrt iter    3 1.00000000   0.202E+00       0.034     3373.286
     NS sqrt iter    4 1.00000000   0.257E-01       0.034     3369.388
     NS sqrt iter    5 1.00000000   0.116E-03       0.034     3356.627
     NS sqrt iter    6 1.00000000   0.301E-10       0.019     2250.172
     Symmetrizing Results
     Final NS sqrt iter    6 1.00000000   0.224E-11

     Est. extremal eigenvalues     -0.84083     2.58449  converged:  T
     TRS4 it   1 1.00000000   0.285E+02       0.007     2125.530   0.100E-11
     TRS4 it   2 1.00000000   0.235E+02       0.013     2190.599   0.100E-11
     TRS4 it   3 1.00000000   0.156E+02       0.013     2190.606   0.100E-11
     TRS4 it   4 1.00000000   0.907E+01       0.013     2197.931   0.100E-11
     TRS4 it   5 1.00000000   0.379E+01       0.013     2177.417   0.100E-11
     TRS4 it   6 1.00000000   0.982E+00       0.013     2197.203   0.100E-11
     TRS4 it   7 1.00000000   0.121E+00       0.013     2208.226   0.100E-11
     TRS4 it   8 1.00000000   0.277E-02       0.013     2204.207   0.100E-11
     TRS4 it   9 1.00000000   0.242E-05       0.013     2203.008   0.100E-11
     TRS4 it  10 1.00000000   0.873E-11       0.013     2176.485   0.100E-11
     Final TRS4 iteration   10 1.00000000   0.873E-11
     Chemical potential (mu):       0.05828
 
 PAO| energy:  -191.36089253870003      penalty:   5.0945910007622918E-004
 PAO|LS| adapt:  T T F
 PAO|LS| adapt: scan_steps:    0.0000000000000000       0.33131223414895244        0.0000000000000000     
 PAO|LS| adapt: energies:   -191.30695607210657       -191.36089253870003        0.0000000000000000     
 PAO| ======================= Iteration:        15 =============================

     Lanczos converged:  F threshold:   0.100E-02
     Est. extremal eigenvalues:    0.474E+01   0.136E+00
     Est. condition number :    0.350E+02

 Order=           3
     NS sqrt iter    1 1.00000000   0.122E+01       0.021     2663.741
     NS sqrt iter    2 1.00000000   0.619E+00       0.034     3370.501
     NS sqrt iter    3 1.00000000   0.196E+00       0.034     3342.856
     NS sqrt iter    4 1.00000000   0.238E-01       0.034     3360.573
     NS sqrt iter    5 1.00000000   0.930E-04       0.034     3343.467
     NS sqrt iter    6 1.00000000   0.152E-10       0.016     2166.569
     Symmetrizing Results
     Final NS sqrt iter    6 1.00000000   0.189E-11

     Est. extremal eigenvalues     -0.84080     2.57765  converged:  T
     TRS4 it   1 1.00000000   0.285E+02       0.007     2121.822   0.100E-11
     TRS4 it   2 1.00000000   0.234E+02       0.013     2205.148   0.100E-11
     TRS4 it   3 1.00000000   0.155E+02       0.013     2162.249   0.100E-11
     TRS4 it   4 1.00000000   0.901E+01       0.013     2192.295   0.100E-11
     TRS4 it   5 1.00000000   0.373E+01       0.013     2207.125   0.100E-11
     TRS4 it   6 1.00000000   0.951E+00       0.013     2203.074   0.100E-11
     TRS4 it   7 1.00000000   0.114E+00       0.013     2197.354   0.100E-11
     TRS4 it   8 1.00000000   0.244E-02       0.013     2181.065   0.100E-11
     TRS4 it   9 1.00000000   0.191E-05       0.013     2192.222   0.100E-11
     TRS4 it  10 1.00000000   0.553E-11       0.013     2197.395   0.100E-11
     Final TRS4 iteration   10 1.00000000   0.553E-11
     Chemical potential (mu):       0.06010
 
 PAO| energy:  -191.33847406205925      penalty:   5.2829882306684858E-004
 PAO|LS| adapt:  T T T
 PAO|LS| adapt: scan_steps:    0.0000000000000000       0.33131223414895244       0.66262446829790489     
 PAO|LS| adapt: energies:   -191.30695607210657       -191.36089253870003       -191.33847406205925     
 PAO|LS| adapt: suggested step_size:   0.39969219243843118     
 PAO|LS| adapt: predicted energy  -191.36251879832477     
 PAO| ======================= Iteration:        16 =============================

     Lanczos converged:  F threshold:   0.100E-02
     Est. extremal eigenvalues:    0.480E+01   0.133E+00
     Est. condition number :    0.360E+02

 Order=           3
     NS sqrt iter    1 1.00000000   0.123E+01       0.021     2683.032
     NS sqrt iter    2 1.00000000   0.627E+00       0.034     3374.552
     NS sqrt iter    3 1.00000000   0.201E+00       0.034     3318.435
     NS sqrt iter    4 1.00000000   0.253E-01       0.034     3364.112
     NS sqrt iter    5 1.00000000   0.111E-03       0.034     3365.500
     NS sqrt iter    6 1.00000000   0.261E-10       0.018     2201.813
     Symmetrizing Results
     Final NS sqrt iter    6 1.00000000   0.217E-11

     Est. extremal eigenvalues     -0.84087     2.58311  converged:  T
     TRS4 it   1 1.00000000   0.285E+02       0.007     2132.177   0.100E-11
     TRS4 it   2 1.00000000   0.235E+02       0.013     2170.125   0.100E-11
     TRS4 it   3 1.00000000   0.156E+02       0.013     2196.106   0.100E-11
     TRS4 it   4 1.00000000   0.906E+01       0.013     2177.154   0.100E-11
     TRS4 it   5 1.00000000   0.378E+01       0.013     2200.957   0.100E-11
     TRS4 it   6 1.00000000   0.976E+00       0.013     2204.165   0.100E-11
     TRS4 it   7 1.00000000   0.120E+00       0.013     2188.110   0.100E-11
     TRS4 it   8 1.00000000   0.270E-02       0.013     2195.788   0.100E-11
     TRS4 it   9 1.00000000   0.230E-05       0.013     2222.880   0.100E-11
     TRS4 it  10 1.00000000   0.796E-11       0.013     2196.374   0.100E-11
     Final TRS4 iteration   10 1.00000000   0.796E-11
     Chemical potential (mu):       0.05866
 
 PAO| energy:  -191.36245793471355      penalty:   5.1199082955621922E-004
 PAO|CG| trace_G_new   0.10363355449599765     
 PAO|CG| trace_G_prev   0.28465285329077872     
 PAO|CG| trace_G_mix    4.5312190582440914E-003
 PAO|CG| trace_D   0.41498875227258136     
 PAO|CG| trace_D_Gnew   8.1328935252333032E-004
 PAO|CG| beta:   0.34815156177801770     
 PAO| norm of gradient:  0.32192165894204394     
 PAO| energy improvement:  -5.5501862606973873E-002
 PAO| step     16                 -191.362457935  0.629E-03  0.400E+00     1.486
 PAO|LS| adapt:  T F F
 PAO|LS| adapt: scan_steps:    0.0000000000000000        0.0000000000000000        0.0000000000000000     
 PAO|LS| adapt: energies:   -191.36245793471355        0.0000000000000000        0.0000000000000000     
 PAO| ======================= Iteration:        17 =============================

     Lanczos converged:  F threshold:   0.100E-02
     Est. extremal eigenvalues:    0.476E+01   0.134E+00
     Est. condition number :    0.356E+02

 Order=           3
     NS sqrt iter    1 1.00000000   0.123E+01       0.021     2685.329
     NS sqrt iter    2 1.00000000   0.622E+00       0.034     3363.454
     NS sqrt iter    3 1.00000000   0.198E+00       0.034     3335.417
     NS sqrt iter    4 1.00000000   0.245E-01       0.034     3354.531
     NS sqrt iter    5 1.00000000   0.101E-03       0.034     3323.519
     NS sqrt iter    6 1.00000000   0.197E-10       0.017     2166.146
     Symmetrizing Results
     Final NS sqrt iter    6 1.00000000   0.203E-11

     Est. extremal eigenvalues     -0.84090     2.57942  converged:  T
     TRS4 it   1 1.00000000   0.285E+02       0.007     2094.526   0.100E-11
     TRS4 it   2 1.00000000   0.234E+02       0.013     2193.461   0.100E-11
     TRS4 it   3 1.00000000   0.155E+02       0.013     2198.733   0.100E-11
     TRS4 it   4 1.00000000   0.901E+01       0.013     2196.477   0.100E-11
     TRS4 it   5 1.00000000   0.374E+01       0.013     2215.915   0.100E-11
     TRS4 it   6 1.00000000   0.955E+00       0.013     2188.557   0.100E-11
     TRS4 it   7 1.00000000   0.115E+00       0.013     2213.876   0.100E-11
     TRS4 it   8 1.00000000   0.250E-02       0.013     2200.361   0.100E-11
     TRS4 it   9 1.00000000   0.199E-05       0.013     2183.914   0.100E-11
     TRS4 it  10 1.00000000   0.596E-11       0.013     2191.312   0.100E-11
     Final TRS4 iteration   10 1.00000000   0.596E-11
     Chemical potential (mu):       0.05974
 
 PAO| energy:  -191.36585468444804      penalty:   5.0486681230373759E-004
 PAO|LS| adapt:  T T F
 PAO|LS| adapt: scan_steps:    0.0000000000000000       0.39969219243843118        0.0000000000000000     
 PAO|LS| adapt: energies:   -191.36245793471355       -191.36585468444804        0.0000000000000000     
 PAO| ======================= Iteration:        18 =============================

     Lanczos converged:  F threshold:   0.100E-02
     Est. extremal eigenvalues:    0.472E+01   0.134E+00
     Est. condition number :    0.352E+02

 Order=           3
     NS sqrt iter    1 1.00000000   0.122E+01       0.021     2681.456
     NS sqrt iter    2 1.00000000   0.618E+00       0.034     3350.694
     NS sqrt iter    3 1.00000000   0.196E+00       0.034     3358.869
     NS sqrt iter    4 1.00000000   0.237E-01       0.034     3325.355
     NS sqrt iter    5 1.00000000   0.923E-04       0.034     3360.800
     NS sqrt iter    6 1.00000000   0.149E-10       0.016     2159.362
     Symmetrizing Results
     Final NS sqrt iter    6 1.00000000   0.186E-11

     Est. extremal eigenvalues     -0.84079     2.57557  converged:  T
     TRS4 it   1 1.00000000   0.286E+02       0.007     2141.092   0.100E-11
     TRS4 it   2 1.00000000   0.234E+02       0.013     2199.072   0.100E-11
     TRS4 it   3 1.00000000   0.155E+02       0.013     2197.858   0.100E-11
     TRS4 it   4 1.00000000   0.896E+01       0.013     2176.075   0.100E-11
     TRS4 it   5 1.00000000   0.369E+01       0.013     2177.306   0.100E-11
     TRS4 it   6 1.00000000   0.936E+00       0.013     2197.778   0.100E-11
     TRS4 it   7 1.00000000   0.111E+00       0.013     2205.241   0.100E-11
     TRS4 it   8 1.00000000   0.231E-02       0.013     2177.326   0.100E-11
     TRS4 it   9 1.00000000   0.172E-05       0.013     2184.722   0.100E-11
     TRS4 it  10 1.00000000   0.445E-11       0.013     2175.806   0.100E-11
     Final TRS4 iteration   10 1.00000000   0.445E-11
     Chemical potential (mu):       0.06085
 
 PAO| energy:  -191.29319987152169      penalty:   5.0540061770277948E-004
 PAO|LS| adapt:  T T T
 PAO|LS| adapt: scan_steps:    0.0000000000000000       0.39969219243843118       0.79938438487686236     
 PAO|LS| adapt: energies:   -191.36245793471355       -191.36585468444804       -191.29319987152169     
 PAO|LS| adapt: suggested step_size:   0.21769785759062010     
 PAO|LS| adapt: predicted energy  -191.37373861074300     
 PAO| ======================= Iteration:        19 =============================

     Lanczos converged:  F threshold:   0.100E-02
     Est. extremal eigenvalues:    0.478E+01   0.133E+00
     Est. condition number :    0.358E+02

 Order=           3
     NS sqrt iter    1 1.00000000   0.123E+01       0.021     2687.330
     NS sqrt iter    2 1.00000000   0.625E+00       0.034     3338.557
     NS sqrt iter    3 1.00000000   0.199E+00       0.034     3363.222
     NS sqrt iter    4 1.00000000   0.249E-01       0.034     3361.427
     NS sqrt iter    5 1.00000000   0.105E-03       0.034     3361.816
     NS sqrt iter    6 1.00000000   0.224E-10       0.018     2183.306
     Symmetrizing Results
     Final NS sqrt iter    6 1.00000000   0.209E-11

     Est. extremal eigenvalues     -0.84091     2.58112  converged:  T
     TRS4 it   1 1.00000000   0.285E+02       0.007     2123.313   0.100E-11
     TRS4 it   2 1.00000000   0.235E+02       0.013     2190.267   0.100E-11
     TRS4 it   3 1.00000000   0.155E+02       0.013     2190.365   0.100E-11
     TRS4 it   4 1.00000000   0.903E+01       0.013     2194.902   0.100E-11
     TRS4 it   5 1.00000000   0.376E+01       0.013     2168.546   0.100E-11
     TRS4 it   6 1.00000000   0.965E+00       0.013     2166.519   0.100E-11
     TRS4 it   7 1.00000000   0.117E+00       0.013     2202.280   0.100E-11
     TRS4 it   8 1.00000000   0.259E-02       0.013     2223.886   0.100E-11
     TRS4 it   9 1.00000000   0.213E-05       0.013     2206.663   0.100E-11
     TRS4 it  10 1.00000000   0.679E-11       0.013     2185.703   0.100E-11
     Final TRS4 iteration   10 1.00000000   0.679E-11
     Chemical potential (mu):       0.05924
 
 PAO| energy:  -191.37371971690425      penalty:   5.0717708120501357E-004
 PAO|CG| trace_G_new    2.1619788757269276E-002
 PAO|CG| trace_G_prev   0.10363355449599765     
 PAO|CG| trace_G_mix   -2.8604410593818016E-004
 PAO|CG| trace_D   0.15336784188486838     
 PAO|CG| trace_D_Gnew  -5.7391544012051491E-005
 PAO|CG| beta:   0.21137780103888520     
 PAO| norm of gradient:  0.14703669187406684     
 PAO| energy improvement:  -1.1261782190700842E-002
 PAO| step     19                 -191.373719717  0.287E-03  0.218E+00     1.485
 PAO|LS| adapt:  T F F
 PAO|LS| adapt: scan_steps:    0.0000000000000000        0.0000000000000000        0.0000000000000000     
 PAO|LS| adapt: energies:   -191.37371971690425        0.0000000000000000        0.0000000000000000     
 PAO| ======================= Iteration:        20 =============================

     Lanczos converged:  F threshold:   0.100E-02
     Est. extremal eigenvalues:    0.477E+01   0.133E+00
     Est. condition number :    0.358E+02

 Order=           3
     NS sqrt iter    1 1.00000000   0.123E+01       0.021     2681.131
     NS sqrt iter    2 1.00000000   0.624E+00       0.034     3360.285
     NS sqrt iter    3 1.00000000   0.199E+00       0.034     3370.950
     NS sqrt iter    4 1.00000000   0.248E-01       0.034     3359.999
     NS sqrt iter    5 1.00000000   0.105E-03       0.034     3336.739
     NS sqrt iter    6 1.00000000   0.219E-10       0.018     2184.844
     Symmetrizing Results
     Final NS sqrt iter    6 1.00000000   0.209E-11

     Est. extremal eigenvalues     -0.84091     2.57953  converged:  T
     TRS4 it   1 1.00000000   0.285E+02       0.007     2113.270   0.100E-11
     TRS4 it   2 1.00000000   0.234E+02       0.013     2177.332   0.100E-11
     TRS4 it   3 1.00000000   0.155E+02       0.013     2162.236   0.100E-11
     TRS4 it   4 1.00000000   0.902E+01       0.013     2191.996   0.100E-11
     TRS4 it   5 1.00000000   0.375E+01       0.013     2193.642   0.100E-11
     TRS4 it   6 1.00000000   0.960E+00       0.013     2214.014   0.100E-11
     TRS4 it   7 1.00000000   0.116E+00       0.013     2205.036   0.100E-11
     TRS4 it   8 1.00000000   0.255E-02       0.013     2215.526   0.100E-11
     TRS4 it   9 1.00000000   0.207E-05       0.013     2233.385   0.100E-11
     TRS4 it  10 1.00000000   0.645E-11       0.013     2200.538   0.100E-11
     Final TRS4 iteration   10 1.00000000   0.645E-11
     Chemical potential (mu):       0.05941
 
 PAO| energy:  -191.37752537707723      penalty:   4.9758562534943536E-004
 PAO|LS| adapt:  T T F
 PAO|LS| adapt: scan_steps:    0.0000000000000000       0.21769785759062010        0.0000000000000000     
 PAO|LS| adapt: energies:   -191.37371971690425       -191.37752537707723        0.0000000000000000     
 PAO| ======================= Iteration:        21 =============================

     Lanczos converged:  F threshold:   0.100E-02
     Est. extremal eigenvalues:    0.477E+01   0.133E+00
     Est. condition number :    0.358E+02

 Order=           3
     NS sqrt iter    1 1.00000000   0.123E+01       0.021     2678.730
     NS sqrt iter    2 1.00000000   0.624E+00       0.033     3389.516
     NS sqrt iter    3 1.00000000   0.199E+00       0.034     3375.526
     NS sqrt iter    4 1.00000000   0.248E-01       0.034     3359.641
     NS sqrt iter    5 1.00000000   0.104E-03       0.034     3346.357
     NS sqrt iter    6 1.00000000   0.216E-10       0.018     2174.187
     Symmetrizing Results
     Final NS sqrt iter    6 1.00000000   0.208E-11

     Est. extremal eigenvalues     -0.84091     2.57794  converged:  T
     TRS4 it   1 1.00000000   0.285E+02       0.007     2090.934   0.100E-11
     TRS4 it   2 1.00000000   0.234E+02       0.013     2193.489   0.100E-11
     TRS4 it   3 1.00000000   0.155E+02       0.013     2194.970   0.100E-11
     TRS4 it   4 1.00000000   0.901E+01       0.013     2196.632   0.100E-11
     TRS4 it   5 1.00000000   0.374E+01       0.013     2203.564   0.100E-11
     TRS4 it   6 1.00000000   0.956E+00       0.013     2189.760   0.100E-11
     TRS4 it   7 1.00000000   0.115E+00       0.013     2197.914   0.100E-11
     TRS4 it   8 1.00000000   0.251E-02       0.013     2187.163   0.100E-11
     TRS4 it   9 1.00000000   0.201E-05       0.013     2169.315   0.100E-11
     TRS4 it  10 1.00000000   0.609E-11       0.013     2193.589   0.100E-11
     Final TRS4 iteration   10 1.00000000   0.609E-11
     Chemical potential (mu):       0.05958
 
 PAO| energy:  -191.37951055098446      penalty:   4.8841405583760120E-004
 PAO|LS| adapt:  T T F
 PAO|LS| adapt: scan_steps:    0.0000000000000000       0.43539571518124021        0.0000000000000000     
 PAO|LS| adapt: energies:   -191.37371971690425       -191.37951055098446        0.0000000000000000     
 PAO| ======================= Iteration:        22 =============================

     Lanczos converged:  F threshold:   0.100E-02
     Est. extremal eigenvalues:    0.475E+01   0.133E+00
     Est. condition number :    0.358E+02

 Order=           3
     NS sqrt iter    1 1.00000000   0.122E+01       0.021     2692.170
     NS sqrt iter    2 1.00000000   0.622E+00       0.034     3341.247
     NS sqrt iter    3 1.00000000   0.199E+00       0.034     3371.306
     NS sqrt iter    4 1.00000000   0.248E-01       0.034     3352.768
     NS sqrt iter    5 1.00000000   0.104E-03       0.034     3335.230
     NS sqrt iter    6 1.00000000   0.209E-10       0.017     2174.555
     Symmetrizing Results
     Final NS sqrt iter    6 1.00000000   0.207E-11

     Est. extremal eigenvalues     -0.84090     2.57475  converged:  T
     TRS4 it   1 1.00000000   0.285E+02       0.007     2121.509   0.100E-11
     TRS4 it   2 1.00000000   0.234E+02       0.013     2173.494   0.100E-11
     TRS4 it   3 1.00000000   0.155E+02       0.013     2206.154   0.100E-11
     TRS4 it   4 1.00000000   0.898E+01       0.013     2193.048   0.100E-11
     TRS4 it   5 1.00000000   0.371E+01       0.013     2195.522   0.100E-11
     TRS4 it   6 1.00000000   0.947E+00       0.013     2196.484   0.100E-11
     TRS4 it   7 1.00000000   0.114E+00       0.013     2188.731   0.100E-11
     TRS4 it   8 1.00000000   0.244E-02       0.013     2171.359   0.100E-11
     TRS4 it   9 1.00000000   0.190E-05       0.013     2203.381   0.100E-11
     TRS4 it  10 1.00000000   0.548E-11       0.013     2199.956   0.100E-11
     Final TRS4 iteration   10 1.00000000   0.548E-11
     Chemical potential (mu):       0.05993
 
 PAO| energy:  -191.37793865261378      penalty:   4.7130433876845277E-004
 PAO|LS| Need extra step
 PAO|LS| adapt:  T T T
 PAO|LS| adapt: scan_steps:    0.0000000000000000       0.43539571518124021       0.87079143036248041     
 PAO|LS| adapt: energies:   -191.37371971690425       -191.37951055098446       -191.37793865261378     
 PAO|LS| adapt: suggested step_size:   0.56013924910730850     
 PAO|LS| adapt: predicted energy  -191.37981273870213     
 PAO| ======================= Iteration:        23 =============================

     Lanczos converged:  F threshold:   0.100E-02
     Est. extremal eigenvalues:    0.476E+01   0.133E+00
     Est. condition number :    0.358E+02

 Order=           3
     NS sqrt iter    1 1.00000000   0.122E+01       0.021     2699.687
     NS sqrt iter    2 1.00000000   0.623E+00       0.033     3382.949
     NS sqrt iter    3 1.00000000   0.199E+00       0.034     3365.824
     NS sqrt iter    4 1.00000000   0.248E-01       0.034     3356.588
     NS sqrt iter    5 1.00000000   0.104E-03       0.034     3342.132
     NS sqrt iter    6 1.00000000   0.214E-10       0.018     2155.914
     Symmetrizing Results
     Final NS sqrt iter    6 1.00000000   0.208E-11

     Est. extremal eigenvalues     -0.84091     2.57702  converged:  T
     TRS4 it   1 1.00000000   0.285E+02       0.007     2086.813   0.100E-11
     TRS4 it   2 1.00000000   0.234E+02       0.013     2193.192   0.100E-11
     TRS4 it   3 1.00000000   0.155E+02       0.013     2202.972   0.100E-11
     TRS4 it   4 1.00000000   0.900E+01       0.013     2165.024   0.100E-11
     TRS4 it   5 1.00000000   0.373E+01       0.013     2219.487   0.100E-11
     TRS4 it   6 1.00000000   0.954E+00       0.013     2204.679   0.100E-11
     TRS4 it   7 1.00000000   0.115E+00       0.013     2205.084   0.100E-11
     TRS4 it   8 1.00000000   0.249E-02       0.013     2227.431   0.100E-11
     TRS4 it   9 1.00000000   0.198E-05       0.013     2206.567   0.100E-11
     TRS4 it  10 1.00000000   0.590E-11       0.013     2185.995   0.100E-11
     Final TRS4 iteration   10 1.00000000   0.590E-11
     Chemical potential (mu):       0.05968
 
 PAO| energy:  -191.37981984151847      penalty:   4.8334512632748373E-004
 PAO|CG| trace_G_new    1.6089740631141269E-002
 PAO|CG| trace_G_prev    2.1619788757269276E-002
 PAO|CG| trace_G_mix    1.1277844067214340E-004
 PAO|CG| trace_D    2.8496614680974697E-002
 PAO|CG| trace_D_Gnew  -4.6815216580343108E-005
 PAO|CG| beta:   0.73899714607975309     
 PAO| norm of gradient:  0.12684534138525258     
 PAO| energy improvement:  -6.1001246142211585E-003
 PAO| step     23                 -191.379819842  0.248E-03  0.560E+00     1.926
 PAO|LS| adapt:  T F F
 PAO|LS| adapt: scan_steps:    0.0000000000000000        0.0000000000000000        0.0000000000000000     
 PAO|LS| adapt: energies:   -191.37981984151847        0.0000000000000000        0.0000000000000000     
 PAO| ======================= Iteration:        24 =============================

     Lanczos converged:  F threshold:   0.100E-02
     Est. extremal eigenvalues:    0.474E+01   0.133E+00
     Est. condition number :    0.358E+02

 Order=           3
     NS sqrt iter    1 1.00000000   0.122E+01       0.021     2662.196
     NS sqrt iter    2 1.00000000   0.621E+00       0.034     3348.944
     NS sqrt iter    3 1.00000000   0.199E+00       0.034     3347.701
     NS sqrt iter    4 1.00000000   0.247E-01       0.034     3342.820
     NS sqrt iter    5 1.00000000   0.103E-03       0.034     3323.451
     NS sqrt iter    6 1.00000000   0.208E-10       0.017     2162.586
     Symmetrizing Results
     Final NS sqrt iter    6 1.00000000   0.206E-11

     Est. extremal eigenvalues     -0.84091     2.57337  converged:  T
     TRS4 it   1 1.00000000   0.285E+02       0.007     2132.634   0.100E-11
     TRS4 it   2 1.00000000   0.234E+02       0.013     2196.440   0.100E-11
     TRS4 it   3 1.00000000   0.155E+02       0.013     2196.413   0.100E-11
     TRS4 it   4 1.00000000   0.897E+01       0.013     2209.277   0.100E-11
     TRS4 it   5 1.00000000   0.371E+01       0.013     2195.498   0.100E-11
     TRS4 it   6 1.00000000   0.944E+00       0.013     2206.082   0.100E-11
     TRS4 it   7 1.00000000   0.113E+00       0.013     2153.346   0.100E-11
     TRS4 it   8 1.00000000   0.241E-02       0.013     2185.517   0.100E-11
     TRS4 it   9 1.00000000   0.186E-05       0.013     2220.391   0.100E-11
     TRS4 it  10 1.00000000   0.529E-11       0.013     2208.011   0.100E-11
     Final TRS4 iteration   10 1.00000000   0.529E-11
     Chemical potential (mu):       0.06004
 
 PAO| energy:  -191.38296525033604      penalty:   4.4659036707396684E-004
 PAO|LS| adapt:  T T F
 PAO|LS| adapt: scan_steps:    0.0000000000000000       0.56013924910730850        0.0000000000000000     
 PAO|LS| adapt: energies:   -191.37981984151847       -191.38296525033604        0.0000000000000000     
 PAO| ======================= Iteration:        25 =============================

     Lanczos converged:  F threshold:   0.100E-02
     Est. extremal eigenvalues:    0.473E+01   0.132E+00
     Est. condition number :    0.358E+02

 Order=           3
     NS sqrt iter    1 1.00000000   0.121E+01       0.021     2705.016
     NS sqrt iter    2 1.00000000   0.620E+00       0.034     3332.969
     NS sqrt iter    3 1.00000000   0.198E+00       0.034     3334.300
     NS sqrt iter    4 1.00000000   0.246E-01       0.034     3315.886
     NS sqrt iter    5 1.00000000   0.103E-03       0.034     3317.656
     NS sqrt iter    6 1.00000000   0.205E-10       0.017     2161.237
     Symmetrizing Results
     Final NS sqrt iter    6 1.00000000   0.205E-11

     Est. extremal eigenvalues     -0.84089     2.56953  converged:  T
     TRS4 it   1 1.00000000   0.285E+02       0.007     2117.175   0.100E-11
     TRS4 it   2 1.00000000   0.234E+02       0.013     2187.136   0.100E-11
     TRS4 it   3 1.00000000   0.155E+02       0.013     2186.960   0.100E-11
     TRS4 it   4 1.00000000   0.895E+01       0.013     2196.866   0.100E-11
     TRS4 it   5 1.00000000   0.369E+01       0.013     2187.442   0.100E-11
     TRS4 it   6 1.00000000   0.935E+00       0.013     2198.242   0.100E-11
     TRS4 it   7 1.00000000   0.111E+00       0.013     2199.456   0.100E-11
     TRS4 it   8 1.00000000   0.234E-02       0.013     2178.249   0.100E-11
     TRS4 it   9 1.00000000   0.176E-05       0.013     2200.193   0.100E-11
     TRS4 it  10 1.00000000   0.470E-11       0.013     2213.738   0.100E-11
     Final TRS4 iteration   10 1.00000000   0.470E-11
     Chemical potential (mu):       0.06039
 
 PAO| energy:  -191.37414354344193      penalty:   4.1361581342083063E-004
 PAO|LS| adapt:  T T T
 PAO|LS| adapt: scan_steps:    0.0000000000000000       0.56013924910730850        1.1202784982146170     
 PAO|LS| adapt: energies:   -191.37981984151847       -191.38296525033604       -191.37414354344193     
 PAO|LS| adapt: suggested step_size:   0.42729532000597997     
 PAO|LS| adapt: predicted energy  -191.38330180135458     
 PAO| ======================= Iteration:        26 =============================

     Lanczos converged:  F threshold:   0.100E-02
     Est. extremal eigenvalues:    0.475E+01   0.133E+00
     Est. condition number :    0.358E+02

 Order=           3
     NS sqrt iter    1 1.00000000   0.122E+01       0.021     2683.678
     NS sqrt iter    2 1.00000000   0.622E+00       0.034     3348.169
     NS sqrt iter    3 1.00000000   0.199E+00       0.034     3338.094
     NS sqrt iter    4 1.00000000   0.247E-01       0.034     3316.470
     NS sqrt iter    5 1.00000000   0.104E-03       0.034     3331.599
     NS sqrt iter    6 1.00000000   0.210E-10       0.017     2174.473
     Symmetrizing Results
     Final NS sqrt iter    6 1.00000000   0.206E-11

     Est. extremal eigenvalues     -0.84091     2.57425  converged:  T
     TRS4 it   1 1.00000000   0.285E+02       0.007     2110.512   0.100E-11
     TRS4 it   2 1.00000000   0.234E+02       0.013     2187.578   0.100E-11
     TRS4 it   3 1.00000000   0.155E+02       0.013     2178.976   0.100E-11
     TRS4 it   4 1.00000000   0.898E+01       0.013     2196.413   0.100E-11
     TRS4 it   5 1.00000000   0.371E+01       0.013     2202.684   0.100E-11
     TRS4 it   6 1.00000000   0.947E+00       0.013     2184.195   0.100E-11
     TRS4 it   7 1.00000000   0.113E+00       0.013     2197.710   0.100E-11
     TRS4 it   8 1.00000000   0.243E-02       0.013     2193.956   0.100E-11
     TRS4 it   9 1.00000000   0.189E-05       0.013     2187.960   0.100E-11
     TRS4 it  10 1.00000000   0.544E-11       0.013     2188.192   0.100E-11
     Final TRS4 iteration   10 1.00000000   0.544E-11
     Chemical potential (mu):       0.05995
 
 PAO| energy:  -191.38329085467660      penalty:   4.5495889771632580E-004
 PAO|CG| trace_G_new    1.2617284440996423E-002
 PAO|CG| trace_G_prev    1.6089740631141269E-002
 PAO|CG| trace_G_mix    2.3641417410822057E-004
 PAO|CG| trace_D    3.1721412759050938E-002
 PAO|CG| trace_D_Gnew  -7.2394085625345422E-005
 PAO|CG| beta:   0.76948849274334197     
 PAO| norm of gradient:  0.11232668623704886     
 PAO| energy improvement:  -3.4710131581334736E-003
 PAO| step     26                 -191.383290855  0.219E-03  0.427E+00     1.488
 PAO|LS| adapt:  T F F
 PAO|LS| adapt: scan_steps:    0.0000000000000000        0.0000000000000000        0.0000000000000000     
 PAO|LS| adapt: energies:   -191.38329085467660        0.0000000000000000        0.0000000000000000     
 PAO| ======================= Iteration:        27 =============================

     Lanczos converged:  F threshold:   0.100E-02
     Est. extremal eigenvalues:    0.473E+01   0.132E+00
     Est. condition number :    0.358E+02

 Order=           3
     NS sqrt iter    1 1.00000000   0.122E+01       0.021     2668.719
     NS sqrt iter    2 1.00000000   0.620E+00       0.034     3345.849
     NS sqrt iter    3 1.00000000   0.198E+00       0.034     3341.348
     NS sqrt iter    4 1.00000000   0.246E-01       0.034     3322.523
     NS sqrt iter    5 1.00000000   0.103E-03       0.034     3356.759
     NS sqrt iter    6 1.00000000   0.208E-10       0.017     2167.915
     Symmetrizing Results
     Final NS sqrt iter    6 1.00000000   0.207E-11

     Est. extremal eigenvalues     -0.84092     2.57177  converged:  T
     TRS4 it   1 1.00000000   0.285E+02       0.007     2084.868   0.100E-11
     TRS4 it   2 1.00000000   0.234E+02       0.013     2181.928   0.100E-11
     TRS4 it   3 1.00000000   0.155E+02       0.013     2187.859   0.100E-11
     TRS4 it   4 1.00000000   0.896E+01       0.013     2179.353   0.100E-11
     TRS4 it   5 1.00000000   0.370E+01       0.013     2162.311   0.100E-11
     TRS4 it   6 1.00000000   0.939E+00       0.013     2192.698   0.100E-11
     TRS4 it   7 1.00000000   0.112E+00       0.013     2199.640   0.100E-11
     TRS4 it   8 1.00000000   0.236E-02       0.013     2208.631   0.100E-11
     TRS4 it   9 1.00000000   0.178E-05       0.013     2228.832   0.100E-11
     TRS4 it  10 1.00000000   0.485E-11       0.013     2202.899   0.100E-11
     Final TRS4 iteration   10 1.00000000   0.485E-11
     Chemical potential (mu):       0.06035
 
 PAO| energy:  -191.38584446868745      penalty:   4.1962840003178446E-004
 PAO|LS| adapt:  T T F
 PAO|LS| adapt: scan_steps:    0.0000000000000000       0.42729532000597997        0.0000000000000000     
 PAO|LS| adapt: energies:   -191.38329085467660       -191.38584446868745        0.0000000000000000     
 PAO| ======================= Iteration:        28 =============================

     Lanczos converged:  F threshold:   0.100E-02
     Est. extremal eigenvalues:    0.472E+01   0.132E+00
     Est. condition number :    0.358E+02

 Order=           3
     NS sqrt iter    1 1.00000000   0.121E+01       0.022     2645.438
     NS sqrt iter    2 1.00000000   0.618E+00       0.034     3344.458
     NS sqrt iter    3 1.00000000   0.197E+00       0.034     3299.652
     NS sqrt iter    4 1.00000000   0.244E-01       0.034     3307.993
     NS sqrt iter    5 1.00000000   0.102E-03       0.034     3336.035
     NS sqrt iter    6 1.00000000   0.207E-10       0.017     2171.373
     Symmetrizing Results
     Final NS sqrt iter    6 1.00000000   0.206E-11

     Est. extremal eigenvalues     -0.84092     2.56914  converged:  T
     TRS4 it   1 1.00000000   0.286E+02       0.007     2092.179   0.100E-11
     TRS4 it   2 1.00000000   0.234E+02       0.013     2201.619   0.100E-11
     TRS4 it   3 1.00000000   0.155E+02       0.013     2201.396   0.100E-11
     TRS4 it   4 1.00000000   0.894E+01       0.013     2190.810   0.100E-11
     TRS4 it   5 1.00000000   0.368E+01       0.013     2204.919   0.100E-11
     TRS4 it   6 1.00000000   0.931E+00       0.013     2203.579   0.100E-11
     TRS4 it   7 1.00000000   0.110E+00       0.013     2180.243   0.100E-11
     TRS4 it   8 1.00000000   0.229E-02       0.013     2176.576   0.100E-11
     TRS4 it   9 1.00000000   0.169E-05       0.013     2177.924   0.100E-11
     TRS4 it  10 1.00000000   0.434E-11       0.013     2197.351   0.100E-11
     Final TRS4 iteration   10 1.00000000   0.434E-11
     Chemical potential (mu):       0.06074
 
 PAO| energy:  -191.38262657886091      penalty:   3.8721895017523205E-004
 PAO|LS| adapt:  T T T
 PAO|LS| adapt: scan_steps:    0.0000000000000000       0.42729532000597997       0.85459064001195995     
 PAO|LS| adapt: energies:   -191.38329085467660       -191.38584446868745       -191.38262657886091     
 PAO|LS| adapt: suggested step_size:   0.40270537298036441     
 PAO|LS| adapt: predicted energy  -191.38585402560651     
 PAO| ======================= Iteration:        29 =============================

     Lanczos converged:  F threshold:   0.100E-02
     Est. extremal eigenvalues:    0.473E+01   0.132E+00
     Est. condition number :    0.358E+02

 Order=           3
     NS sqrt iter    1 1.00000000   0.122E+01       0.021     2671.889
     NS sqrt iter    2 1.00000000   0.620E+00       0.034     3330.571
     NS sqrt iter    3 1.00000000   0.198E+00       0.034     3328.196
     NS sqrt iter    4 1.00000000   0.246E-01       0.034     3337.911
     NS sqrt iter    5 1.00000000   0.103E-03       0.034     3323.165
     NS sqrt iter    6 1.00000000   0.208E-10       0.017     2164.631
     Symmetrizing Results
     Final NS sqrt iter    6 1.00000000   0.208E-11

     Est. extremal eigenvalues     -0.84092     2.57192  converged:  T
     TRS4 it   1 1.00000000   0.285E+02       0.007     2106.017   0.100E-11
     TRS4 it   2 1.00000000   0.234E+02       0.013     2174.170   0.100E-11
     TRS4 it   3 1.00000000   0.155E+02       0.013     2175.659   0.100E-11
     TRS4 it   4 1.00000000   0.896E+01       0.013     2225.733   0.100E-11
     TRS4 it   5 1.00000000   0.370E+01       0.013     2205.858   0.100E-11
     TRS4 it   6 1.00000000   0.939E+00       0.013     2196.844   0.100E-11
     TRS4 it   7 1.00000000   0.112E+00       0.013     2189.680   0.100E-11
     TRS4 it   8 1.00000000   0.236E-02       0.013     2212.618   0.100E-11
     TRS4 it   9 1.00000000   0.179E-05       0.013     2204.757   0.100E-11
[...]
     TRS4 it   5 1.00000000   0.421E+01       0.013     2177.491   0.100E-11
     TRS4 it   6 1.00000000   0.133E+01       0.013     2203.665   0.100E-11
     TRS4 it   7 1.00000000   0.245E+00       0.013     2185.389   0.100E-11
     TRS4 it   8 1.00000000   0.134E-01       0.013     2167.289   0.100E-11
     TRS4 it   9 1.00000000   0.603E-04       0.013     2193.937   0.100E-11
     TRS4 it  10 1.00000000   0.468E-08       0.013     2194.206   0.100E-11
     TRS4 it  11 1.00000000   0.124E-13       0.013     2210.830   0.100E-11
     Final TRS4 iteration   11 1.00000000   0.124E-13
     Chemical potential (mu):       0.02986
 
 PAO| energy:  -191.00821537844979      penalty:   1.4769984626926874E-008
 PAO| Writing restart file.
     Est. extremal eigenvalues     -0.84105     2.57503  converged:  T
     TRS4 it   1 1.00000000   0.288E+02       0.007     2110.377   0.100E-11
     TRS4 it   2 1.00000000   0.236E+02       0.013     2202.171   0.100E-11
     TRS4 it   3 1.00000000   0.157E+02       0.013     2188.197   0.100E-11
     TRS4 it   4 1.00000000   0.932E+01       0.013     2201.498   0.100E-11
     TRS4 it   5 1.00000000   0.421E+01       0.013     2184.596   0.100E-11
     TRS4 it   6 1.00000000   0.133E+01       0.013     2192.957   0.100E-11
     TRS4 it   7 1.00000000   0.245E+00       0.013     2200.872   0.100E-11
     TRS4 it   8 1.00000000   0.134E-01       0.013     2215.495   0.100E-11
     TRS4 it   9 1.00000000   0.603E-04       0.013     2171.634   0.100E-11
     TRS4 it  10 1.00000000   0.468E-08       0.013     2201.360   0.100E-11
     TRS4 it  11 1.00000000   0.124E-13       0.013     2208.917   0.100E-11
     Final TRS4 iteration   11 1.00000000   0.124E-13
     Chemical potential (mu):       0.02986

 SCF     1     -1103.042857679     -1103.042857679    1.758555

*********************************************************
 Using MIXING_FRACTION=0.450 to mix KS matrix:  iscf=  2
 KS_nw=0.450*KS + 0.550*KS_old
*********************************************************
     Est. extremal eigenvalues     -0.84105     2.57503  converged:  T
     TRS4 it   1 1.00000000   0.288E+02       0.007     2096.507   0.100E-11
     TRS4 it   2 1.00000000   0.236E+02       0.013     2197.856   0.100E-11
     TRS4 it   3 1.00000000   0.157E+02       0.013     2178.085   0.100E-11
     TRS4 it   4 1.00000000   0.932E+01       0.013     2184.873   0.100E-11
     TRS4 it   5 1.00000000   0.421E+01       0.013     2178.387   0.100E-11
     TRS4 it   6 1.00000000   0.133E+01       0.013     2166.347   0.100E-11
     TRS4 it   7 1.00000000   0.245E+00       0.013     2201.071   0.100E-11
     TRS4 it   8 1.00000000   0.134E-01       0.013     2206.833   0.100E-11
     TRS4 it   9 1.00000000   0.603E-04       0.013     2187.235   0.100E-11
     TRS4 it  10 1.00000000   0.468E-08       0.013     2193.442   0.100E-11
     TRS4 it  11 1.00000000   0.338E-13       0.013     2200.763   0.100E-11
     Final TRS4 iteration   11 1.00000000   0.338E-13
     Chemical potential (mu):       0.02986

 SCF     2     -1103.042857680        -0.000000000    1.757460


 SCF run converged in     2 steps.

 PAO| Storing density matrix for ASPC guess in slot:           1

 ENERGY| Total FORCE_EVAL ( QS ) energy [a.u.]:            -1103.042857679547978

 -------------------------------------------------------------------------------
 -                                                                             -
 -                                DBCSR STATISTICS                             -
 -                                                                             -
 -------------------------------------------------------------------------------
 COUNTER                                    TOTAL       BLAS       SMM       ACC
 flops     5 x     5 x     4             26419200       0.0%    100.0%      0.0%     
 flops    13 x     5 x     4             34078720       0.0%    100.0%      0.0%     
 flops     5 x    13 x     4             34078720       0.0%    100.0%      0.0%     
 flops    13 x    13 x     4             44994560       0.0%    100.0%      0.0%     
 flops     4 x     4 x     5           6488064000       0.0%    100.0%      0.0%     
 flops     5 x     4 x     5           8011776000       0.0%    100.0%      0.0%     
 flops     4 x     4 x    13           8434483200       0.0%    100.0%      0.0%     
 flops    13 x     4 x     5          10415308800       0.0%    100.0%      0.0%     
 flops     5 x     4 x    13          10415308800       0.0%    100.0%      0.0%     
 flops    13 x     4 x    13          13539901440       0.0%    100.0%      0.0%     
 flops     5 x     4 x     4         402682706880       0.0%    100.0%      0.0%     
 flops    13 x     4 x     4         528814604864       0.0%    100.0%      0.0%     
 flops     4 x     4 x     4       29851017073536       0.0%    100.0%      0.0%     
 flops inhomo. stacks                           0       0.0%      0.0%      0.0%
 flops total                        30.839959E+12       0.0%    100.0%      0.0%
 flops max/rank                    973.743974E+09       0.0%    100.0%      0.0%
 matmuls inhomo. stacks                         0       0.0%      0.0%      0.0%
 matmuls total                       237150281287       0.0%    100.0%      0.0%
 number of processed stacks             242284652       0.0%    100.0%      0.0%
 average stack size                                     0.0     978.8       0.0
 marketing flops                    53.522536E+12
 -------------------------------------------------------------------------------
 # multiplications                          50240
 max memory usage/rank             617.381888E+06
 # max total images/rank                        2
 # max 3D layers                                1
 # MPI messages exchanged                20899840
 MPI messages size (bytes):
  total size                         2.476888E+12
  min size                           0.000000E+00
  max size                         541.696000E+03
  average size                     118.512273E+03
 MPI breakdown and total messages size (bytes):
             size <=      128              890709                     8832
       128 < size <=     8192              343188               1341705856
      8192 < size <=    32768               56562               1335454848
     32768 < size <=   131072             8960133             665813941120
    131072 < size <=  4194304            10649248            1808813351936
   4194304 < size <= 16777216                   0                        0
  16777216 < size                               0                        0
 -------------------------------------------------------------------------------

 *** WARNING in dbcsr_mm.F:301 :: Using a non-square number of MPI ranks ***
 *** might lead to poor performance. Used ranks: 32 Suggested: 36 64     ***

 -------------------------------------------------------------------------------
 -                                                                             -
 -                      DBCSR MESSAGE PASSING PERFORMANCE                      -
 -                                                                             -
 -------------------------------------------------------------------------------
 ROUTINE             CALLS      AVE VOLUME [Bytes]
 MP_Bcast               14                     12.
 MP_Allreduce       302635                     37.
 MP_Alltoall        129595                  14534.
 MP_ISend          1681824                  55197.
 MP_IRecv          1644752                  56496.
 -------------------------------------------------------------------------------

 -------------------------------------------------------------------------------
 -                                                                             -
 -                                DBM STATISTICS                               -
 -                                                                             -
 -------------------------------------------------------------------------------
    M  x    N  x    K                                          COUNT     PERCENT
 -------------------------------------------------------------------------------

 -------------------------------------------------------------------------------
 -                                                                             -
 -                                GRID STATISTICS                              -
 -                                                                             -
 -------------------------------------------------------------------------------
 LP    KERNEL             BACKEND                              COUNT     PERCENT
 2     collocate ortho    CPU                               13102544      28.82%
 2     integrate ortho    CPU                               13102544      28.82%
 3     collocate ortho    CPU                                8425536      18.54%
 3     integrate ortho    CPU                                8425536      18.54%
 4     collocate ortho    CPU                                1197440       2.63%
 4     integrate ortho    CPU                                1197440       2.63%
 0     collocate general  CPU                                   6144       0.01%
 -------------------------------------------------------------------------------

 MEMORY| Estimated peak process memory [MiB]                                 589

 -------------------------------------------------------------------------------
 -                                                                             -
 -                         MESSAGE PASSING PERFORMANCE                         -
 -                                                                             -
 -------------------------------------------------------------------------------

 ROUTINE             CALLS      AVE VOLUME [Bytes]
 MP_Group                5
 MP_Bcast           355605                   1981.
 MP_Allreduce       884039                    514.
 MP_Sync                 5
 MP_Alltoall           419                1471232.
 MP_SendRecv          1488                  18832.
 MP_ISendRecv         1488                  18832.
 MP_Wait              4218
 MP_ISend             2470                 108139.
 MP_IRecv             2470                 108153.
 -------------------------------------------------------------------------------


 -------------------------------------------------------------------------------
 -                                                                             -
 -                           R E F E R E N C E S                               -
 -                                                                             -
 -------------------------------------------------------------------------------
 
 CP2K version 2024.3 (Development Version), the CP2K developers group (2024).
 CP2K is freely available from https://www.cp2k.org/ .
 
 T. D. Kuehne, M. Iannuzzi, M. Del Ben, V. V. Rybkin, P. Seewald, F. Stein, T. 
 Laino, R. Z. Khaliullin, O. Schuett, F. Schiffmann, D. Golze, J. Wilhelm, S. 
 Chulkov, M. H. Bani-Hashemian, V. Weber, U. Borstnik, M. Taillefumier, A. S. 
 Jakobovits, A. Lazzaro, H. Pabst, T. Mueller, R. Schade, M. Guidon, S. 
 Andermatt, N. Holmberg, G. K. Schenter, A. Hehn, A. Bussy, F. Belleflamme, G. 
 Tabacchi, A. Gloess, M. Lass, I. Bethune, C. J. Mundy, C. Plessl, M. Watkins, 
 J. VandeVondele, M. Krack, J. Hutter.
 J. Chem. Phys. 152, 194103 (2020).
 CP2K: An electronic structure and molecular dynamics software package - 
 Quickstep: Efficient and accurate electronic structure calculations.
 https://doi.org/10.1063/5.0007045

 O. Schuett, J. VandeVondele.
 J. Chem. Theory Comput. 14, 4168-4175 (2018).
 Machine Learning Adaptive Basis Sets for Efficient Large Scale Density 
 Functional Theory Simulation.
 https://doi.org/10.1021/acs.jctc.8b00378

 O. Schuett, P. Messmer, J. Hutter, J. VandeVondele.
 Electronic Structure Calculations on Graphics Processing Units, 173-190 (2016).
 GPU-Accelerated Sparse Matrix-Matrix Multiplication for Linear Scaling Density 
 Functional Theory.
 https://doi.org/10.1002/9781118670712.ch8

 A. Heinecke, G. Henry, M. Hutchinson, H. Pabst.
 Proceedings of Intl. Supercomputing Conference, 981-991 (2016).
 LIBXSMM: Accelerating Small Matrix Multiplications by Runtime Code Generation.
 https://doi.org/10.1109/SC.2016.83

 J. Hutter, M. Iannuzzi, F. Schiffmann, J. VandeVondele.
 WIREs Comput Mol Sci. 4, 15-25 (2014).
 CP2K: atomistic simulations of condensed matter systems.
 https://doi.org/10.1002/wcms.1159

 U. Borstnik, J. VandeVondele, V. Weber, J. Hutter.
 Parallel Comput. 40, 47-58 (2014).
 Sparse matrix multiplication: The distributed block-compressed sparse row 
 library.
 https://doi.org/10.1016/j.parco.2014.03.012

 A. Marek, V. Blum, R. Johanni, V. Havu, B. Lang, T. Auckenthaler, A. Heinecke, 
 H. Bungartz, H. Lederer.
 J. Phys. Condens. Matter 26, 213201 (2014).
 The ELPA library: scalable parallel eigenvalue solutions for electronic 
 structure theory and computational science.
 https://doi.org/10.1088/0953-8984/26/21/213201

 J. VandeVondele, U. Borstnik, J. Hutter.
 J. Chem. Theory Comput. 8, 3565-3573 (2012).
 Linear Scaling Self-Consistent Field Calculations with Millions of Atoms in the 
 Condensed Phase.
 https://doi.org/10.1021/ct200897x

 J. VandeVondele, J. Hutter.
 J. Chem. Phys. 127, 114105 (2007).
 Gaussian basis sets for accurate calculations on molecular systems in gas and 
 condensed phases.
 https://doi.org/10.1063/1.2770708

 J. VandeVondele, M. Krack, F. Mohamed, M. Parrinello, T. Chassaing, J. Hutter.
 Comput. Phys. Commun. 167, 103-128 (2005).
 QUICKSTEP: Fast and accurate density functional calculations using a mixed 
 Gaussian and plane waves approach.
 https://doi.org/10.1016/j.cpc.2004.12.014

 M. Krack.
 Theor. Chem. Acc. 114, 145-152 (2005).
 Pseudopotentials for H to Kr optimized for gradient-corrected 
 exchange-correlation functionals.
 https://doi.org/10.1007/s00214-005-0655-y

 M. Frigo, S. G. Johnson.
 Proc. IEEE 93, 216-231 (2005).
 The design and implementation of FFTW3.
 https://doi.org/10.1109/JPROC.2004.840301

 A. M. N. Niklasson, C. J. Tymczak, M. Challacombe.
 J. Chem. Phys. 118, 8611-8620 (2003).
 Trace resetting density matrix purification in O(N) self-consistent-field 
 theory.
 https://doi.org/10.1063/1.1559913

 C. Hartwigsen, S. Goedecker, J. Hutter.
 Phys. Rev. B 58, 3641-3662 (1998).
 Relativistic separable dual-space Gaussian pseudopotentials from H to Rn.
 https://doi.org/10.1103/PhysRevB.58.3641

 G. Lippert, J. Hutter, M. Parrinello.
 Mol. Phys. 92, 477-487 (1997).
 A hybrid Gaussian and plane wave density functional scheme.
 https://doi.org/10.1080/002689797170220

 S. Goedecker, M. Teter, J. Hutter.
 Phys. Rev. B 54, 1703-1710 (1996).
 Separable dual-space Gaussian pseudopotentials.
 https://doi.org/10.1103/PhysRevB.54.1703

 J. P. Perdew, K. Burke, M. Ernzerhof.
 Phys. Rev. Lett. 77, 3865-3868 (1996).
 Generalized gradient approximation made simple.
 https://doi.org/10.1103/PhysRevLett.77.3865


 -------------------------------------------------------------------------------
 -                                                                             -
 -                                T I M I N G                                  -
 -                                                                             -
 -------------------------------------------------------------------------------
 SUBROUTINE                       CALLS  ASD         SELF TIME        TOTAL TIME
                                MAXIMUM       AVERAGE  MAXIMUM  AVERAGE  MAXIMUM
 CP2K                                 1  1.0    0.013    0.016  447.158  447.158
 qs_energies                          1  2.0    0.000    0.000  447.001  447.001
 ls_scf                               1  3.0    0.000    0.000  445.959  445.960
 pao_update                           7  4.0    0.006    0.026  416.008  416.012
 pao_calc_energy                    814  5.0    0.003    0.019  373.025  373.029
 dbcsr_multiply_generic           50240  8.4    1.400    1.518  350.262  350.573
 multiply_cannon                  50240  9.4    2.611    3.100  281.626  286.167
 multiply_cannon_loop             50240 10.4    1.874    2.099  270.899  276.349
 ls_scf_init_matrix_S               821  7.0    0.009    0.010  213.357  213.416
 pao_rebuild_S                      814  6.0    0.002    0.003  211.531  211.591
 matrix_sqrt_Newton_Schulz          821  8.0    0.170    0.285  198.005  198.044
 multiply_cannon_multrec         401920 11.4  177.789  185.052  178.613  185.875
 pao_dm_trs4                        814  6.0    0.006    0.007  161.114  161.159
 density_matrix_trs4                829  7.0    0.215    0.372  155.240  155.321
 mp_waitall_1                   3217108 12.6   88.952   97.810   88.952   97.810
 multiply_cannon_metrocomm3      401920 11.4    0.699    0.751   70.992   76.151
 arnoldi_extremal                  1650  8.5    0.013    0.015   58.341   58.385
 arnoldi_normal_ev                 1650  9.5    0.036    0.060   58.325   58.367
 make_m2s                        100480  9.4    0.547    0.704   51.497   52.530
 build_subspace                    5734 10.7    0.349    0.375   51.301   51.338
 make_images                     100480 10.4    7.375    7.586   50.132   51.217
 dbcsr_matrix_vector_mult        175320 11.7    0.749    1.129   48.326   48.693
 pao_calc_AB                       1080  5.8    0.002    0.002   42.526   42.529
 pao_calc_AB_equi                  1080  6.8    0.040    0.099   42.524   42.528
 pao_calc_grad_lnv_wrt_AB           265  7.0    0.020    0.025   42.108   42.151
 dbcsr_matrix_vector_mult_local  175320 12.7   41.245   41.687   41.441   41.883
 ls_scf_main                          7  4.0    0.000    0.001   26.422   26.423
 make_images_data                100480 11.4    0.867    1.071   21.987   24.257
 ls_scf_dm_to_ks                     15  5.0    0.000    0.000   23.430   23.433
 hybrid_alltoall_any             102117 12.3    0.914    1.758   17.219   20.731
 matrix_qs_to_ls                   1650  7.5    0.016    0.024   17.342   17.441
 mp_sum_l                        205361  9.5    9.577   16.495    9.577   16.495
 qs_ks_update_qs_env                 16  6.0    0.000    0.000   13.940   13.943
 rebuild_ks_matrix                   16  7.0    0.000    0.000   13.929   13.931
 qs_ks_build_kohn_sham_matrix        16  8.0    0.003    0.003   13.929   13.931
 calculate_norms                 750528 11.4   11.661   12.562   11.661   12.562
 dbcsr_multiply_generic_mpsum_f   36915  9.5    0.026    0.035    6.363   11.927
 make_images_pack                100480 11.4   11.141   11.508   11.277   11.647
 qs_rho_update_rho_low               16  6.0    0.000    0.000   10.955   10.958
 calculate_rho_elec                  16  7.0    0.005    0.006   10.955   10.958
 sum_up_and_integrate                16  9.0    0.000    0.001   10.561   10.564
 integrate_v_rspace                  16 10.0    0.000    0.001   10.546   10.549
 grid_collocate_task_list            16  8.0    9.716    9.907    9.716    9.907
 grid_integrate_task_list            16 11.0    9.275    9.445    9.275    9.445
 -------------------------------------------------------------------------------

 The number of warnings for this run is : 1
 
 -------------------------------------------------------------------------------
  **** **** ******  **  PROGRAM ENDED AT                 2024-09-24 01:07:30.572
 ***** ** ***  *** **   PROGRAM RAN ON                                    moritz
 **    ****   ******    PROGRAM RAN BY                                       ole
 ***** **    ** ** **   PROGRAM PROCESS ID                                165713
  **** **  *******  **  PROGRAM STOPPED IN /home/ole/git/pao_ml_equivar/64H2O_MD
                                           /Frame2200
