 DBCSR| CPU Multiplication driver                                           XSMM
 DBCSR| Multrec recursion limit                                              512
 DBCSR| Multiplication stack size                                           1000
 DBCSR| Maximum elements for images                                    UNLIMITED
 DBCSR| Multiplicative factor virtual images                                   1
 DBCSR| Use multiplication densification                                       T
 DBCSR| Multiplication size stacks                                             3


  **** **** ******  **  PROGRAM STARTED AT               2019-02-14 11:07:11.533
 ***** ** ***  *** **   PROGRAM STARTED ON                                  otto
 **    ****   ******    PROGRAM STARTED BY                                   ole
 ***** **    ** ** **   PROGRAM PROCESS ID                                  7737
  **** **  *******  **  PROGRAM STARTED IN /home/ole/git/pao_ml_equivar/2H2O_MD/
                                           frame_1450

 CP2K| version string:                    CP2K version 7.0 (Development Version)
 CP2K| source code revision number:                                git:8bf305913
 CP2K| cp2kflags: libint fftw3 libxc xsmm libderiv_max_am1=5 libint_max_am=6    
 CP2K| is freely available from                            https://www.cp2k.org/
 CP2K| Program compiled at                           So Jan 13 00:02:37 CET 2019
 CP2K| Program compiled on                                                  otto
 CP2K| Program compiled for                                                local
 CP2K| Data directory path                               /home/ole/git/cp2k/data
 CP2K| Input file name                                            2H2O_pao44.inp

 GLOBAL| Force Environment number                                              1
 GLOBAL| Basis set file name                                        BASIS_MOLOPT
 GLOBAL| Potential file name                                      GTH_POTENTIALS
 GLOBAL| MM Potential file name                                     MM_POTENTIAL
 GLOBAL| Coordinate file name                                         coords.xyz
 GLOBAL| Method name                                                        CP2K
 GLOBAL| Project name                                                 2H2O_pao44
 GLOBAL| Preferred FFT library                                             FFTW3
 GLOBAL| Preferred diagonalization lib.                                       SL
 GLOBAL| Run type                                                         ENERGY
 GLOBAL| All-to-all communication in single precision                          F
 GLOBAL| FFTs using library dependent lengths                                  F
 GLOBAL| Global print level                                                  LOW
 GLOBAL| MPI I/O enabled                                                       T
 GLOBAL| Total number of message passing processes                             1
 GLOBAL| Number of threads for this process                                    1
 GLOBAL| This output is from process                                           0
 GLOBAL| CPU model name :  Intel(R) Core(TM) i5-3320M CPU @ 2.60GHz

 MEMORY| system memory details [Kb]
 MEMORY|                        rank 0           min           max       average
 MEMORY| MemTotal              7860772       7860772       7860772       7860772
 MEMORY| MemFree                633232        633232        633232        633232
 MEMORY| Buffers               1047648       1047648       1047648       1047648
 MEMORY| Cached                2066476       2066476       2066476       2066476
 MEMORY| Slab                   280268        280268        280268        280268
 MEMORY| SReclaimable           155756        155756        155756        155756
 MEMORY| MemLikelyFree         3903112       3903112       3903112       3903112


 GENERATE|  Preliminary Number of Bonds generated:                             0
 GENERATE|  Achieved consistency in connectivity generation.

 *******************************************************************************
 *******************************************************************************
 **                                                                           **
 **     #####                         ##              ##                      **
 **    ##   ##            ##          ##              ##                      **
 **   ##     ##                       ##            ######                    **
 **   ##     ##  ##   ##  ##   #####  ##  ##   ####   ##    #####    #####    **
 **   ##     ##  ##   ##  ##  ##      ## ##   ##      ##   ##   ##  ##   ##   **
 **   ##  ## ##  ##   ##  ##  ##      ####     ###    ##   ######   ######    **
 **    ##  ###   ##   ##  ##  ##      ## ##      ##   ##   ##       ##        **
 **     #######   #####   ##   #####  ##  ##  ####    ##    #####   ##        **
 **           ##                                                    ##        **
 **                                                                           **
 **                                                ... make the atoms dance   **
 **                                                                           **
 **            Copyright (C) by CP2K developers group (2000 - 2018)           **
 **                                                                           **
 *******************************************************************************


 TOTAL NUMBERS AND MAXIMUM NUMBERS

  Total number of            - Atomic kinds:                                   2
                             - Atoms:                                          6
                             - Shell sets:                                     6
                             - Shells:                                        22
                             - Primitive Cartesian functions:                 42
                             - Cartesian basis functions:                     48
                             - Spherical basis functions:                     46

  Maximum angular momentum of- Orbital basis functions:                        2
                             - Local part of the GTH pseudopotential:          2
                             - Non-local part of the GTH pseudopotential:      0

 ------------------------------ Linear scaling SCF -----------------------------
 eps_scf:                                       0.100E-07
 eps_filter:                                    0.100E-07
 mixing_fraction:                               0.450E+00
 max_scf:                                              25
 fixed chemical potential (mu)                          F
 has unit metric:                                       F
 Computing inv(S):                                      T
 Computing sqrt(S):                                     T
 Computing s preconditioner                             F
 sign sqrt order:                                       3
 Extrapolation order:                                   1
 Use single precision matrices                          F
 S preconditioner type                               NONE
 Polarized Atomic Orbitals (PAO)                        T
 Purification method                      Trace resetting 4th order
 Cluster type                                      ATOMIC
 Computing Chebyshev                                FALSE
 Using PAO                                              T
 -------------------------------------------------------------------------------

 
 PAO|                                  EPS_PAO                           0.5E-06
 PAO|                                  MIXING                            0.5E+00
 PAO|                                  MAX_PAO                              1000
 PAO|                                  MAX_CYCLES                           1000
 PAO|                                  PARAMETERIZATION                   DIRECT
 PAO|                                  PRECONDITION                            F
 PAO|                                  REGULARIZATION                    0.0E+00
 PAO|                                  EPS_PGF                           0.1E-09
 PAO|                                  PENALTY_DISTANCE                  0.1E+00
 PAO|                                  PENALTY_STRENGTH                  0.5E-02
 PAO|                                  LINPOT_PRECONDITION_DELTA         0.0E+00
 PAO|                                  LINPOT_INITGUESS_DELT             0.0E+00
 PAO|                                  LINPOT_REGULARIZATION_DELTA       0.0E+00
 PAO|                                  LINPOT_REGULARIZATION_STRENGTH    0.0E+00
 PAO|                                  OPTIMIZER                              CG
 PAO|                                  CG_INIT_STEPS                           2
 PAO|                                  CG_RESET_LIMIT                    0.1E+00
 PAO|                                  CHECK_UNITARY_TOL                -0.1E+01
 PAO|                                  CHECK_GRADIENT_TOL               -0.1E+01
 PAO|                                  NUM_GRADIENT_ORDER                      2
 PAO|                                  NUM_GRADIENT_EPS                  0.1E-07
 PAO|                                  PRINT%RESTART%WRITE_CYCLES            100
 PAO|                                  RESTART_FILE 
 PAO|                                  PREOPT_DM_FILE 2H2O_ref_LS_DM_SPIN_1_RESTART.dm
 PAO|                                  MACHINE_LEARNING%METHOD        GAUSSIAN_P
 PAO|                                  MACHINE_LEARNING%PRIOR               ZERO
 PAO|                                  MACHINE_LEARNING%DESCRIPTOR     POTENTIAL
 PAO|                                  MACHINE_LEARNING%TOLERANCE        0.1E-01
 PAO|                                  MACHINE_LEARNING%GP_NOISE_VAR     0.1E+00
 PAO|                                  MACHINE_LEARNING%GP_SCALE         0.5E-01
 

 Calculating atomic Fock matrix for atomic kind: O

 Electronic structure
    Total number of core electrons                                          2.00
    Total number of valence electrons                                       6.00
    Total number of electrons                                               8.00
    Multiplicity                                                   not specified
    S   [  2.00] 2.00
    P      4.00


 *******************************************************************************
                  Iteration          Convergence                     Energy [au]
 *******************************************************************************
                          1        0.708315                     -15.576645311500
                          2        0.608879                     -15.587933561584
                          3        0.102828E-01                 -15.656849565404
                          4        0.113889E-02                 -15.656866888140
                          5        0.434197E-03                 -15.656867072159
                          6        0.263771E-03                 -15.656867091904
                          7        0.478536E-06                 -15.656867103452

 Energy components [Hartree]           Total Energy ::          -15.656867103452
                                        Band Energy ::           -3.000198112285
                                     Kinetic Energy ::           11.759971203220
                                   Potential Energy ::          -27.416838306672
                                      Virial (-V/T) ::            2.331369510426
                                        Core Energy ::          -26.140716385623
                                          XC Energy ::           -3.154051012914
                                     Coulomb Energy ::           13.637900295084
                       Total Pseudopotential Energy ::          -37.935781716540
                       Local Pseudopotential Energy ::          -39.218907440693
                    Nonlocal Pseudopotential Energy ::            1.283125724153
                                        Confinement ::            0.350941276976

 Orbital energies  State     L     Occupation   Energy[a.u.]          Energy[eV]

                       1     0          2.000      -0.864471          -23.523463

                       1     1          4.000      -0.317814           -8.648154


 Total Electron Density at R=0:                                         0.000068

 Calculating atomic Fock matrix for atomic kind: H

 Electronic structure
    Total number of core electrons                                          0.00
    Total number of valence electrons                                       1.00
    Total number of electrons                                               1.00
    Multiplicity                                                   not specified
    S      1.00


 *******************************************************************************
                  Iteration          Convergence                     Energy [au]
 *******************************************************************************
                          1        0.437545E-02                  -0.424159432110
                          2        0.531356E-03                  -0.424178438213
                          3        0.259176E-06                  -0.424178722480

 Energy components [Hartree]           Total Energy ::           -0.424178722480
                                        Band Energy ::           -0.199015229016
                                     Kinetic Energy ::            0.464007633961
                                   Potential Energy ::           -0.888186356441
                                      Virial (-V/T) ::            1.914163240935
                                        Core Energy ::           -0.479160803564
                                          XC Energy ::           -0.244352904054
                                     Coulomb Energy ::            0.299334985138
                       Total Pseudopotential Energy ::           -0.962295316385
                       Local Pseudopotential Energy ::           -0.962295316385
                    Nonlocal Pseudopotential Energy ::            0.000000000000
                                        Confinement ::            0.191268788606

 Orbital energies  State     L     Occupation   Energy[a.u.]          Energy[eV]

                       1     0          1.000      -0.199015           -5.415480


 Total Electron Density at R=0:                                         0.242907
 PAO| Made initial guess for matrix_X with norm:   4.8989794855663558     

     Lanczos converged:  T threshold:   0.100E-02
     Est. extremal eigenvalues:    0.321E+01   0.114E+00
     Est. condition number :    0.283E+02
     NS sqrt iter    1 1.00000000   0.783E+00       0.001       47.274
     NS sqrt iter    2 1.00000000   0.418E+00       0.001       83.820
     NS sqrt iter    3 1.00000000   0.156E+00       0.001       83.771
     NS sqrt iter    4 1.00000000   0.170E-01       0.001       84.838
     NS sqrt iter    5 1.00000000   0.353E-04       0.001       67.033
     Final NS sqrt iter    5 1.00000000   0.186E-08

 PAO| Read restart DM 2H2O_ref_LS_DM_SPIN_1_RESTART.dm with checksum:    66.601563019606559     
 PAO| Quickstep energy from restart density:  -34.444362615221984     
 PAO| ======================= Iteration:         1 =============================

     Lanczos converged:  T threshold:   0.100E-02
     Est. extremal eigenvalues:    0.321E+01   0.114E+00
     Est. condition number :    0.283E+02
     NS sqrt iter    1 1.00000000   0.783E+00       0.001       64.512
     NS sqrt iter    2 1.00000000   0.418E+00       0.001      110.592
     NS sqrt iter    3 1.00000000   0.156E+00       0.001      110.592
     NS sqrt iter    4 1.00000000   0.170E-01       0.001      110.592
     NS sqrt iter    5 1.00000000   0.353E-04       0.001       85.760
     Final NS sqrt iter    5 1.00000000   0.186E-08

     Est. extremal eigenvalues     -0.90112     1.75700  converged:  T
     TRS4 it   1 1.00000000   0.867E+00       0.000       16.128   0.100E-07
     TRS4 it   2 1.00000000   0.666E+00       0.001       32.256   0.100E-07
     TRS4 it   3 1.00000000   0.487E+00       0.001       32.256   0.100E-07
     TRS4 it   4 1.00000000   0.305E+00       0.001       32.256   0.100E-07
     TRS4 it   5 1.00000000   0.150E+00       0.001       32.256   0.100E-07
     TRS4 it   6 1.00000000   0.439E-01       0.001       32.256   0.100E-07
     TRS4 it   7 1.00000000   0.488E-02       0.001       32.256   0.100E-07
     TRS4 it   8 1.00000000   0.778E-04       0.001       32.256   0.100E-07
     TRS4 it   9 1.00000000   0.233E-07       0.001       32.256   0.100E-07
     Final TRS4 iteration    9 1.00000000   0.233E-07
     Chemical potential (mu):      -0.07134
 
 PAO| energy:  -7.5673850214201623      penalty:   3.0198581527991854E-033
 PAO|CG| warming up with steepest descent
 PAO|CG| beta:    0.0000000000000000     
 PAO| norm of gradient:  0.78750281981299475     
 PAO|LS| adapt:  T F F
 PAO|LS| adapt: scan_steps:    0.0000000000000000        0.0000000000000000        0.0000000000000000     
 PAO|LS| adapt: energies:   -7.5673850214201623        0.0000000000000000        0.0000000000000000     
 PAO| ======================= Iteration:         2 =============================

     Lanczos converged:  T threshold:   0.100E-02
     Est. extremal eigenvalues:    0.314E+01   0.128E+00
     Est. condition number :    0.245E+02
     NS sqrt iter    1 1.00000000   0.771E+00       0.001       64.512
     NS sqrt iter    2 1.00000000   0.404E+00       0.001      110.592
     NS sqrt iter    3 1.00000000   0.139E+00       0.001      110.592
     NS sqrt iter    4 1.00000000   0.114E-01       0.001      110.592
     NS sqrt iter    5 1.00000000   0.104E-04       0.001       82.944
     Final NS sqrt iter    5 1.00000000   0.197E-09

     Est. extremal eigenvalues     -0.90462     1.70495  converged:  T
     TRS4 it   1 1.00000000   0.862E+00       0.000       16.128   0.100E-07
     TRS4 it   2 1.00000000   0.647E+00       0.001       32.256   0.100E-07
     TRS4 it   3 1.00000000   0.468E+00       0.001       32.256   0.100E-07
     TRS4 it   4 1.00000000   0.282E+00       0.001       32.256   0.100E-07
     TRS4 it   5 1.00000000   0.128E+00       0.001       32.256   0.100E-07
     TRS4 it   6 1.00000000   0.325E-01       0.001       32.256   0.100E-07
     TRS4 it   7 1.00000000   0.271E-02       0.001       32.256   0.100E-07
     TRS4 it   8 1.00000000   0.243E-04       0.001       32.256   0.100E-07
     TRS4 it   9 1.00000000   0.231E-08       0.001       32.256   0.100E-07
     Final TRS4 iteration    9 1.00000000   0.231E-08
     Chemical potential (mu):      -0.06013
 
 PAO| energy:  -7.6231963866040040      penalty:   2.2907590490219968E-008
 PAO|LS| adapt:  T T F
 PAO|LS| adapt: scan_steps:    0.0000000000000000       0.10000000000000001        0.0000000000000000     
 PAO|LS| adapt: energies:   -7.5673850214201623       -7.6231963866040040        0.0000000000000000     
 PAO| ======================= Iteration:         3 =============================

     Lanczos converged:  T threshold:   0.100E-02
     Est. extremal eigenvalues:    0.306E+01   0.142E+00
     Est. condition number :    0.216E+02
     NS sqrt iter    1 1.00000000   0.757E+00       0.001       64.512
     NS sqrt iter    2 1.00000000   0.389E+00       0.001      110.592
     NS sqrt iter    3 1.00000000   0.123E+00       0.001      110.592
     NS sqrt iter    4 1.00000000   0.765E-02       0.001      110.592
     NS sqrt iter    5 1.00000000   0.313E-05       0.001       82.944
     Final NS sqrt iter    5 1.00000000   0.180E-10

     Est. extremal eigenvalues     -0.90786     1.66721  converged:  T
     TRS4 it   1 1.00000000   0.859E+00       0.000       16.128   0.100E-07
     TRS4 it   2 1.00000000   0.631E+00       0.001       32.256   0.100E-07
     TRS4 it   3 1.00000000   0.450E+00       0.001       32.256   0.100E-07
     TRS4 it   4 1.00000000   0.260E+00       0.001       32.256   0.100E-07
     TRS4 it   5 1.00000000   0.109E+00       0.001       32.256   0.100E-07
     TRS4 it   6 1.00000000   0.234E-01       0.001       32.256   0.100E-07
     TRS4 it   7 1.00000000   0.140E-02       0.001       32.256   0.100E-07
     TRS4 it   8 1.00000000   0.659E-05       0.001       32.256   0.100E-07
     TRS4 it   9 1.00000000   0.172E-09       0.001       32.256   0.100E-07
     Final TRS4 iteration    9 1.00000000   0.172E-09
     Chemical potential (mu):      -0.04797
 
 PAO| energy:  -7.6660107480646520      penalty:   3.6652072500558286E-007
 PAO|LS| adapt:  T T F
 PAO|LS| adapt: scan_steps:    0.0000000000000000       0.20000000000000001        0.0000000000000000     
 PAO|LS| adapt: energies:   -7.5673850214201623       -7.6660107480646520        0.0000000000000000     
 PAO| ======================= Iteration:         4 =============================

     Lanczos converged:  T threshold:   0.100E-02
     Est. extremal eigenvalues:    0.290E+01   0.163E+00
     Est. condition number :    0.178E+02
     NS sqrt iter    1 1.00000000   0.727E+00       0.001       63.387
     NS sqrt iter    2 1.00000000   0.357E+00       0.001      110.592
     NS sqrt iter    3 1.00000000   0.956E-01       0.001      110.592
     NS sqrt iter    4 1.00000000   0.362E-02       0.001      110.592
     NS sqrt iter    5 1.00000000   0.380E-06       0.001       80.000
     Final NS sqrt iter    5 1.00000000   0.920E-09

     Est. extremal eigenvalues     -0.91284     1.62025  converged:  T
     TRS4 it   1 1.00000000   0.858E+00       0.000       16.128   0.100E-07
     TRS4 it   2 1.00000000   0.607E+00       0.001       32.256   0.100E-07
     TRS4 it   3 1.00000000   0.418E+00       0.001       32.256   0.100E-07
     TRS4 it   4 1.00000000   0.221E+00       0.001       32.256   0.100E-07
     TRS4 it   5 1.00000000   0.776E-01       0.001       32.256   0.100E-07
     TRS4 it   6 1.00000000   0.115E-01       0.001       32.256   0.100E-07
     TRS4 it   7 1.00000000   0.326E-03       0.001       32.256   0.100E-07
     TRS4 it   8 1.00000000   0.357E-06       0.001       32.256   0.100E-07
     TRS4 it   9 1.00000000   0.517E-12       0.001       32.256   0.100E-07
     Final TRS4 iteration    9 1.00000000   0.517E-12
     Chemical potential (mu):      -0.02201
 
 PAO| energy:  -7.7113718774252380      penalty:   5.8643258184295823E-006
 PAO|LS| Need extra step
 PAO|LS| adapt:  T T F
 PAO|LS| adapt: scan_steps:    0.0000000000000000       0.40000000000000002        0.0000000000000000     
 PAO|LS| adapt: energies:   -7.5673850214201623       -7.7113718774252380        0.0000000000000000     
 PAO| ======================= Iteration:         5 =============================

     Lanczos converged:  T threshold:   0.100E-02
     Est. extremal eigenvalues:    0.258E+01   0.189E+00
     Est. condition number :    0.136E+02
     NS sqrt iter    1 1.00000000   0.670E+00       0.001       64.512
     NS sqrt iter    2 1.00000000   0.297E+00       0.001      110.592
     NS sqrt iter    3 1.00000000   0.584E-01       0.001      110.592
     NS sqrt iter    4 1.00000000   0.100E-02       0.001      110.592
     NS sqrt iter    5 1.00000000   0.917E-08       0.001       41.344
     Final NS sqrt iter    5 1.00000000   0.629E-08

     Est. extremal eigenvalues     -0.91388     1.58025  converged:  T
     TRS4 it   1 1.00000000   0.862E+00       0.000       16.128   0.100E-07
     TRS4 it   2 1.00000000   0.578E+00       0.001       32.256   0.100E-07
     TRS4 it   3 1.00000000   0.371E+00       0.001       32.256   0.100E-07
     TRS4 it   4 1.00000000   0.166E+00       0.001       32.256   0.100E-07
     TRS4 it   5 1.00000000   0.411E-01       0.001       32.256   0.100E-07
     TRS4 it   6 1.00000000   0.300E-02       0.001       32.256   0.100E-07
     TRS4 it   7 1.00000000   0.205E-04       0.001       32.256   0.100E-07
     TRS4 it   8 1.00000000   0.137E-08       0.001       32.256   0.100E-07
     Final TRS4 iteration    8 1.00000000   0.137E-08
     Chemical potential (mu):       0.02216
 
 PAO| energy:  -7.6488213487705305      penalty:   9.3829166845772074E-005
 PAO|LS| Need extra step
 PAO|LS| adapt:  T T T
 PAO|LS| adapt: scan_steps:    0.0000000000000000       0.40000000000000002       0.80000000000000004     
 PAO|LS| adapt: energies:   -7.5673850214201623       -7.7113718774252380       -7.6488213487705305     
 PAO|LS| adapt: suggested step_size:   0.47885867973443497     
 PAO|LS| adapt: predicted energy  -7.7153856032110326     
 PAO| ======================= Iteration:         6 =============================

     Lanczos converged:  T threshold:   0.100E-02
     Est. extremal eigenvalues:    0.283E+01   0.169E+00
     Est. condition number :    0.168E+02
     NS sqrt iter    1 1.00000000   0.715E+00       0.001       64.512
     NS sqrt iter    2 1.00000000   0.344E+00       0.001      110.592
     NS sqrt iter    3 1.00000000   0.864E-01       0.001      110.592
     NS sqrt iter    4 1.00000000   0.276E-02       0.001      110.592
     NS sqrt iter    5 1.00000000   0.182E-06       0.001       75.264
     Final NS sqrt iter    5 1.00000000   0.828E-09

     Est. extremal eigenvalues     -0.91406     1.60843  converged:  T
     TRS4 it   1 1.00000000   0.858E+00       0.000       16.128   0.100E-07
     TRS4 it   2 1.00000000   0.600E+00       0.001       32.256   0.100E-07
     TRS4 it   3 1.00000000   0.407E+00       0.001       32.256   0.100E-07
     TRS4 it   4 1.00000000   0.208E+00       0.001       32.256   0.100E-07
     TRS4 it   5 1.00000000   0.678E-01       0.001       32.256   0.100E-07
     TRS4 it   6 1.00000000   0.865E-02       0.001       32.256   0.100E-07
     TRS4 it   7 1.00000000   0.179E-03       0.001       32.256   0.100E-07
     TRS4 it   8 1.00000000   0.107E-06       0.001       32.256   0.100E-07
     TRS4 it   9 1.00000000   0.460E-13       0.001       32.256   0.100E-07
     Final TRS4 iteration    9 1.00000000   0.460E-13
     Chemical potential (mu):      -0.01170
 
 PAO| energy:  -7.7146612236721976      penalty:   1.2045019593924860E-005
 PAO|CG| warming up with steepest descent
 PAO|CG| beta:    0.0000000000000000     
 PAO| norm of gradient:  0.41722236199105539     
 PAO| energy improvement: -0.14727620225203530     
 PAO| step      6                   -7.714661224  0.261E-01  0.479E+00     0.077
 PAO|LS| adapt:  T F F
 PAO|LS| adapt: scan_steps:    0.0000000000000000        0.0000000000000000        0.0000000000000000     
 PAO|LS| adapt: energies:   -7.7146612236721976        0.0000000000000000        0.0000000000000000     
 PAO| ======================= Iteration:         7 =============================

     Lanczos converged:  T threshold:   0.100E-02
     Est. extremal eigenvalues:    0.275E+01   0.184E+00
     Est. condition number :    0.149E+02
     NS sqrt iter    1 1.00000000   0.699E+00       0.001       64.512
     NS sqrt iter    2 1.00000000   0.323E+00       0.001      110.592
     NS sqrt iter    3 1.00000000   0.714E-01       0.001      110.268
     NS sqrt iter    4 1.00000000   0.161E-02       0.001      110.592
     NS sqrt iter    5 1.00000000   0.392E-07       0.001       60.672
     Final NS sqrt iter    5 1.00000000   0.508E-09

     Est. extremal eigenvalues     -0.91584     1.59788  converged:  T
     TRS4 it   1 1.00000000   0.858E+00       0.000       16.128   0.100E-07
     TRS4 it   2 1.00000000   0.598E+00       0.001       32.256   0.100E-07
     TRS4 it   3 1.00000000   0.407E+00       0.001       32.256   0.100E-07
     TRS4 it   4 1.00000000   0.209E+00       0.001       32.256   0.100E-07
     TRS4 it   5 1.00000000   0.681E-01       0.001       32.256   0.100E-07
     TRS4 it   6 1.00000000   0.861E-02       0.001       32.256   0.100E-07
     TRS4 it   7 1.00000000   0.173E-03       0.001       32.256   0.100E-07
     TRS4 it   8 1.00000000   0.986E-07       0.001       32.256   0.100E-07
     TRS4 it   9 1.00000000   0.400E-13       0.001       32.256   0.100E-07
     Final TRS4 iteration    9 1.00000000   0.400E-13
     Chemical potential (mu):      -0.01148
 
 PAO| energy:  -7.7123615663366625      penalty:   1.8159698970870319E-005
 PAO|LS| adapt:  T F T
 PAO|LS| adapt: scan_steps:    0.0000000000000000        0.0000000000000000       0.47885867973443497     
 PAO|LS| adapt: energies:   -7.7146612236721976        0.0000000000000000       -7.7123615663366625     
 PAO| ======================= Iteration:         8 =============================

     Lanczos converged:  T threshold:   0.100E-02
     Est. extremal eigenvalues:    0.279E+01   0.176E+00
     Est. condition number :    0.158E+02
     NS sqrt iter    1 1.00000000   0.707E+00       0.001       64.512
     NS sqrt iter    2 1.00000000   0.334E+00       0.001      110.592
     NS sqrt iter    3 1.00000000   0.787E-01       0.001       95.260
     NS sqrt iter    4 1.00000000   0.212E-02       0.001      110.592
     NS sqrt iter    5 1.00000000   0.863E-07       0.001       69.632
     Final NS sqrt iter    5 1.00000000   0.452E-09

     Est. extremal eigenvalues     -0.91575     1.60256  converged:  T
     TRS4 it   1 1.00000000   0.857E+00       0.000       16.128   0.100E-07
     TRS4 it   2 1.00000000   0.599E+00       0.001       32.256   0.100E-07
     TRS4 it   3 1.00000000   0.406E+00       0.001       32.256   0.100E-07
     TRS4 it   4 1.00000000   0.208E+00       0.001       32.256   0.100E-07
     TRS4 it   5 1.00000000   0.679E-01       0.001       32.256   0.100E-07
     TRS4 it   6 1.00000000   0.873E-02       0.001       32.256   0.100E-07
     TRS4 it   7 1.00000000   0.182E-03       0.001       32.256   0.100E-07
     TRS4 it   8 1.00000000   0.110E-06       0.001       32.256   0.100E-07
     TRS4 it   9 1.00000000   0.496E-13       0.001       32.256   0.100E-07
     Final TRS4 iteration    9 1.00000000   0.496E-13
     Chemical potential (mu):      -0.01216
 
 PAO| energy:  -7.7346900735182089      penalty:   1.3070219851734198E-005
 PAO|LS| adapt:  T T T
 PAO|LS| adapt: scan_steps:    0.0000000000000000       0.23942933986721748       0.47885867973443497     
 PAO|LS| adapt: energies:   -7.7146612236721976       -7.7346900735182089       -7.7123615663366625     
 PAO|LS| adapt: suggested step_size:   0.23292981444345504     
 PAO|LS| adapt: predicted energy  -7.7347056800864404     
 PAO| ======================= Iteration:         9 =============================

     Lanczos converged:  T threshold:   0.100E-02
     Est. extremal eigenvalues:    0.279E+01   0.176E+00
     Est. condition number :    0.158E+02
     NS sqrt iter    1 1.00000000   0.707E+00       0.001       64.512
     NS sqrt iter    2 1.00000000   0.334E+00       0.001      110.592
     NS sqrt iter    3 1.00000000   0.789E-01       0.001      110.592
     NS sqrt iter    4 1.00000000   0.214E-02       0.001      110.592
     NS sqrt iter    5 1.00000000   0.881E-07       0.001       69.632
     Final NS sqrt iter    5 1.00000000   0.462E-09

     Est. extremal eigenvalues     -0.91572     1.60270  converged:  T
     TRS4 it   1 1.00000000   0.857E+00       0.000       16.128   0.100E-07
     TRS4 it   2 1.00000000   0.599E+00       0.001       32.256   0.100E-07
     TRS4 it   3 1.00000000   0.406E+00       0.001       32.256   0.100E-07
     TRS4 it   4 1.00000000   0.208E+00       0.001       32.256   0.100E-07
     TRS4 it   5 1.00000000   0.679E-01       0.001       32.256   0.100E-07
     TRS4 it   6 1.00000000   0.873E-02       0.001       32.256   0.100E-07
     TRS4 it   7 1.00000000   0.182E-03       0.001       32.256   0.100E-07
     TRS4 it   8 1.00000000   0.110E-06       0.001       32.256   0.100E-07
     TRS4 it   9 1.00000000   0.497E-13       0.001       32.256   0.100E-07
     Final TRS4 iteration    9 1.00000000   0.497E-13
     Chemical potential (mu):      -0.01216
 
 PAO| energy:  -7.7347152634591163      penalty:   1.3002681437975776E-005
 PAO|CG| trace_G_new    4.1430421664267039E-002
 PAO|CG| trace_G_prev   0.17407449934539521     
 PAO|CG| trace_G_mix   -1.4593390965764808E-003
 PAO|CG| trace_D   0.17407449934539521     
 PAO|CG| trace_D_Gnew   1.4593390965764808E-003
 PAO|CG| beta:   0.24638738541331373     
 PAO| norm of gradient:  0.20354464292696833     
 PAO| energy improvement:  -2.0054039786918665E-002
 PAO| step      9                   -7.734715263  0.127E-01  0.233E+00     0.049
 PAO|LS| adapt:  T F F
 PAO|LS| adapt: scan_steps:    0.0000000000000000        0.0000000000000000        0.0000000000000000     
 PAO|LS| adapt: energies:   -7.7347152634591163        0.0000000000000000        0.0000000000000000     
 PAO| ======================= Iteration:        10 =============================

     Lanczos converged:  T threshold:   0.100E-02
     Est. extremal eigenvalues:    0.275E+01   0.182E+00
     Est. condition number :    0.151E+02
     NS sqrt iter    1 1.00000000   0.699E+00       0.001       64.512
     NS sqrt iter    2 1.00000000   0.325E+00       0.001      110.592
     NS sqrt iter    3 1.00000000   0.733E-01       0.001      110.592
     NS sqrt iter    4 1.00000000   0.173E-02       0.001      103.066
     NS sqrt iter    5 1.00000000   0.477E-07       0.001       61.952
     Final NS sqrt iter    5 1.00000000   0.306E-08

     Est. extremal eigenvalues     -0.91672     1.60498  converged:  T
     TRS4 it   1 1.00000000   0.858E+00       0.000       16.128   0.100E-07
     TRS4 it   2 1.00000000   0.599E+00       0.001       32.256   0.100E-07
     TRS4 it   3 1.00000000   0.406E+00       0.001       32.256   0.100E-07
     TRS4 it   4 1.00000000   0.206E+00       0.001       32.256   0.100E-07
     TRS4 it   5 1.00000000   0.665E-01       0.001       32.256   0.100E-07
     TRS4 it   6 1.00000000   0.833E-02       0.001       32.256   0.100E-07
     TRS4 it   7 1.00000000   0.164E-03       0.001       32.256   0.100E-07
     TRS4 it   8 1.00000000   0.890E-07       0.001       32.256   0.100E-07
     TRS4 it   9 1.00000000   0.324E-13       0.001       32.256   0.100E-07
     Final TRS4 iteration    9 1.00000000   0.324E-13
     Chemical potential (mu):      -0.00971
 
 PAO| energy:  -7.7403232644710753      penalty:   1.3678816907408813E-005
 PAO|LS| adapt:  T T F
 PAO|LS| adapt: scan_steps:    0.0000000000000000       0.23292981444345504        0.0000000000000000     
 PAO|LS| adapt: energies:   -7.7347152634591163       -7.7403232644710753        0.0000000000000000     
 PAO| ======================= Iteration:        11 =============================

     Lanczos converged:  T threshold:   0.100E-02
     Est. extremal eigenvalues:    0.271E+01   0.188E+00
     Est. condition number :    0.144E+02
     NS sqrt iter    1 1.00000000   0.691E+00       0.001       64.512
     NS sqrt iter    2 1.00000000   0.316E+00       0.001      110.592
     NS sqrt iter    3 1.00000000   0.679E-01       0.001      110.592
     NS sqrt iter    4 1.00000000   0.139E-02       0.001      110.592
     NS sqrt iter    5 1.00000000   0.249E-07       0.001       52.096
     Final NS sqrt iter    5 1.00000000   0.466E-08

     Est. extremal eigenvalues     -0.91634     1.60879  converged:  T
     TRS4 it   1 1.00000000   0.859E+00       0.000       16.128   0.100E-07
     TRS4 it   2 1.00000000   0.599E+00       0.001       32.256   0.100E-07
     TRS4 it   3 1.00000000   0.405E+00       0.001       32.256   0.100E-07
     TRS4 it   4 1.00000000   0.205E+00       0.001       32.256   0.100E-07
     TRS4 it   5 1.00000000   0.652E-01       0.001       32.256   0.100E-07
     TRS4 it   6 1.00000000   0.796E-02       0.001       32.256   0.100E-07
     TRS4 it   7 1.00000000   0.148E-03       0.001       32.256   0.100E-07
     TRS4 it   8 1.00000000   0.719E-07       0.001       32.256   0.100E-07
     Final TRS4 iteration    8 1.00000000   0.719E-07
     Chemical potential (mu):      -0.00557
 
 PAO| energy:  -7.7383298772382529      penalty:   1.5163697692964541E-005
 PAO|LS| adapt:  T T T
 PAO|LS| adapt: scan_steps:    0.0000000000000000       0.23292981444345504       0.46585962888691007     
 PAO|LS| adapt: energies:   -7.7347152634591163       -7.7403232644710753       -7.7383298772382529     
 PAO|LS| adapt: suggested step_size:   0.28831123226782934     
 PAO|LS| adapt: predicted energy  -7.7405381172116474     
 PAO| ======================= Iteration:        12 =============================

     Lanczos converged:  T threshold:   0.100E-02
     Est. extremal eigenvalues:    0.274E+01   0.183E+00
     Est. condition number :    0.150E+02
     NS sqrt iter    1 1.00000000   0.697E+00       0.001       64.512
     NS sqrt iter    2 1.00000000   0.323E+00       0.001      110.592
     NS sqrt iter    3 1.00000000   0.720E-01       0.001      110.592
     NS sqrt iter    4 1.00000000   0.164E-02       0.001      110.592
     NS sqrt iter    5 1.00000000   0.411E-07       0.001       60.800
     Final NS sqrt iter    5 1.00000000   0.495E-09

     Est. extremal eigenvalues     -0.91675     1.60576  converged:  T
     TRS4 it   1 1.00000000   0.858E+00       0.000       16.128   0.100E-07
     TRS4 it   2 1.00000000   0.599E+00       0.001       32.256   0.100E-07
     TRS4 it   3 1.00000000   0.405E+00       0.001       32.256   0.100E-07
     TRS4 it   4 1.00000000   0.206E+00       0.001       32.256   0.100E-07
     TRS4 it   5 1.00000000   0.662E-01       0.001       32.256   0.100E-07
     TRS4 it   6 1.00000000   0.824E-02       0.001       32.256   0.100E-07
     TRS4 it   7 1.00000000   0.160E-03       0.001       32.256   0.100E-07
     TRS4 it   8 1.00000000   0.846E-07       0.001       32.256   0.100E-07
     TRS4 it   9 1.00000000   0.295E-13       0.001       32.256   0.100E-07
     Final TRS4 iteration    9 1.00000000   0.295E-13
     Chemical potential (mu):      -0.00911
 
 PAO| energy:  -7.7405200224831701      penalty:   1.3949302793508728E-005
 PAO|CG| trace_G_new    1.4291270015234324E-002
 PAO|CG| trace_G_prev    4.1430421664267039E-002
 PAO|CG| trace_G_mix   -6.5210401393207764E-004
 PAO|CG| trace_D    5.1278792190259992E-002
 PAO|CG| trace_D_Gnew   2.8852302993680038E-004
 PAO|CG| beta:   0.36068602318993009     
 PAO| norm of gradient:  0.11954609995827686     
 PAO| energy improvement:  -5.8047590240537517E-003
 PAO| step     12                   -7.740520022  0.747E-02  0.288E+00     0.049
 PAO|LS| adapt:  T F F
 PAO|LS| adapt: scan_steps:    0.0000000000000000        0.0000000000000000        0.0000000000000000     
 PAO|LS| adapt: energies:   -7.7405200224831701        0.0000000000000000        0.0000000000000000     
 PAO| ======================= Iteration:        13 =============================

     Lanczos converged:  T threshold:   0.100E-02
     Est. extremal eigenvalues:    0.271E+01   0.187E+00
     Est. condition number :    0.145E+02
     NS sqrt iter    1 1.00000000   0.689E+00       0.001       64.512
     NS sqrt iter    2 1.00000000   0.315E+00       0.001      110.592
     NS sqrt iter    3 1.00000000   0.676E-01       0.001      110.592
     NS sqrt iter    4 1.00000000   0.139E-02       0.001      110.592
     NS sqrt iter    5 1.00000000   0.252E-07       0.001       52.224
     Final NS sqrt iter    5 1.00000000   0.467E-08

     Est. extremal eigenvalues     -0.91739     1.60729  converged:  T
     TRS4 it   1 1.00000000   0.861E+00       0.000       16.128   0.100E-07
     TRS4 it   2 1.00000000   0.598E+00       0.001       32.256   0.100E-07
     TRS4 it   3 1.00000000   0.403E+00       0.001       32.256   0.100E-07
     TRS4 it   4 1.00000000   0.202E+00       0.001       32.256   0.100E-07
     TRS4 it   5 1.00000000   0.634E-01       0.001       32.256   0.100E-07
     TRS4 it   6 1.00000000   0.752E-02       0.001       32.256   0.100E-07
     TRS4 it   7 1.00000000   0.132E-03       0.001       32.256   0.100E-07
     TRS4 it   8 1.00000000   0.575E-07       0.001       32.256   0.100E-07
     Final TRS4 iteration    8 1.00000000   0.575E-07
     Chemical potential (mu):      -0.00375
 
 PAO| energy:  -7.7430118866008408      penalty:   1.4436292527103730E-005
 PAO|LS| adapt:  T T F
 PAO|LS| adapt: scan_steps:    0.0000000000000000       0.28831123226782934        0.0000000000000000     
 PAO|LS| adapt: energies:   -7.7405200224831701       -7.7430118866008408        0.0000000000000000     
 PAO| ======================= Iteration:        14 =============================

     Lanczos converged:  T threshold:   0.100E-02
     Est. extremal eigenvalues:    0.267E+01   0.191E+00
     Est. condition number :    0.140E+02
     NS sqrt iter    1 1.00000000   0.682E+00       0.001       64.512
     NS sqrt iter    2 1.00000000   0.308E+00       0.001      110.592
     NS sqrt iter    3 1.00000000   0.636E-01       0.001      110.592
     NS sqrt iter    4 1.00000000   0.117E-02       0.001      110.592
     NS sqrt iter    5 1.00000000   0.151E-07       0.001       46.208
     Final NS sqrt iter    5 1.00000000   0.382E-08

     Est. extremal eigenvalues     -0.91735     1.60895  converged:  T
     TRS4 it   1 1.00000000   0.863E+00       0.000       16.128   0.100E-07
     TRS4 it   2 1.00000000   0.597E+00       0.001       32.256   0.100E-07
     TRS4 it   3 1.00000000   0.400E+00       0.001       32.256   0.100E-07
     TRS4 it   4 1.00000000   0.198E+00       0.001       32.256   0.100E-07
     TRS4 it   5 1.00000000   0.608E-01       0.001       32.256   0.100E-07
     TRS4 it   6 1.00000000   0.687E-02       0.001       32.256   0.100E-07
     TRS4 it   7 1.00000000   0.110E-03       0.001       32.256   0.100E-07
     TRS4 it   8 1.00000000   0.394E-07       0.001       32.256   0.100E-07
     Final TRS4 iteration    8 1.00000000   0.394E-07
     Chemical potential (mu):      -0.00022
 
 PAO| energy:  -7.7423690211500436      penalty:   1.5511812624841127E-005
 PAO|LS| adapt:  T T T
 PAO|LS| adapt: scan_steps:    0.0000000000000000       0.28831123226782934       0.57662246453565869     
 PAO|LS| adapt: energies:   -7.7405200224831701       -7.7430118866008408       -7.7423690211500436     
 PAO|LS| adapt: suggested step_size:   0.37334043055500254     
 PAO|LS| adapt: predicted energy  -7.7431482139935017     
 PAO| ======================= Iteration:        15 =============================

     Lanczos converged:  T threshold:   0.100E-02
     Est. extremal eigenvalues:    0.270E+01   0.188E+00
     Est. condition number :    0.143E+02
     NS sqrt iter    1 1.00000000   0.687E+00       0.001       64.512
     NS sqrt iter    2 1.00000000   0.313E+00       0.001      110.592
     NS sqrt iter    3 1.00000000   0.664E-01       0.001      110.592
     NS sqrt iter    4 1.00000000   0.132E-02       0.001      110.592
     NS sqrt iter    5 1.00000000   0.217E-07       0.001       50.176
     Final NS sqrt iter    5 1.00000000   0.501E-08

     Est. extremal eigenvalues     -0.91745     1.60777  converged:  T
     TRS4 it   1 1.00000000   0.861E+00       0.000       16.128   0.100E-07
     TRS4 it   2 1.00000000   0.598E+00       0.001       32.256   0.100E-07
     TRS4 it   3 1.00000000   0.402E+00       0.001       32.256   0.100E-07
     TRS4 it   4 1.00000000   0.201E+00       0.001       32.256   0.100E-07
     TRS4 it   5 1.00000000   0.626E-01       0.001       32.256   0.100E-07
     TRS4 it   6 1.00000000   0.732E-02       0.001       32.256   0.100E-07
     TRS4 it   7 1.00000000   0.125E-03       0.001       32.256   0.100E-07
     TRS4 it   8 1.00000000   0.514E-07       0.001       32.256   0.100E-07
     Final TRS4 iteration    8 1.00000000   0.514E-07
     Chemical potential (mu):      -0.00270
 
 PAO| energy:  -7.7431440430514078      penalty:   1.4687257887585103E-005
 PAO|CG| trace_G_new    3.1447741526548618E-003
 PAO|CG| trace_G_prev    1.4291270015234324E-002
 PAO|CG| trace_G_mix    1.0295847580176143E-004
 PAO|CG| trace_D    2.0754221645012595E-002
 PAO|CG| trace_D_Gnew   3.9999252056960998E-005
 PAO|CG| beta:   0.21284432199591505     
 PAO| norm of gradient:   5.6078285928288341E-002
 PAO| energy improvement:  -2.6240205682377393E-003
 PAO| step     15                   -7.743144043  0.350E-02  0.373E+00     0.046
 PAO|LS| adapt:  T F F
 PAO|LS| adapt: scan_steps:    0.0000000000000000        0.0000000000000000        0.0000000000000000     
 PAO|LS| adapt: energies:   -7.7431440430514078        0.0000000000000000        0.0000000000000000     
 PAO| ======================= Iteration:        16 =============================

     Lanczos converged:  T threshold:   0.100E-02
     Est. extremal eigenvalues:    0.269E+01   0.189E+00
     Est. condition number :    0.142E+02
     NS sqrt iter    1 1.00000000   0.685E+00       0.001       64.512
     NS sqrt iter    2 1.00000000   0.312E+00       0.001      110.592
     NS sqrt iter    3 1.00000000   0.657E-01       0.001      110.592
     NS sqrt iter    4 1.00000000   0.127E-02       0.001      110.592
     NS sqrt iter    5 1.00000000   0.195E-07       0.001       49.536
     Final NS sqrt iter    5 1.00000000   0.408E-08

     Est. extremal eigenvalues     -0.91748     1.60749  converged:  T
     TRS4 it   1 1.00000000   0.862E+00       0.000       16.128   0.100E-07
     TRS4 it   2 1.00000000   0.597E+00       0.001       32.256   0.100E-07
     TRS4 it   3 1.00000000   0.401E+00       0.001       32.256   0.100E-07
     TRS4 it   4 1.00000000   0.199E+00       0.001       32.256   0.100E-07
     TRS4 it   5 1.00000000   0.615E-01       0.001       32.256   0.100E-07
     TRS4 it   6 1.00000000   0.706E-02       0.001       32.256   0.100E-07
     TRS4 it   7 1.00000000   0.117E-03       0.001       32.256   0.100E-07
     TRS4 it   8 1.00000000   0.454E-07       0.001       32.256   0.100E-07
     Final TRS4 iteration    8 1.00000000   0.454E-07
     Chemical potential (mu):      -0.00176
 
 PAO| energy:  -7.7432784519106708      penalty:   1.4572364709883738E-005
 PAO|LS| adapt:  T T F
 PAO|LS| adapt: scan_steps:    0.0000000000000000       0.37334043055500254        0.0000000000000000     
 PAO|LS| adapt: energies:   -7.7431440430514078       -7.7432784519106708        0.0000000000000000     
 PAO| ======================= Iteration:        17 =============================

     Lanczos converged:  T threshold:   0.100E-02
     Est. extremal eigenvalues:    0.268E+01   0.190E+00
     Est. condition number :    0.141E+02
     NS sqrt iter    1 1.00000000   0.683E+00       0.001       64.512
     NS sqrt iter    2 1.00000000   0.310E+00       0.001      110.592
     NS sqrt iter    3 1.00000000   0.650E-01       0.001      110.592
     NS sqrt iter    4 1.00000000   0.123E-02       0.001      110.592
     NS sqrt iter    5 1.00000000   0.172E-07       0.001       46.336
     Final NS sqrt iter    5 1.00000000   0.525E-08

     Est. extremal eigenvalues     -0.91737     1.60731  converged:  T
     TRS4 it   1 1.00000000   0.862E+00       0.000       16.128   0.100E-07
     TRS4 it   2 1.00000000   0.596E+00       0.001       32.256   0.100E-07
     TRS4 it   3 1.00000000   0.399E+00       0.001       32.256   0.100E-07
     TRS4 it   4 1.00000000   0.197E+00       0.001       32.256   0.100E-07
     TRS4 it   5 1.00000000   0.603E-01       0.001       32.256   0.100E-07
     TRS4 it   6 1.00000000   0.681E-02       0.001       32.256   0.100E-07
     TRS4 it   7 1.00000000   0.110E-03       0.001       32.256   0.100E-07
     TRS4 it   8 1.00000000   0.402E-07       0.001       32.256   0.100E-07
     Final TRS4 iteration    8 1.00000000   0.402E-07
     Chemical potential (mu):      -0.00081
 
 PAO| energy:  -7.7413319722760496      penalty:   1.4608753059015977E-005
 PAO|LS| adapt:  T T T
 PAO|LS| adapt: scan_steps:    0.0000000000000000       0.37334043055500254       0.74668086111000509     
 PAO|LS| adapt: energies:   -7.7431440430514078       -7.7432784519106708       -7.7413319722760496     
 PAO|LS| adapt: suggested step_size:   0.21078504004352178     
 PAO|LS| adapt: predicted energy  -7.7434756994148355     
 PAO| ======================= Iteration:        18 =============================

     Lanczos converged:  T threshold:   0.100E-02
     Est. extremal eigenvalues:    0.269E+01   0.189E+00
     Est. condition number :    0.142E+02
     NS sqrt iter    1 1.00000000   0.686E+00       0.001       64.512
     NS sqrt iter    2 1.00000000   0.312E+00       0.001      110.592
     NS sqrt iter    3 1.00000000   0.660E-01       0.001      110.592
     NS sqrt iter    4 1.00000000   0.129E-02       0.001      110.592
     NS sqrt iter    5 1.00000000   0.204E-07       0.001       50.048
     Final NS sqrt iter    5 1.00000000   0.427E-08

     Est. extremal eigenvalues     -0.91748     1.60760  converged:  T
     TRS4 it   1 1.00000000   0.861E+00       0.000       16.128   0.100E-07
     TRS4 it   2 1.00000000   0.597E+00       0.001       32.256   0.100E-07
     TRS4 it   3 1.00000000   0.401E+00       0.001       32.256   0.100E-07
     TRS4 it   4 1.00000000   0.200E+00       0.001       32.256   0.100E-07
     TRS4 it   5 1.00000000   0.620E-01       0.001       32.256   0.100E-07
     TRS4 it   6 1.00000000   0.717E-02       0.001       32.256   0.100E-07
     TRS4 it   7 1.00000000   0.121E-03       0.001       32.256   0.100E-07
     TRS4 it   8 1.00000000   0.479E-07       0.001       32.256   0.100E-07
     Final TRS4 iteration    8 1.00000000   0.479E-07
     Chemical potential (mu):      -0.00217
 
 PAO| energy:  -7.7434750345599808      penalty:   1.4604270807546607E-005
 PAO|CG| trace_G_new    8.2180629736323485E-004
 PAO|CG| trace_G_prev    3.1447741526548618E-003
 PAO|CG| trace_G_mix    1.1073221432764969E-006
 PAO|CG| trace_D    4.0679693143988215E-003
 PAO|CG| trace_D_Gnew  -2.3202021655597731E-006
 PAO|CG| beta:   0.26097231005511567     
 PAO| norm of gradient:   2.8667164096980974E-002
 PAO| energy improvement:  -3.3099150857296422E-004
 PAO| step     18                   -7.743475035  0.179E-02  0.211E+00     0.046
 PAO|LS| adapt:  T F F
 PAO|LS| adapt: scan_steps:    0.0000000000000000        0.0000000000000000        0.0000000000000000     
 PAO|LS| adapt: energies:   -7.7434750345599808        0.0000000000000000        0.0000000000000000     
 PAO| ======================= Iteration:        19 =============================

     Lanczos converged:  T threshold:   0.100E-02
     Est. extremal eigenvalues:    0.269E+01   0.189E+00
     Est. condition number :    0.143E+02
     NS sqrt iter    1 1.00000000   0.686E+00       0.001       64.512
     NS sqrt iter    2 1.00000000   0.312E+00       0.001      110.592
     NS sqrt iter    3 1.00000000   0.662E-01       0.001      110.592
     NS sqrt iter    4 1.00000000   0.130E-02       0.001      110.592
     NS sqrt iter    5 1.00000000   0.207E-07       0.001       50.048
     Final NS sqrt iter    5 1.00000000   0.439E-08

     Est. extremal eigenvalues     -0.91748     1.60818  converged:  T
     TRS4 it   1 1.00000000   0.862E+00       0.000       16.128   0.100E-07
     TRS4 it   2 1.00000000   0.597E+00       0.001       32.256   0.100E-07
     TRS4 it   3 1.00000000   0.401E+00       0.001       32.256   0.100E-07
     TRS4 it   4 1.00000000   0.200E+00       0.001       32.256   0.100E-07
     TRS4 it   5 1.00000000   0.619E-01       0.001       32.256   0.100E-07
     TRS4 it   6 1.00000000   0.718E-02       0.001       32.256   0.100E-07
     TRS4 it   7 1.00000000   0.121E-03       0.001       32.256   0.100E-07
     TRS4 it   8 1.00000000   0.486E-07       0.001       32.256   0.100E-07
     Final TRS4 iteration    8 1.00000000   0.486E-07
     Chemical potential (mu):      -0.00228
 
 PAO| energy:  -7.7436078983343739      penalty:   1.4343836104591891E-005
 PAO|LS| adapt:  T T F
 PAO|LS| adapt: scan_steps:    0.0000000000000000       0.21078504004352178        0.0000000000000000     
 PAO|LS| adapt: energies:   -7.7434750345599808       -7.7436078983343739        0.0000000000000000     
 PAO| ======================= Iteration:        20 =============================

     Lanczos converged:  T threshold:   0.100E-02
     Est. extremal eigenvalues:    0.269E+01   0.188E+00
     Est. condition number :    0.143E+02
     NS sqrt iter    1 1.00000000   0.685E+00       0.001       64.512
     NS sqrt iter    2 1.00000000   0.313E+00       0.001      110.592
     NS sqrt iter    3 1.00000000   0.664E-01       0.001      110.592
     NS sqrt iter    4 1.00000000   0.131E-02       0.001      110.592
     NS sqrt iter    5 1.00000000   0.210E-07       0.001       50.048
     Final NS sqrt iter    5 1.00000000   0.453E-08

     Est. extremal eigenvalues     -0.91748     1.60878  converged:  T
     TRS4 it   1 1.00000000   0.862E+00       0.000       16.128   0.100E-07
     TRS4 it   2 1.00000000   0.597E+00       0.001       32.256   0.100E-07
     TRS4 it   3 1.00000000   0.401E+00       0.001       32.256   0.100E-07
     TRS4 it   4 1.00000000   0.200E+00       0.001       32.256   0.100E-07
     TRS4 it   5 1.00000000   0.619E-01       0.001       32.256   0.100E-07
     TRS4 it   6 1.00000000   0.718E-02       0.001       32.256   0.100E-07
     TRS4 it   7 1.00000000   0.122E-03       0.001       32.256   0.100E-07
     TRS4 it   8 1.00000000   0.494E-07       0.001       32.256   0.100E-07
     Final TRS4 iteration    8 1.00000000   0.494E-07
     Chemical potential (mu):      -0.00239
 
 PAO| energy:  -7.7436592690438850      penalty:   1.4095692414216807E-005
 PAO|LS| adapt:  T T F
 PAO|LS| adapt: scan_steps:    0.0000000000000000       0.42157008008704355        0.0000000000000000     
 PAO|LS| adapt: energies:   -7.7434750345599808       -7.7436592690438850        0.0000000000000000     
 PAO| ======================= Iteration:        21 =============================

     Lanczos converged:  T threshold:   0.100E-02
     Est. extremal eigenvalues:    0.269E+01   0.188E+00
     Est. condition number :    0.143E+02
     NS sqrt iter    1 1.00000000   0.685E+00       0.001       64.512
     NS sqrt iter    2 1.00000000   0.313E+00       0.001      110.592
     NS sqrt iter    3 1.00000000   0.668E-01       0.001      110.592
     NS sqrt iter    4 1.00000000   0.133E-02       0.001      110.592
     NS sqrt iter    5 1.00000000   0.217E-07       0.001       50.176
     Final NS sqrt iter    5 1.00000000   0.486E-08

     Est. extremal eigenvalues     -0.91748     1.60998  converged:  T
     TRS4 it   1 1.00000000   0.862E+00       0.000       16.128   0.100E-07
     TRS4 it   2 1.00000000   0.598E+00       0.001       32.256   0.100E-07
     TRS4 it   3 1.00000000   0.401E+00       0.001       32.256   0.100E-07
     TRS4 it   4 1.00000000   0.200E+00       0.001       32.256   0.100E-07
     TRS4 it   5 1.00000000   0.618E-01       0.001       32.256   0.100E-07
     TRS4 it   6 1.00000000   0.720E-02       0.001       32.256   0.100E-07
     TRS4 it   7 1.00000000   0.124E-03       0.001       32.256   0.100E-07
     TRS4 it   8 1.00000000   0.509E-07       0.001       32.256   0.100E-07
     Final TRS4 iteration    8 1.00000000   0.509E-07
     Chemical potential (mu):      -0.00264
 
 PAO| energy:  -7.7435144075207765      penalty:   1.3635913349855427E-005
 PAO|LS| Need extra step
 PAO|LS| adapt:  T T T
 PAO|LS| adapt: scan_steps:    0.0000000000000000       0.42157008008704355       0.84314016017408711     
 PAO|LS| adapt: energies:   -7.7434750345599808       -7.7436592690438850       -7.7435144075207765     
 PAO|LS| adapt: suggested step_size:   0.44678834752603813     
 PAO|LS| adapt: predicted energy  -7.7436598578652340     
 PAO| ======================= Iteration:        22 =============================

     Lanczos converged:  T threshold:   0.100E-02
     Est. extremal eigenvalues:    0.269E+01   0.188E+00
     Est. condition number :    0.143E+02
     NS sqrt iter    1 1.00000000   0.685E+00       0.001       64.512
     NS sqrt iter    2 1.00000000   0.313E+00       0.001      110.592
     NS sqrt iter    3 1.00000000   0.664E-01       0.001      110.592
     NS sqrt iter    4 1.00000000   0.131E-02       0.001      110.592
     NS sqrt iter    5 1.00000000   0.211E-07       0.001       50.048
     Final NS sqrt iter    5 1.00000000   0.454E-08

     Est. extremal eigenvalues     -0.91748     1.60885  converged:  T
     TRS4 it   1 1.00000000   0.862E+00       0.000       16.128   0.100E-07
     TRS4 it   2 1.00000000   0.597E+00       0.001       32.256   0.100E-07
     TRS4 it   3 1.00000000   0.401E+00       0.001       32.256   0.100E-07
     TRS4 it   4 1.00000000   0.200E+00       0.001       32.256   0.100E-07
     TRS4 it   5 1.00000000   0.619E-01       0.001       32.256   0.100E-07
     TRS4 it   6 1.00000000   0.718E-02       0.001       32.256   0.100E-07
     TRS4 it   7 1.00000000   0.122E-03       0.001       32.256   0.100E-07
     TRS4 it   8 1.00000000   0.495E-07       0.001       32.256   0.100E-07
     Final TRS4 iteration    8 1.00000000   0.495E-07
     Chemical potential (mu):      -0.00240
 
 PAO| energy:  -7.7436599199421341      penalty:   1.4066821422882639E-005
 PAO|CG| trace_G_new    2.3490906080461099E-004
 PAO|CG| trace_G_prev    8.2180629736323485E-004
 PAO|CG| trace_G_mix    4.5752912721236708E-006
 PAO|CG| trace_D    1.1000726561426575E-003
 PAO|CG| trace_D_Gnew  -2.4497563992600677E-006
 PAO|CG| beta:   0.28027744527087844     
 PAO| norm of gradient:   1.5326743320242921E-002
 PAO| energy improvement:  -1.8488538215333250E-004
 PAO| step     22                   -7.743659920  0.958E-03  0.447E+00     0.060
 PAO|LS| adapt:  T F F
 PAO|LS| adapt: scan_steps:    0.0000000000000000        0.0000000000000000        0.0000000000000000     
 PAO|LS| adapt: energies:   -7.7436599199421341        0.0000000000000000        0.0000000000000000     
 PAO| ======================= Iteration:        23 =============================

     Lanczos converged:  T threshold:   0.100E-02
     Est. extremal eigenvalues:    0.269E+01   0.188E+00
     Est. condition number :    0.143E+02
     NS sqrt iter    1 1.00000000   0.685E+00       0.001       64.512
     NS sqrt iter    2 1.00000000   0.313E+00       0.001      110.592
     NS sqrt iter    3 1.00000000   0.664E-01       0.001      110.592
     NS sqrt iter    4 1.00000000   0.131E-02       0.001      110.592
     NS sqrt iter    5 1.00000000   0.209E-07       0.001       50.048
     Final NS sqrt iter    5 1.00000000   0.457E-08

     Est. extremal eigenvalues     -0.91748     1.60876  converged:  T
     TRS4 it   1 1.00000000   0.862E+00       0.000       16.128   0.100E-07
     TRS4 it   2 1.00000000   0.597E+00       0.001       32.256   0.100E-07
     TRS4 it   3 1.00000000   0.401E+00       0.001       32.256   0.100E-07
     TRS4 it   4 1.00000000   0.200E+00       0.001       32.256   0.100E-07
     TRS4 it   5 1.00000000   0.621E-01       0.001       32.256   0.100E-07
     TRS4 it   6 1.00000000   0.723E-02       0.001       32.256   0.100E-07
     TRS4 it   7 1.00000000   0.124E-03       0.001       32.256   0.100E-07
     TRS4 it   8 1.00000000   0.509E-07       0.001       32.256   0.100E-07
     Final TRS4 iteration    8 1.00000000   0.509E-07
     Chemical potential (mu):      -0.00268
 
 PAO| energy:  -7.7436964017713068      penalty:   1.3424618948256694E-005
 PAO|LS| adapt:  T T F
 PAO|LS| adapt: scan_steps:    0.0000000000000000       0.44678834752603813        0.0000000000000000     
 PAO|LS| adapt: energies:   -7.7436599199421341       -7.7436964017713068        0.0000000000000000     
 PAO| ======================= Iteration:        24 =============================

     Lanczos converged:  T threshold:   0.100E-02
     Est. extremal eigenvalues:    0.269E+01   0.189E+00
     Est. condition number :    0.143E+02
     NS sqrt iter    1 1.00000000   0.685E+00       0.001       64.512
     NS sqrt iter    2 1.00000000   0.313E+00       0.001      110.592
     NS sqrt iter    3 1.00000000   0.664E-01       0.001      110.592
     NS sqrt iter    4 1.00000000   0.131E-02       0.001      110.592
     NS sqrt iter    5 1.00000000   0.207E-07       0.001       50.048
     Final NS sqrt iter    5 1.00000000   0.460E-08

     Est. extremal eigenvalues     -0.91747     1.60867  converged:  T
     TRS4 it   1 1.00000000   0.862E+00       0.000       16.128   0.100E-07
     TRS4 it   2 1.00000000   0.598E+00       0.001       32.256   0.100E-07
     TRS4 it   3 1.00000000   0.402E+00       0.001       32.256   0.100E-07
     TRS4 it   4 1.00000000   0.200E+00       0.001       32.256   0.100E-07
     TRS4 it   5 1.00000000   0.622E-01       0.001       32.256   0.100E-07
     TRS4 it   6 1.00000000   0.727E-02       0.001       32.256   0.100E-07
     TRS4 it   7 1.00000000   0.126E-03       0.001       32.256   0.100E-07
     TRS4 it   8 1.00000000   0.525E-07       0.001       32.256   0.100E-07
     Final TRS4 iteration    8 1.00000000   0.525E-07
     Chemical potential (mu):      -0.00296
 
 PAO| energy:  -7.7435946639651192      penalty:   1.2808432951798167E-005
 PAO|LS| adapt:  T T T
 PAO|LS| adapt: scan_steps:    0.0000000000000000       0.44678834752603813       0.89357669505207626     
 PAO|LS| adapt: energies:   -7.7436599199421341       -7.7436964017713068       -7.7435946639651192     
 PAO|LS| adapt: suggested step_size:   0.34131993827766882     
 PAO|LS| adapt: predicted energy  -7.7437002528364278     
 PAO| ======================= Iteration:        25 =============================

     Lanczos converged:  T threshold:   0.100E-02
     Est. extremal eigenvalues:    0.269E+01   0.188E+00
     Est. condition number :    0.143E+02
     NS sqrt iter    1 1.00000000   0.685E+00       0.001       64.512
     NS sqrt iter    2 1.00000000   0.313E+00       0.001      110.592
     NS sqrt iter    3 1.00000000   0.664E-01       0.001      110.592
     NS sqrt iter    4 1.00000000   0.131E-02       0.001      110.592
     NS sqrt iter    5 1.00000000   0.209E-07       0.001       50.048
     Final NS sqrt iter    5 1.00000000   0.456E-08

     Est. extremal eigenvalues     -0.91748     1.60878  converged:  T
     TRS4 it   1 1.00000000   0.862E+00       0.000       16.128   0.100E-07
     TRS4 it   2 1.00000000   0.597E+00       0.001       32.256   0.100E-07
     TRS4 it   3 1.00000000   0.401E+00       0.001       32.256   0.100E-07
     TRS4 it   4 1.00000000   0.200E+00       0.001       32.256   0.100E-07
     TRS4 it   5 1.00000000   0.620E-01       0.001       32.256   0.100E-07
     TRS4 it   6 1.00000000   0.722E-02       0.001       32.256   0.100E-07
     TRS4 it   7 1.00000000   0.124E-03       0.001       32.256   0.100E-07
     TRS4 it   8 1.00000000   0.506E-07       0.001       32.256   0.100E-07
     Final TRS4 iteration    8 1.00000000   0.506E-07
     Chemical potential (mu):      -0.00262
 
 PAO| energy:  -7.7437002158279027      penalty:   1.3573852144046156E-005
 PAO|CG| trace_G_new    7.3572476389532714E-005
 PAO|CG| trace_G_prev    2.3490906080461099E-004
 PAO|CG| trace_G_mix    2.3505849516790817E-007
 PAO|CG| trace_D    3.2269898223089444E-004
 PAO|CG| trace_D_Gnew  -3.1468692242851092E-007
 PAO|CG| beta:   0.31219493042613738     
 PAO| norm of gradient:   8.5774399671191357E-003
 PAO| energy improvement:  -4.0295885768593109E-005
 PAO| step     25                   -7.743700216  0.536E-03  0.341E+00     0.046
 PAO|LS| adapt:  T F F
 PAO|LS| adapt: scan_steps:    0.0000000000000000        0.0000000000000000        0.0000000000000000     
 PAO|LS| adapt: energies:   -7.7437002158279027        0.0000000000000000        0.0000000000000000     
 PAO| ======================= Iteration:        26 =============================

     Lanczos converged:  T threshold:   0.100E-02
     Est. extremal eigenvalues:    0.269E+01   0.189E+00
     Est. condition number :    0.143E+02
     NS sqrt iter    1 1.00000000   0.685E+00       0.001       64.512
     NS sqrt iter    2 1.00000000   0.313E+00       0.001      110.592
     NS sqrt iter    3 1.00000000   0.663E-01       0.001      110.592
     NS sqrt iter    4 1.00000000   0.130E-02       0.001      110.592
     NS sqrt iter    5 1.00000000   0.207E-07       0.001       50.048
     Final NS sqrt iter    5 1.00000000   0.452E-08

     Est. extremal eigenvalues     -0.91748     1.60867  converged:  T
     TRS4 it   1 1.00000000   0.862E+00       0.000       16.128   0.100E-07
     TRS4 it   2 1.00000000   0.597E+00       0.001       32.256   0.100E-07
     TRS4 it   3 1.00000000   0.401E+00       0.001       32.256   0.100E-07
     TRS4 it   4 1.00000000   0.200E+00       0.001       32.256   0.100E-07
     TRS4 it   5 1.00000000   0.620E-01       0.001       32.256   0.100E-07
     TRS4 it   6 1.00000000   0.722E-02       0.001       32.256   0.100E-07
     TRS4 it   7 1.00000000   0.124E-03       0.001       32.256   0.100E-07
     TRS4 it   8 1.00000000   0.507E-07       0.001       32.256   0.100E-07
     Final TRS4 iteration    8 1.00000000   0.507E-07
     Chemical potential (mu):      -0.00265
 
 PAO| energy:  -7.7437072899678832      penalty:   1.3050857832079353E-005
 PAO|LS| adapt:  T T F
 PAO|LS| adapt: scan_steps:    0.0000000000000000       0.34131993827766882        0.0000000000000000     
 PAO|LS| adapt: energies:   -7.7437002158279027       -7.7437072899678832        0.0000000000000000     
 PAO| ======================= Iteration:        27 =============================

     Lanczos converged:  T threshold:   0.100E-02
     Est. extremal eigenvalues:    0.269E+01   0.189E+00
     Est. condition number :    0.143E+02
     NS sqrt iter    1 1.00000000   0.685E+00       0.001       64.512
     NS sqrt iter    2 1.00000000   0.312E+00       0.001      110.592
     NS sqrt iter    3 1.00000000   0.663E-01       0.001      110.592
     NS sqrt iter    4 1.00000000   0.130E-02       0.001      110.592
     NS sqrt iter    5 1.00000000   0.206E-07       0.001       49.920
     Final NS sqrt iter    5 1.00000000   0.447E-08

     Est. extremal eigenvalues     -0.91748     1.60856  converged:  T
     TRS4 it   1 1.00000000   0.862E+00       0.000       16.128   0.100E-07
     TRS4 it   2 1.00000000   0.598E+00       0.001       32.256   0.100E-07
     TRS4 it   3 1.00000000   0.401E+00       0.001       32.256   0.100E-07
     TRS4 it   4 1.00000000   0.200E+00       0.001       32.256   0.100E-07
     TRS4 it   5 1.00000000   0.621E-01       0.001       32.256   0.100E-07
     TRS4 it   6 1.00000000   0.723E-02       0.001       32.256   0.100E-07
     TRS4 it   7 1.00000000   0.124E-03       0.001       32.256   0.100E-07
     TRS4 it   8 1.00000000   0.508E-07       0.001       32.256   0.100E-07
     Final TRS4 iteration    8 1.00000000   0.508E-07
     Chemical potential (mu):      -0.00268
 
 PAO| energy:  -7.7436781685801837      penalty:   1.2540076100240267E-005
 PAO|LS| adapt:  T T T
 PAO|LS| adapt: scan_steps:    0.0000000000000000       0.34131993827766882       0.68263987655533764     
 PAO|LS| adapt: energies:   -7.7437002158279027       -7.7437072899678832       -7.7436781685801837     
 PAO|LS| adapt: suggested step_size:   0.23736834932462145     
 PAO|LS| adapt: predicted energy  -7.7437089686322187     
 PAO| ======================= Iteration:        28 =============================

     Lanczos converged:  T threshold:   0.100E-02
     Est. extremal eigenvalues:    0.269E+01   0.188E+00
     Est. condition number :    0.143E+02
     NS sqrt iter    1 1.00000000   0.685E+00       0.001       64.512
     NS sqrt iter    2 1.00000000   0.313E+00       0.001      110.592
     NS sqrt iter    3 1.00000000   0.664E-01       0.001      110.592
     NS sqrt iter    4 1.00000000   0.130E-02       0.001      110.592
     NS sqrt iter    5 1.00000000   0.208E-07       0.001       50.048
     Final NS sqrt iter    5 1.00000000   0.453E-08

     Est. extremal eigenvalues     -0.91748     1.60870  converged:  T
     TRS4 it   1 1.00000000   0.862E+00       0.000       16.128   0.100E-07
     TRS4 it   2 1.00000000   0.597E+00       0.001       32.256   0.100E-07
     TRS4 it   3 1.00000000   0.401E+00       0.001       32.256   0.100E-07
     TRS4 it   4 1.00000000   0.200E+00       0.001       32.256   0.100E-07
     TRS4 it   5 1.00000000   0.620E-01       0.001       32.256   0.100E-07
     TRS4 it   6 1.00000000   0.722E-02       0.001       32.256   0.100E-07
     TRS4 it   7 1.00000000   0.124E-03       0.001       32.256   0.100E-07
     TRS4 it   8 1.00000000   0.507E-07       0.001       32.256   0.100E-07
     Final TRS4 iteration    8 1.00000000   0.507E-07
     Chemical potential (mu):      -0.00264
 
 PAO| energy:  -7.7437089649645046      penalty:   1.3208841613679601E-005
 PAO|CG| trace_G_new    1.3969808639370852E-005
 PAO|CG| trace_G_prev    7.3572476389532714E-005
 PAO|CG| trace_G_mix    5.4650440795733969E-008
 PAO|CG| trace_D    1.0522103770387351E-004
 PAO|CG| trace_D_Gnew  -2.9104109692482726E-008
 PAO|CG| beta:   0.18913537890040155     
 PAO| norm of gradient:   3.7376207190364902E-003
 PAO| energy improvement:  -8.7491366018710437E-006
 PAO| step     28                   -7.743708965  0.234E-03  0.237E+00     0.046
 PAO|LS| adapt:  T F F
 PAO|LS| adapt: scan_steps:    0.0000000000000000        0.0000000000000000        0.0000000000000000     
 PAO|LS| adapt: energies:   -7.7437089649645046        0.0000000000000000        0.0000000000000000     
 PAO| ======================= Iteration:        29 =============================

     Lanczos converged:  T threshold:   0.100E-02
     Est. extremal eigenvalues:    0.269E+01   0.189E+00
     Est. condition number :    0.143E+02
     NS sqrt iter    1 1.00000000   0.685E+00       0.001       64.512
     NS sqrt iter    2 1.00000000   0.313E+00       0.001      110.592
     NS sqrt iter    3 1.00000000   0.663E-01       0.001      110.592
     NS sqrt iter    4 1.00000000   0.130E-02       0.001      110.592
     NS sqrt iter    5 1.00000000   0.207E-07       0.001       50.048
     Final NS sqrt iter    5 1.00000000   0.450E-08

     Est. extremal eigenvalues     -0.91748     1.60861  converged:  T
     TRS4 it   1 1.00000000   0.862E+00       0.000       16.128   0.100E-07
     TRS4 it   2 1.00000000   0.597E+00       0.001       32.256   0.100E-07
     TRS4 it   3 1.00000000   0.401E+00       0.001       32.256   0.100E-07
     TRS4 it   4 1.00000000   0.200E+00       0.001       32.256   0.100E-07
     TRS4 it   5 1.00000000   0.620E-01       0.001       32.256   0.100E-07
     TRS4 it   6 1.00000000   0.721E-02       0.001       32.256   0.100E-07
     TRS4 it   7 1.00000000   0.123E-03       0.001       32.256   0.100E-07
     TRS4 it   8 1.00000000   0.504E-07       0.001       32.256   0.100E-07
     Final TRS4 iteration    8 1.00000000   0.504E-07
     Chemical potential (mu):      -0.00261
 
 PAO| energy:  -7.7437117259421111      penalty:   1.2886966253139200E-005
 PAO|LS| adapt:  T T F
 PAO|LS| adapt: scan_steps:    0.0000000000000000       0.23736834932462145        0.0000000000000000     
 PAO|LS| adapt: energies:   -7.7437089649645046       -7.7437117259421111        0.0000000000000000     
 PAO| ======================= Iteration:        30 =============================

     Lanczos converged:  T threshold:   0.100E-02
     Est. extremal eigenvalues:    0.269E+01   0.189E+00
     Est. condition number :    0.143E+02
     NS sqrt iter    1 1.00000000   0.685E+00       0.001       64.512
     NS sqrt iter    2 1.00000000   0.312E+00       0.001      110.592
     NS sqrt iter    3 1.00000000   0.663E-01       0.001      110.592
     NS sqrt iter    4 1.00000000   0.130E-02       0.001      110.592
     NS sqrt iter    5 1.00000000   0.207E-07       0.001       50.048
     Final NS sqrt iter    5 1.00000000   0.447E-08

     Est. extremal eigenvalues     -0.91748     1.60852  converged:  T
     TRS4 it   1 1.00000000   0.862E+00       0.000       16.128   0.100E-07
     TRS4 it   2 1.00000000   0.597E+00       0.001       32.256   0.100E-07
     TRS4 it   3 1.00000000   0.401E+00       0.001       32.256   0.100E-07
     TRS4 it   4 1.00000000   0.200E+00       0.001       32.256   0.100E-07
     TRS4 it   5 1.00000000   0.620E-01       0.001       32.256   0.100E-07
     TRS4 it   6 1.00000000   0.720E-02       0.001       32.256   0.100E-07
     TRS4 it   7 1.00000000   0.123E-03       0.001       32.256   0.100E-07
     TRS4 it   8 1.00000000   0.502E-07       0.001       32.256   0.100E-07
     Final TRS4 iteration    8 1.00000000   0.502E-07
     Chemical potential (mu):      -0.00258
 
 PAO| energy:  -7.7437133733682355      penalty:   1.2569272008792421E-005
 PAO|LS| adapt:  T T F
 PAO|LS| adapt: scan_steps:    0.0000000000000000       0.47473669864924289        0.0000000000000000     
 PAO|LS| adapt: energies:   -7.7437089649645046       -7.7437133733682355        0.0000000000000000     
 PAO| ======================= Iteration:        31 =============================

     Lanczos converged:  T threshold:   0.100E-02
     Est. extremal eigenvalues:    0.269E+01   0.189E+00
     Est. condition number :    0.143E+02
     NS sqrt iter    1 1.00000000   0.685E+00       0.001       64.512
     NS sqrt iter    2 1.00000000   0.312E+00       0.001      110.592
     NS sqrt iter    3 1.00000000   0.662E-01       0.001      110.592
     NS sqrt iter    4 1.00000000   0.130E-02       0.001      110.592
     NS sqrt iter    5 1.00000000   0.205E-07       0.001       50.048
     Final NS sqrt iter    5 1.00000000   0.442E-08

     Est. extremal eigenvalues     -0.91749     1.60834  converged:  T
     TRS4 it   1 1.00000000   0.862E+00       0.000       16.128   0.100E-07
     TRS4 it   2 1.00000000   0.597E+00       0.001       32.256   0.100E-07
     TRS4 it   3 1.00000000   0.401E+00       0.001       32.256   0.100E-07
     TRS4 it   4 1.00000000   0.200E+00       0.001       32.256   0.100E-07
     TRS4 it   5 1.00000000   0.619E-01       0.001       32.256   0.100E-07
     TRS4 it   6 1.00000000   0.718E-02       0.001       32.256   0.100E-07
     TRS4 it   7 1.00000000   0.122E-03       0.001       32.256   0.100E-07
     TRS4 it   8 1.00000000   0.497E-07       0.001       32.256   0.100E-07
     Final TRS4 iteration    8 1.00000000   0.497E-07
     Chemical potential (mu):      -0.00252
 
 PAO| energy:  -7.7437133257898676      penalty:   1.1946395259519907E-005
 PAO|LS| Need extra step
 PAO|LS| adapt:  T T T
 PAO|LS| adapt: scan_steps:    0.0000000000000000       0.47473669864924289       0.94947339729848579     
 PAO|LS| adapt: energies:   -7.7437089649645046       -7.7437133733682355       -7.7437133257898676     
 PAO|LS| adapt: suggested step_size:   0.70703608745997437     
 PAO|LS| adapt: predicted energy  -7.7437139068308207     
 PAO| ======================= Iteration:        32 =============================

     Lanczos converged:  T threshold:   0.100E-02
     Est. extremal eigenvalues:    0.269E+01   0.189E+00
     Est. condition number :    0.143E+02
     NS sqrt iter    1 1.00000000   0.685E+00       0.001       64.512
     NS sqrt iter    2 1.00000000   0.312E+00       0.001      110.592
     NS sqrt iter    3 1.00000000   0.662E-01       0.001      110.592
     NS sqrt iter    4 1.00000000   0.130E-02       0.001      110.592
     NS sqrt iter    5 1.00000000   0.206E-07       0.001       50.048
     Final NS sqrt iter    5 1.00000000   0.445E-08

     Est. extremal eigenvalues     -0.91748     1.60843  converged:  T
     TRS4 it   1 1.00000000   0.862E+00       0.000       16.128   0.100E-07
     TRS4 it   2 1.00000000   0.597E+00       0.001       32.256   0.100E-07
     TRS4 it   3 1.00000000   0.401E+00       0.001       32.256   0.100E-07
     TRS4 it   4 1.00000000   0.200E+00       0.001       31.812   0.100E-07
     TRS4 it   5 1.00000000   0.619E-01       0.001       32.256   0.100E-07
     TRS4 it   6 1.00000000   0.719E-02       0.001       32.256   0.100E-07
     TRS4 it   7 1.00000000   0.123E-03       0.001       32.256   0.100E-07
     TRS4 it   8 1.00000000   0.499E-07       0.001       32.256   0.100E-07
     Final TRS4 iteration    8 1.00000000   0.499E-07
     Chemical potential (mu):      -0.00255
 
 PAO| energy:  -7.7437139070511032      penalty:   1.2262402610901407E-005
 PAO|CG| trace_G_new    3.5601292590273299E-005
 PAO|CG| trace_G_prev    1.3969808639370852E-005
 PAO|CG| trace_G_mix    9.1541312432706178E-009
 PAO|CG| trace_D    1.7744804989021308E-005
 PAO|CG| trace_D_Gnew   1.1205531606116283E-009
 PAO|CG| beta:    2.5477899789350991     
 PAO| norm of gradient:   5.9666818743983070E-003
 PAO| energy improvement:  -4.9420865986249396E-006
 PAO| step     32                   -7.743713907  0.373E-03  0.707E+00     0.060
 PAO|LS| adapt:  T F F
 PAO|LS| adapt: scan_steps:    0.0000000000000000        0.0000000000000000        0.0000000000000000     
 PAO|LS| adapt: energies:   -7.7437139070511032        0.0000000000000000        0.0000000000000000     
 PAO| ======================= Iteration:        33 =============================

     Lanczos converged:  T threshold:   0.100E-02
     Est. extremal eigenvalues:    0.269E+01   0.189E+00
     Est. condition number :    0.142E+02
     NS sqrt iter    1 1.00000000   0.684E+00       0.001       64.512
     NS sqrt iter    2 1.00000000   0.312E+00       0.001      110.592
     NS sqrt iter    3 1.00000000   0.659E-01       0.001      110.592
     NS sqrt iter    4 1.00000000   0.129E-02       0.001      110.592
     NS sqrt iter    5 1.00000000   0.202E-07       0.001       49.920
     Final NS sqrt iter    5 1.00000000   0.426E-08

     Est. extremal eigenvalues     -0.91750     1.60761  converged:  T
     TRS4 it   1 1.00000000   0.862E+00       0.000       16.128   0.100E-07
     TRS4 it   2 1.00000000   0.597E+00       0.001       32.256   0.100E-07
     TRS4 it   3 1.00000000   0.401E+00       0.001       32.256   0.100E-07
     TRS4 it   4 1.00000000   0.199E+00       0.001       32.256   0.100E-07
     TRS4 it   5 1.00000000   0.616E-01       0.001       32.256   0.100E-07
     TRS4 it   6 1.00000000   0.712E-02       0.001       32.256   0.100E-07
     TRS4 it   7 1.00000000   0.121E-03       0.001       32.256   0.100E-07
     TRS4 it   8 1.00000000   0.484E-07       0.001       32.256   0.100E-07
     Final TRS4 iteration    8 1.00000000   0.484E-07
     Chemical potential (mu):      -0.00241
 
 PAO| energy:  -7.7437252983467912      penalty:   9.3903796999910718E-006
 PAO|LS| adapt:  T T F
 PAO|LS| adapt: scan_steps:    0.0000000000000000       0.70703608745997437        0.0000000000000000     
 PAO|LS| adapt: energies:   -7.7437139070511032       -7.7437252983467912        0.0000000000000000     
 PAO| ======================= Iteration:        34 =============================

     Lanczos converged:  T threshold:   0.100E-02
     Est. extremal eigenvalues:    0.268E+01   0.189E+00
     Est. condition number :    0.142E+02
     NS sqrt iter    1 1.00000000   0.683E+00       0.001       64.512
     NS sqrt iter    2 1.00000000   0.311E+00       0.001      110.592
     NS sqrt iter    3 1.00000000   0.656E-01       0.001      110.592
     NS sqrt iter    4 1.00000000   0.128E-02       0.001      110.592
     NS sqrt iter    5 1.00000000   0.199E-07       0.001       49.664
     Final NS sqrt iter    5 1.00000000   0.411E-08

     Est. extremal eigenvalues     -0.91750     1.60677  converged:  T
     TRS4 it   1 1.00000000   0.862E+00       0.000       16.128   0.100E-07
     TRS4 it   2 1.00000000   0.597E+00       0.001       32.256   0.100E-07
     TRS4 it   3 1.00000000   0.400E+00       0.001       32.256   0.100E-07
     TRS4 it   4 1.00000000   0.199E+00       0.001       32.256   0.100E-07
     TRS4 it   5 1.00000000   0.612E-01       0.001       32.256   0.100E-07
     TRS4 it   6 1.00000000   0.705E-02       0.001       32.256   0.100E-07
[...]
 PAO|LS| adapt: scan_steps:    0.0000000000000000       0.20000000000000001        0.0000000000000000     
 PAO|LS| adapt: energies:   -7.7430479612497756       -7.7430479612599363        0.0000000000000000     
 PAO| ======================= Iteration:       938 =============================

     Lanczos converged:  T threshold:   0.100E-02
     Est. extremal eigenvalues:    0.246E+01   0.227E+00
     Est. condition number :    0.108E+02
     NS sqrt iter    1 1.00000000   0.621E+00       0.001       64.512
     NS sqrt iter    2 1.00000000   0.259E+00       0.001      107.386
     NS sqrt iter    3 1.00000000   0.398E-01       0.001      110.592
     NS sqrt iter    4 1.00000000   0.293E-03       0.001      109.312
     NS sqrt iter    5 1.00000000   0.201E-09       0.001       36.864
     Final NS sqrt iter    5 1.00000000   0.609E-10

     Est. extremal eigenvalues     -0.91721     1.46327  converged:  T
     TRS4 it   1 1.00000000   0.841E+00       0.000       16.128   0.100E-07
     TRS4 it   2 1.00000000   0.599E+00       0.001       32.256   0.100E-07
     TRS4 it   3 1.00000000   0.431E+00       0.001       32.256   0.100E-07
     TRS4 it   4 1.00000000   0.263E+00       0.001       32.256   0.100E-07
     TRS4 it   5 1.00000000   0.122E+00       0.001       32.256   0.100E-07
     TRS4 it   6 1.00000000   0.324E-01       0.001       32.256   0.100E-07
     TRS4 it   7 1.00000000   0.301E-02       0.001       32.256   0.100E-07
     TRS4 it   8 1.00000000   0.320E-04       0.001       32.256   0.100E-07
     TRS4 it   9 1.00000000   0.403E-08       0.001       32.256   0.100E-07
     Final TRS4 iteration    9 1.00000000   0.403E-08
     Chemical potential (mu):      -0.08088
 
 PAO| energy:  -7.7430479612567247      penalty:   2.3065703811474923E-011
 PAO|LS| Need extra step
 PAO|LS| adapt:  T T T
 PAO|LS| adapt: scan_steps:    0.0000000000000000       0.20000000000000001       0.40000000000000002     
 PAO|LS| adapt: energies:   -7.7430479612497756       -7.7430479612599363       -7.7430479612567247     
 PAO|LS| adapt: suggested step_size:   0.25196599362380456     
 PAO|LS| adapt: predicted energy  -7.7430479612603875     
 PAO| ======================= Iteration:       939 =============================

     Lanczos converged:  T threshold:   0.100E-02
     Est. extremal eigenvalues:    0.246E+01   0.227E+00
     Est. condition number :    0.108E+02
     NS sqrt iter    1 1.00000000   0.621E+00       0.001       64.512
     NS sqrt iter    2 1.00000000   0.259E+00       0.001      110.592
     NS sqrt iter    3 1.00000000   0.398E-01       0.001      110.592
     NS sqrt iter    4 1.00000000   0.293E-03       0.001      109.312
     NS sqrt iter    5 1.00000000   0.201E-09       0.001       36.864
     Final NS sqrt iter    5 1.00000000   0.609E-10

     Est. extremal eigenvalues     -0.91721     1.46327  converged:  T
     TRS4 it   1 1.00000000   0.841E+00       0.000       16.128   0.100E-07
     TRS4 it   2 1.00000000   0.599E+00       0.001       32.256   0.100E-07
     TRS4 it   3 1.00000000   0.431E+00       0.001       32.256   0.100E-07
     TRS4 it   4 1.00000000   0.263E+00       0.001       32.256   0.100E-07
     TRS4 it   5 1.00000000   0.122E+00       0.001       32.256   0.100E-07
     TRS4 it   6 1.00000000   0.324E-01       0.001       32.256   0.100E-07
     TRS4 it   7 1.00000000   0.301E-02       0.001       32.256   0.100E-07
     TRS4 it   8 1.00000000   0.320E-04       0.001       32.256   0.100E-07
     TRS4 it   9 1.00000000   0.403E-08       0.001       32.256   0.100E-07
     Final TRS4 iteration    9 1.00000000   0.403E-08
     Chemical potential (mu):      -0.08088
 
 PAO| energy:  -7.7430479612603893      penalty:   2.3267886919528900E-011
 PAO|CG| warming up with steepest descent
 PAO|CG| beta:    0.0000000000000000     
 PAO| norm of gradient:   6.8496508455133334E-006
 PAO| energy improvement:  -1.0613732115416497E-011
 PAO| step    939                   -7.743047961  0.428E-06  0.252E+00     0.065
 PAO| converged after          939  steps :-)
 PAO| Recalculating energy after mixing.

     Lanczos converged:  T threshold:   0.100E-02
     Est. extremal eigenvalues:    0.246E+01   0.227E+00
     Est. condition number :    0.108E+02
     NS sqrt iter    1 1.00000000   0.621E+00       0.001       64.512
     NS sqrt iter    2 1.00000000   0.259E+00       0.001      110.592
     NS sqrt iter    3 1.00000000   0.398E-01       0.001      110.592
     NS sqrt iter    4 1.00000000   0.293E-03       0.001      109.312
     NS sqrt iter    5 1.00000000   0.201E-09       0.001       36.864
     Final NS sqrt iter    5 1.00000000   0.609E-10

     Est. extremal eigenvalues     -0.91721     1.46327  converged:  T
     TRS4 it   1 1.00000000   0.841E+00       0.000       16.128   0.100E-07
     TRS4 it   2 1.00000000   0.599E+00       0.001       32.256   0.100E-07
     TRS4 it   3 1.00000000   0.431E+00       0.001       32.256   0.100E-07
     TRS4 it   4 1.00000000   0.263E+00       0.001       32.256   0.100E-07
     TRS4 it   5 1.00000000   0.122E+00       0.001       32.256   0.100E-07
     TRS4 it   6 1.00000000   0.324E-01       0.001       32.256   0.100E-07
     TRS4 it   7 1.00000000   0.301E-02       0.001       32.256   0.100E-07
     TRS4 it   8 1.00000000   0.320E-04       0.001       32.256   0.100E-07
     TRS4 it   9 1.00000000   0.403E-08       0.001       32.256   0.100E-07
     Final TRS4 iteration    9 1.00000000   0.403E-08
     Chemical potential (mu):      -0.08088
 
 PAO| energy:  -7.7430479612577336      penalty:   2.3440967172952271E-011
 PAO| Writing restart file.
     Est. extremal eigenvalues     -0.91721     1.46327  converged:  T
     TRS4 it   1 1.00000000   0.841E+00       0.000       16.128   0.100E-07
     TRS4 it   2 1.00000000   0.599E+00       0.001       32.256   0.100E-07
     TRS4 it   3 1.00000000   0.431E+00       0.001       32.256   0.100E-07
     TRS4 it   4 1.00000000   0.263E+00       0.001       32.256   0.100E-07
     TRS4 it   5 1.00000000   0.122E+00       0.001       32.256   0.100E-07
     TRS4 it   6 1.00000000   0.324E-01       0.001       32.256   0.100E-07
     TRS4 it   7 1.00000000   0.301E-02       0.001       32.256   0.100E-07
     TRS4 it   8 1.00000000   0.320E-04       0.001       32.256   0.100E-07
     TRS4 it   9 1.00000000   0.403E-08       0.001       32.256   0.100E-07
     Final TRS4 iteration    9 1.00000000   0.403E-08
     Chemical potential (mu):      -0.08088

 SCF     1       -34.444198648       -34.444198648    1.873135

*********************************************************
 Using MIXING_FRACTION=0.450 to mix KS matrix:  iscf=  2
 KS_nw=0.450*KS + 0.550*KS_old
*********************************************************
     Est. extremal eigenvalues     -0.91721     1.46327  converged:  T
     TRS4 it   1 1.00000000   0.841E+00       0.000       16.128   0.100E-07
     TRS4 it   2 1.00000000   0.599E+00       0.001       32.256   0.100E-07
     TRS4 it   3 1.00000000   0.431E+00       0.001       32.256   0.100E-07
     TRS4 it   4 1.00000000   0.263E+00       0.001       32.256   0.100E-07
     TRS4 it   5 1.00000000   0.122E+00       0.001       32.256   0.100E-07
     TRS4 it   6 1.00000000   0.324E-01       0.001       32.256   0.100E-07
     TRS4 it   7 1.00000000   0.301E-02       0.001       32.256   0.100E-07
     TRS4 it   8 1.00000000   0.320E-04       0.001       32.256   0.100E-07
     TRS4 it   9 1.00000000   0.403E-08       0.001       32.256   0.100E-07
     Final TRS4 iteration    9 1.00000000   0.403E-08
     Chemical potential (mu):      -0.08088

 SCF     2       -34.444198648         0.000000000    1.876396

 PAO| Storing density matrix for ASPC guess in slot:           1

 ENERGY| Total FORCE_EVAL ( QS ) energy (a.u.):              -34.444198647699025


 -------------------------------------------------------------------------------
 -                                                                             -
 -                                DBCSR STATISTICS                             -
 -                                                                             -
 -------------------------------------------------------------------------------
 COUNTER                                    TOTAL       BLAS       SMM       ACC
 flops     5 x     5 x     4                30000       0.0%    100.0%      0.0%
 flops    13 x     5 x     4                31200       0.0%    100.0%      0.0%
 flops     5 x    13 x     4                31200       0.0%    100.0%      0.0%
 flops    13 x    13 x     4                60840       0.0%    100.0%      0.0%
 flops     4 x     4 x     5              7338240       0.0%    100.0%      0.0%
 flops     5 x     4 x     5              8976000       0.0%    100.0%      0.0%
 flops     4 x     4 x    13              9539712       0.0%    100.0%      0.0%
 flops    13 x     4 x     5             11668800       0.0%    100.0%      0.0%
 flops     5 x     4 x    13             11668800       0.0%    100.0%      0.0%
 flops     5 x     4 x     4             13897600       0.0%    100.0%      0.0%
 flops    13 x     4 x    13             15169440       0.0%    100.0%      0.0%
 flops    13 x     4 x     4             18127200       0.0%    100.0%      0.0%
 flops     4 x     4 x     4            928403712       0.0%    100.0%      0.0%
 flops inhomo. stacks                           0       0.0%      0.0%      0.0%
 flops total                         1.024943E+09       0.0%    100.0%      0.0%
 flops max/rank                      1.024943E+09       0.0%    100.0%      0.0%
 matmuls inhomo. stacks                         0       0.0%      0.0%      0.0%
 matmuls total                            7553680       0.0%    100.0%      0.0%
 number of processed stacks                 60305       0.0%    100.0%      0.0%
 average stack size                                     0.0     125.3       0.0
 marketing flops                     1.676739E+09
 -------------------------------------------------------------------------------
 # multiplications                          50519
 max memory usage/rank             321.011712E+06
 # max total images/rank                        1
 # max 3D layers                                1
 # MPI messages exchanged                       0
 MPI messages size (bytes):
  total size                         0.000000E+00
  min size                           0.000000E+00
  max size                           0.000000E+00
  average size                       0.000000E+00
 MPI breakdown and total messages size (bytes):
             size <=      128                   0                        0
       128 < size <=     8192                   0                        0
      8192 < size <=    32768                   0                        0
     32768 < size <=   131072                   0                        0
    131072 < size <=  4194304                   0                        0
   4194304 < size <= 16777216                   0                        0
  16777216 < size                               0                        0
 -------------------------------------------------------------------------------

 MEMORY| Estimated peak process memory [MiB]                                 307

 -------------------------------------------------------------------------------
 -                                                                             -
 -                           R E F E R E N C E S                               -
 -                                                                             -
 -------------------------------------------------------------------------------
 
 CP2K version 7.0 (Development Version), the CP2K developers group (2018).
 CP2K is freely available from https://www.cp2k.org/ .

 Schuett, O; VandeVondele, J. 
 Journal of Chemical Theory and Computation, 14, (2018). 
 Machine Learning Adaptive Basis Sets for Efficient Large Scale Density Functional Theory Simulation.
 https://dx.doi.org/10.1021/acs.jctc.8b00378


 Schuett, Ole; Messmer, Peter; Hutter, Juerg; VandeVondele, Joost. 
 Electronic Structure Calculations on Graphics Processing Units, John Wiley & Sons, Ltd, 173-190 (2016). 
 GPU-Accelerated Sparse Matrix-Matrix Multiplication for Linear Scaling Density Functional Theory.
 https://dx.doi.org/10.1002/9781118670712.ch8


 Borstnik, U; VandeVondele, J; Weber, V; Hutter, J. 
 PARALLEL COMPUTING, 40 (5-6), 47-58 (2014). 
 Sparse matrix multiplication: The distributed block-compressed sparse
 row library.
 https://dx.doi.org/10.1016/j.parco.2014.03.012


 Hutter, J; Iannuzzi, M; Schiffmann, F; VandeVondele, J. 
 WILEY INTERDISCIPLINARY REVIEWS-COMPUTATIONAL MOLECULAR SCIENCE, 4 (1), 15-25 (2014). 
 CP2K: atomistic simulations of condensed matter systems.
 https://dx.doi.org/10.1002/wcms.1159


 VandeVondele, J; Borstnik, U; Hutter, J. 
 JOURNAL OF CHEMICAL THEORY AND COMPUTATION, 8 (10), 3565-3573 (2012). 
 Linear Scaling Self-Consistent Field Calculations with Millions of Atoms
 in the Condensed Phase.
 https://dx.doi.org/10.1021/ct200897x


 VandeVondele, J; Hutter, J. 
 JOURNAL OF CHEMICAL PHYSICS, 127 (11), 114105 (2007). 
 Gaussian basis sets for accurate calculations on molecular systems in
 gas and condensed phases.
 https://dx.doi.org/10.1063/1.2770708


 Krack, M. 
 THEORETICAL CHEMISTRY ACCOUNTS, 114 (1-3), 145-152 (2005). 
 Pseudopotentials for H to Kr optimized for gradient-corrected
 exchange-correlation functionals.
 https://dx.doi.org/10.1007/s00214-005-0655-y


 VandeVondele, J; Krack, M; Mohamed, F; Parrinello, M; Chassaing, T;
 Hutter, J. COMPUTER PHYSICS COMMUNICATIONS, 167 (2), 103-128 (2005). 
 QUICKSTEP: Fast and accurate density functional calculations using a
 mixed Gaussian and plane waves approach.
 https://dx.doi.org/10.1016/j.cpc.2004.12.014


 Frigo, M; Johnson, SG. 
 PROCEEDINGS OF THE IEEE, 93 (2), 216-231 (2005). 
 The design and implementation of FFTW3.
 https://dx.doi.org/10.1109/JPROC.2004.840301


 Niklasson, AMN; Tymczak, CJ; Challacombe, M. 
 JOURNAL OF CHEMICAL PHYSICS, 118 (19), 8611-8620 (2003). 
 Trace resetting density matrix purification in O(N)
 self-consistent-field theory.
 https://dx.doi.org/10.1063/1.1559913


 Hartwigsen, C; Goedecker, S; Hutter, J. 
 PHYSICAL REVIEW B, 58 (7), 3641-3662 (1998). 
 Relativistic separable dual-space Gaussian pseudopotentials from H to Rn.
 https://dx.doi.org/10.1103/PhysRevB.58.3641


 Lippert, G; Hutter, J; Parrinello, M. 
 MOLECULAR PHYSICS, 92 (3), 477-487 (1997). 
 A hybrid Gaussian and plane wave density functional scheme.
 https://dx.doi.org/10.1080/002689797170220


 Perdew, JP; Burke, K; Ernzerhof, M. 
 PHYSICAL REVIEW LETTERS, 77 (18), 3865-3868 (1996). 
 Generalized gradient approximation made simple.
 https://dx.doi.org/10.1103/PhysRevLett.77.3865


 Goedecker, S; Teter, M; Hutter, J. 
 PHYSICAL REVIEW B, 54 (3), 1703-1710 (1996). 
 Separable dual-space Gaussian pseudopotentials.
 https://dx.doi.org/10.1103/PhysRevB.54.1703


 -------------------------------------------------------------------------------
 -                                                                             -
 -                                T I M I N G                                  -
 -                                                                             -
 -------------------------------------------------------------------------------
 SUBROUTINE                       CALLS  ASD         SELF TIME        TOTAL TIME
                                MAXIMUM       AVERAGE  MAXIMUM  AVERAGE  MAXIMUM
 CP2K                                 1  1.0    0.027    0.027   43.949   43.949
 qs_energies                          1  2.0    0.000    0.000   43.583   43.583
 ls_scf                               1  3.0    0.000    0.000   43.482   43.482
 ls_scf_main                          7  4.0    0.001    0.001   26.284   26.284
 ls_scf_dm_to_ks                     14  5.0    0.000    0.000   26.175   26.175
 qs_ks_update_qs_env                 15  6.0    0.000    0.000   19.815   19.815
 rebuild_ks_matrix                   15  7.0    0.000    0.000   19.814   19.814
 qs_ks_build_kohn_sham_matrix        15  8.0    0.002    0.002   19.814   19.814
 pao_update                           7  4.0    0.020    0.020   15.172   15.172
 pao_calc_energy                    945  5.0    0.008    0.008   13.719   13.719
 qs_vxc_create                       15  9.0    0.000    0.000   11.198   11.198
 xc_vxc_pw_create                    15 10.0    0.182    0.182   11.197   11.197
 dbcsr_multiply_generic           50519  8.4    0.855    0.855   11.134   11.134
 qs_rho_update_rho                   15  6.0    0.000    0.000    8.306    8.306
 calculate_rho_elec                  15  7.0    6.777    6.777    8.306    8.306
 xc_rho_set_and_dset_create          15 11.0    0.069    0.069    8.203    8.203
 sum_up_and_integrate                15  9.0    0.031    0.031    7.423    7.423
 integrate_v_rspace                  15 10.0    6.577    6.577    7.392    7.392
 pao_dm_trs4                        945  6.0    0.005    0.005    7.105    7.105
 pw_transfer                        286 10.6    0.018    0.018    7.019    7.019
 fft_wrap_pw1pw2                    256 11.7    0.002    0.002    6.866    6.866
 density_matrix_trs4                959  7.0    0.366    0.366    6.775    6.775
 ls_scf_init_matrix_S               952  7.0    0.006    0.006    6.584    6.584
 fft_wrap_pw1pw2_200                166 12.8    0.567    0.567    6.568    6.568
 pao_rebuild_S                      945  6.0    0.004    0.004    6.538    6.538
 matrix_sqrt_Newton_Schulz          952  8.0    0.240    0.240    5.916    5.916
 xc_functional_eval                  15 12.0    0.000    0.000    5.656    5.656
 pbe_lda_eval                        15 13.0    5.655    5.655    5.655    5.655
 multiply_cannon                  50519  9.4    1.931    1.931    4.268    4.268
 make_m2s                        101038  9.4    0.291    0.291    4.136    4.136
 fft3d_s                            257 13.6    3.850    3.850    3.862    3.862
 make_images                     101038 10.4    1.090    1.090    3.683    3.683
 pao_guess_initial_P                  1  4.0    0.000    0.000    1.953    1.953
 pao_read_preopt_dm                   1  5.0    0.000    0.000    1.953    1.953
 arnoldi_extremal                  1911  8.5    0.008    0.008    1.840    1.840
 arnoldi_normal_ev                 1911  9.5    0.020    0.020    1.832    1.832
 density_rs2pw                       15  8.0    0.001    0.001    1.503    1.503
 pao_calc_AB                       1244  5.8    0.001    0.001    1.421    1.421
 pao_calc_AB_direct                1244  6.8    0.046    0.046    1.420    1.420
 build_subspace                    1911 10.5    0.112    0.112    1.366    1.366
 pao_calc_grad_lnv_wrt_AB           298  7.0    0.014    0.014    1.322    1.322
 pw_scatter_s                       135 14.2    1.240    1.240    1.240    1.240
 dbcsr_create_new                386399 10.7    0.674    0.674    1.211    1.211
 dbcsr_matrix_vector_mult         45856 11.5    0.221    0.221    1.206    1.206
 pw_gather_s                        121 13.1    1.171    1.171    1.171    1.171
 dbcsr_finalize                  119224  9.7    0.222    0.222    1.163    1.163
 -------------------------------------------------------------------------------

 The number of warnings for this run is : 0
 
 -------------------------------------------------------------------------------
  **** **** ******  **  PROGRAM ENDED AT                 2019-02-14 11:07:55.536
 ***** ** ***  *** **   PROGRAM RAN ON                                      otto
 **    ****   ******    PROGRAM RAN BY                                       ole
 ***** **    ** ** **   PROGRAM PROCESS ID                                  7737
  **** **  *******  **  PROGRAM STOPPED IN /home/ole/git/pao_ml_equivar/2H2O_MD/
                                           frame_1450
