 DBCSR| CPU Multiplication driver                                           XSMM (U)
 DBCSR| Multrec recursion limit                                              512 (U)
 DBCSR| Multiplication stack size                                           1000 (D)
 DBCSR| Maximum elements for images                                    UNLIMITED (U)
 DBCSR| Multiplicative factor virtual images                                   1 (U)
 DBCSR| Use multiplication densification                                       T (D)
 DBCSR| Multiplication size stacks                                             3 (U)
 DBCSR| Use memory pool for CPU allocation                                     F (U)
 DBCSR| OMP: Current number of threads                                         1
 DBCSR| OMP: Max number of threads                                             1
 DBCSR| Split modifier for TAS multiplication algorithm                  1.0E+00 (U)


  **** **** ******  **  PROGRAM STARTED AT               2023-02-01 10:45:19.663
 ***** ** ***  *** **   PROGRAM STARTED ON                                moritz
 **    ****   ******    PROGRAM STARTED BY                                   ole
 ***** **    ** ** **   PROGRAM PROCESS ID                                148581
  **** **  *******  **  PROGRAM STARTED IN /home/ole/git/pao_ml_equivar/2H2O_rot
                                           ations/phi_15

 CP2K| version string:                 CP2K version 2023.1 (Development Version)
 CP2K| source code revision number:                                  git:03b4147
 CP2K| cp2kflags: omp libint fftw3 libxc quip xsmm spglib libvori libbqb libtorc
 CP2K|            h
 CP2K| is freely available from                            https://www.cp2k.org/
 CP2K| Program compiled at                           Mi 01 Feb 2023 10:36:52 CET
 CP2K| Program compiled on                                                moritz
 CP2K| Program compiled for                                                local
 CP2K| Data directory path                               /home/ole/git/cp2k/data
 CP2K| Input file name                                            2H2O_pao44.inp

 GLOBAL| Force Environment number                                              1
 GLOBAL| Basis set file name                                        BASIS_MOLOPT
 GLOBAL| Potential file name                                      GTH_POTENTIALS
 GLOBAL| MM Potential file name                                     MM_POTENTIAL
 GLOBAL| Coordinate file name                                         coords.xyz
 GLOBAL| Method name                                                        CP2K
 GLOBAL| Project name                                                 2H2O_pao44
 GLOBAL| Run type                                                         ENERGY
 GLOBAL| FFT library                                                       FFTW3
 GLOBAL| Diagonalization library                                       ScaLAPACK
 GLOBAL| DGEMM library                                                      BLAS
 GLOBAL| Orthonormality check for eigenvectors                          DISABLED
 GLOBAL| Matrix multiplication library                                 ScaLAPACK
 GLOBAL| All-to-all communication in single precision                          F
 GLOBAL| FFTs using library dependent lengths                                  F
 GLOBAL| Grid backend                                                       AUTO
 GLOBAL| Global print level                                                  LOW
 GLOBAL| MPI I/O enabled                                                       T
 GLOBAL| Total number of message passing processes                             1
 GLOBAL| Number of threads for this process                                    1
 GLOBAL| This output is from process                                           0
 GLOBAL| Stack size for threads created by OpenMP (OMP_STACKSIZE)        default
 GLOBAL| CPU model name           AMD Ryzen Threadripper 3970X 32-Core Processor
 GLOBAL| CPUID                                                              1002
 GLOBAL| Compiled for CPUID                                                    0

 *** HINT in environment.F:884 :: The compiler target flags (generic) used ***
 *** to build this binary cannot exploit all extensions of this CPU model  ***
 *** (x86_avx2). Consider compiler target flags as part of FCFLAGS and     ***
 *** CFLAGS (ARCH file).                                                   ***


 MEMORY| system memory details [Kb]
 MEMORY|                        rank 0           min           max       average
 MEMORY| MemTotal            131773860     131773860     131773860     131773860
 MEMORY| MemFree             118710184     118710184     118710184     118710184
 MEMORY| Buffers                301580        301580        301580        301580
 MEMORY| Cached                7018548       7018548       7018548       7018548
 MEMORY| Slab                   776140        776140        776140        776140
 MEMORY| SReclaimable           331304        331304        331304        331304
 MEMORY| MemLikelyFree       126361616     126361616     126361616     126361616


 GENERATE|  Preliminary Number of Bonds generated:                             0
 GENERATE|  Achieved consistency in connectivity generation.

 *******************************************************************************
 *******************************************************************************
 **                                                                           **
 **     #####                         ##              ##                      **
 **    ##   ##            ##          ##              ##                      **
 **   ##     ##                       ##            ######                    **
 **   ##     ##  ##   ##  ##   #####  ##  ##   ####   ##    #####    #####    **
 **   ##     ##  ##   ##  ##  ##      ## ##   ##      ##   ##   ##  ##   ##   **
 **   ##  ## ##  ##   ##  ##  ##      ####     ###    ##   ######   ######    **
 **    ##  ###   ##   ##  ##  ##      ## ##      ##   ##   ##       ##        **
 **     #######   #####   ##   #####  ##  ##  ####    ##    #####   ##        **
 **           ##                                                    ##        **
 **                                                                           **
 **                                                ... make the atoms dance   **
 **                                                                           **
 **            Copyright (C) by CP2K developers group (2000-2023)             **
 **                      J. Chem. Phys. 152, 194103 (2020)                    **
 **                                                                           **
 *******************************************************************************


 TOTAL NUMBERS AND MAXIMUM NUMBERS

  Total number of            - Atomic kinds:                                   2
                             - Atoms:                                          6
                             - Shell sets:                                     6
                             - Shells:                                        22
                             - Primitive Cartesian functions:                 42
                             - Cartesian basis functions:                     48
                             - Spherical basis functions:                     46

  Maximum angular momentum of- Orbital basis functions:                        2
                             - Local part of the GTH pseudopotential:          2
                             - Non-local part of the GTH pseudopotential:      0

 ------------------------------ Linear scaling SCF -----------------------------
 eps_scf:                                                              0.100E-07
 eps_filter:                                                           0.100E-07
 mixing_fraction:                                                      0.450E+00
 max_scf:                                                                     25
 fixed chemical potential (mu)                                                 F
 has unit metric:                                                              F
 Computing inv(S):                                                             T
 Computing sqrt(S):                                                            T
 Computing S preconditioner                                                    F
 S sqrt method:                                                     NEWTONSCHULZ
 S sqrt order:                                                                 3
 Extrapolation order:                                                          1
 Use single precision matrices                                                 F
 S preconditioner type                                                      NONE
 Polarized Atomic Orbitals (PAO)                                               T
 Purification method                                   Trace resetting 4th order
 Cluster type                                                             ATOMIC
 Computing Chebyshev                                                       FALSE
 Using PAO                                                                     T
 -------------------------------------------------------------------------------

 
 PAO|                                  EPS_PAO                           0.1E-04
 PAO|                                  MIXING                            0.5E+00
 PAO|                                  MAX_PAO                              1000
 PAO|                                  MAX_CYCLES                           1000
 PAO|                                  PARAMETERIZATION              EQUIVARIANT
 PAO|                                  PRECONDITION                            F
 PAO|                                  REGULARIZATION                    0.0E+00
 PAO|                                  EPS_PGF                           0.1E-09
 PAO|                                  PENALTY_DISTANCE                  0.1E+00
 PAO|                                  PENALTY_STRENGTH                  0.5E-02
 PAO|                                  LINPOT_PRECONDITION_DELTA         0.0E+00
 PAO|                                  LINPOT_INITGUESS_DELT             0.0E+00
 PAO|                                  LINPOT_REGULARIZATION_DELTA       0.0E+00
 PAO|                                  LINPOT_REGULARIZATION_STRENGTH    0.0E+00
 PAO|                                  OPTIMIZER                              CG
 PAO|                                  CG_INIT_STEPS                           2
 PAO|                                  CG_RESET_LIMIT                    0.1E+00
 PAO|                                  CHECK_UNITARY_TOL                -0.1E+01
 PAO|                                  CHECK_GRADIENT_TOL               -0.1E+01
 PAO|                                  NUM_GRADIENT_ORDER                      2
 PAO|                                  NUM_GRADIENT_EPS                  0.1E-07
 PAO|                                  PRINT%RESTART%WRITE_CYCLES            100
 PAO|                                  RESTART_FILE 
 PAO|                                  PREOPT_DM_FILE 2H2O_ref_LS_DM_SPIN_1_RESTART.dm
 PAO|                                  MACHINE_LEARNING%METHOD       GAUSSIAN_PR
 PAO|                                  MACHINE_LEARNING%PRIOR               ZERO
 PAO|                                  MACHINE_LEARNING%DESCRIPTOR     POTENTIAL
 PAO|                                  MACHINE_LEARNING%TOLERANCE        0.1E-01
 PAO|                                  MACHINE_LEARNING%GP_NOISE_VAR     0.1E+00
 PAO|                                  MACHINE_LEARNING%GP_SCALE         0.5E-01
 

 Calculating atomic Fock matrix for atomic kind: O

 Electronic structure
    Total number of core electrons                                          2.00
    Total number of valence electrons                                       6.00
    Total number of electrons                                               8.00
    Multiplicity                                                   not specified
    S   [  2.00] 2.00
    P      4.00


 *******************************************************************************
                  Iteration          Convergence                     Energy [au]
 *******************************************************************************
                          1        0.708315                     -15.576645311500
                          2        0.608879                     -15.587933561584
                          3        0.102828E-01                 -15.656849565404
                          4        0.113889E-02                 -15.656866888140
                          5        0.434197E-03                 -15.656867072159
                          6        0.263771E-03                 -15.656867091904
                          7        0.478536E-06                 -15.656867103452

 Energy components [Hartree]           Total Energy ::          -15.656867103452
                                        Band Energy ::           -3.000198112285
                                     Kinetic Energy ::           11.759971203220
                                   Potential Energy ::          -27.416838306672
                                      Virial (-V/T) ::            2.331369510426
                                        Core Energy ::          -26.140716385623
                                          XC Energy ::           -3.154051012914
                                     Coulomb Energy ::           13.637900295084
                       Total Pseudopotential Energy ::          -37.935781716540
                       Local Pseudopotential Energy ::          -39.218907440693
                    Nonlocal Pseudopotential Energy ::            1.283125724153
                                        Confinement ::            0.350941276976

 Orbital energies  State     L     Occupation   Energy[a.u.]          Energy[eV]

                       1     0          2.000      -0.864471          -23.523463

                       1     1          4.000      -0.317814           -8.648154


 Total Electron Density at R=0:                                         0.000068

 Calculating atomic Fock matrix for atomic kind: H

 Electronic structure
    Total number of core electrons                                          0.00
    Total number of valence electrons                                       1.00
    Total number of electrons                                               1.00
    Multiplicity                                                   not specified
    S      1.00


 *******************************************************************************
                  Iteration          Convergence                     Energy [au]
 *******************************************************************************
                          1        0.437545E-02                  -0.424159432110
                          2        0.531356E-03                  -0.424178438213
                          3        0.259176E-06                  -0.424178722480

 Energy components [Hartree]           Total Energy ::           -0.424178722480
                                        Band Energy ::           -0.199015229016
                                     Kinetic Energy ::            0.464007633961
                                   Potential Energy ::           -0.888186356441
                                      Virial (-V/T) ::            1.914163240935
                                        Core Energy ::           -0.479160803564
                                          XC Energy ::           -0.244352904054
                                     Coulomb Energy ::            0.299334985138
                       Total Pseudopotential Energy ::           -0.962295316385
                       Local Pseudopotential Energy ::           -0.962295316385
                    Nonlocal Pseudopotential Energy ::            0.000000000000
                                        Confinement ::            0.191268788606

 Orbital energies  State     L     Occupation   Energy[a.u.]          Energy[eV]

                       1     0          1.000      -0.199015           -5.415480


 Total Electron Density at R=0:                                         0.242907
 PAO| Made initial guess for matrix_X with norm:   4.8989794855663558     

     Lanczos converged:  T threshold:   0.100E-02
     Est. extremal eigenvalues:    0.337E+01   0.114E+00
     Est. condition number :    0.294E+02

 Order=           3
     NS sqrt iter    1 1.00000000   0.822E+00       0.001       64.512
     NS sqrt iter    2 1.00000000   0.440E+00       0.001      110.592
     NS sqrt iter    3 1.00000000   0.171E+00       0.001      110.592
     NS sqrt iter    4 1.00000000   0.207E-01       0.001      110.592
     NS sqrt iter    5 1.00000000   0.542E-04       0.001       91.776
     Symmetrizing Results
     Final NS sqrt iter    5 1.00000000   0.371E-08

 PAO| Read restart DM 2H2O_ref_LS_DM_SPIN_1_RESTART.dm with checksum:    72.327007046601025     
 PAO| Quickstep energy from restart density:  -34.450860804050635     
 PAO| ======================= Iteration:         1 =============================

     Lanczos converged:  T threshold:   0.100E-02
     Est. extremal eigenvalues:    0.337E+01   0.114E+00
     Est. condition number :    0.294E+02

 Order=           3
     NS sqrt iter    1 1.00000000   0.822E+00       0.001       64.512
     NS sqrt iter    2 1.00000000   0.440E+00       0.001      110.592
     NS sqrt iter    3 1.00000000   0.171E+00       0.001      110.592
     NS sqrt iter    4 1.00000000   0.207E-01       0.001      110.592
     NS sqrt iter    5 1.00000000   0.542E-04       0.001       91.776
     Symmetrizing Results
     Final NS sqrt iter    5 1.00000000   0.371E-08

     Est. extremal eigenvalues     -0.91905     1.89032  converged:  T
     TRS4 it   1 1.00000000   0.888E+00       0.000       16.128   0.100E-07
     TRS4 it   2 1.00000000   0.693E+00       0.000       32.256   0.100E-07
     TRS4 it   3 1.00000000   0.499E+00       0.000       32.256   0.100E-07
     TRS4 it   4 1.00000000   0.312E+00       0.000       32.256   0.100E-07
     TRS4 it   5 1.00000000   0.154E+00       0.000       32.256   0.100E-07
     TRS4 it   6 1.00000000   0.481E-01       0.000       32.256   0.100E-07
     TRS4 it   7 1.00000000   0.643E-02       0.000       32.256   0.100E-07
     TRS4 it   8 1.00000000   0.163E-03       0.000       32.256   0.100E-07
     TRS4 it   9 1.00000000   0.117E-06       0.000       32.256   0.100E-07
     TRS4 it  10 1.00000000   0.617E-13       0.000       32.256   0.100E-07
     Final TRS4 iteration   10 1.00000000   0.617E-13
     Chemical potential (mu):      -0.06357
 
 PAO| energy:  -7.6137489523413402      penalty:   4.4373425918681919E-033
 PAO|CG| warming up with steepest descent
 PAO|CG| beta:    0.0000000000000000     
 PAO| norm of gradient:  0.78374259801295554     
 PAO|LS| adapt:  T F F
 PAO|LS| adapt: scan_steps:    0.0000000000000000        0.0000000000000000        0.0000000000000000     
 PAO|LS| adapt: energies:   -7.6137489523413402        0.0000000000000000        0.0000000000000000     
 PAO| ======================= Iteration:         2 =============================

     Lanczos converged:  T threshold:   0.100E-02
     Est. extremal eigenvalues:    0.328E+01   0.127E+00
     Est. condition number :    0.259E+02

 Order=           3
     NS sqrt iter    1 1.00000000   0.805E+00       0.001       64.512
     NS sqrt iter    2 1.00000000   0.425E+00       0.001      110.592
     NS sqrt iter    3 1.00000000   0.153E+00       0.001      110.592
     NS sqrt iter    4 1.00000000   0.143E-01       0.001      110.592
     NS sqrt iter    5 1.00000000   0.176E-04       0.001       82.944
     Symmetrizing Results
     Final NS sqrt iter    5 1.00000000   0.463E-09

     Est. extremal eigenvalues     -0.92272     1.83870  converged:  T
     TRS4 it   1 1.00000000   0.886E+00       0.000       16.128   0.100E-07
     TRS4 it   2 1.00000000   0.675E+00       0.000       32.256   0.100E-07
     TRS4 it   3 1.00000000   0.483E+00       0.000       32.256   0.100E-07
     TRS4 it   4 1.00000000   0.292E+00       0.000       32.256   0.100E-07
     TRS4 it   5 1.00000000   0.135E+00       0.000       32.256   0.100E-07
     TRS4 it   6 1.00000000   0.371E-01       0.000       32.256   0.100E-07
     TRS4 it   7 1.00000000   0.387E-02       0.000       32.256   0.100E-07
     TRS4 it   8 1.00000000   0.594E-04       0.000       32.256   0.100E-07
     TRS4 it   9 1.00000000   0.157E-07       0.000       32.256   0.100E-07
     Final TRS4 iteration    9 1.00000000   0.157E-07
     Chemical potential (mu):      -0.05163
 
 PAO| energy:  -7.6692872753092400      penalty:   2.2530270119109651E-008
 PAO|LS| adapt:  T T F
 PAO|LS| adapt: scan_steps:    0.0000000000000000       0.10000000000000001        0.0000000000000000     
 PAO|LS| adapt: energies:   -7.6137489523413402       -7.6692872753092400        0.0000000000000000     
 PAO| ======================= Iteration:         3 =============================

     Lanczos converged:  T threshold:   0.100E-02
     Est. extremal eigenvalues:    0.319E+01   0.138E+00
     Est. condition number :    0.231E+02

 Order=           3
     NS sqrt iter    1 1.00000000   0.788E+00       0.001       64.512
     NS sqrt iter    2 1.00000000   0.408E+00       0.001      110.592
     NS sqrt iter    3 1.00000000   0.136E+00       0.001      110.592
     NS sqrt iter    4 1.00000000   0.992E-02       0.001      110.592
     NS sqrt iter    5 1.00000000   0.604E-05       0.001       82.944
     Symmetrizing Results
     Final NS sqrt iter    5 1.00000000   0.558E-10

     Est. extremal eigenvalues     -0.92615     1.79745  converged:  T
     TRS4 it   1 1.00000000   0.884E+00       0.000       16.128   0.100E-07
     TRS4 it   2 1.00000000   0.660E+00       0.000       32.256   0.100E-07
     TRS4 it   3 1.00000000   0.468E+00       0.000       32.256   0.100E-07
     TRS4 it   4 1.00000000   0.273E+00       0.000       32.256   0.100E-07
     TRS4 it   5 1.00000000   0.117E+00       0.000       32.256   0.100E-07
     TRS4 it   6 1.00000000   0.278E-01       0.000       32.256   0.100E-07
     TRS4 it   7 1.00000000   0.217E-02       0.000       32.256   0.100E-07
     TRS4 it   8 1.00000000   0.187E-04       0.000       32.256   0.100E-07
     TRS4 it   9 1.00000000   0.155E-08       0.000       32.256   0.100E-07
     Final TRS4 iteration    9 1.00000000   0.155E-08
     Chemical potential (mu):      -0.03873
 
 PAO| energy:  -7.7123888798233100      penalty:   3.6048406141809379E-007
 PAO|LS| adapt:  T T F
 PAO|LS| adapt: scan_steps:    0.0000000000000000       0.20000000000000001        0.0000000000000000     
 PAO|LS| adapt: energies:   -7.6137489523413402       -7.7123888798233100        0.0000000000000000     
 PAO| ======================= Iteration:         4 =============================

     Lanczos converged:  T threshold:   0.100E-02
     Est. extremal eigenvalues:    0.299E+01   0.155E+00
     Est. condition number :    0.193E+02

 Order=           3
     NS sqrt iter    1 1.00000000   0.750E+00       0.001       64.512
     NS sqrt iter    2 1.00000000   0.374E+00       0.001      110.592
     NS sqrt iter    3 1.00000000   0.106E+00       0.001      110.592
     NS sqrt iter    4 1.00000000   0.489E-02       0.001      110.592
     NS sqrt iter    5 1.00000000   0.911E-06       0.001       82.944
     Symmetrizing Results
     Final NS sqrt iter    5 1.00000000   0.141E-11

     Est. extremal eigenvalues     -0.93147     1.73804  converged:  T
     TRS4 it   1 1.00000000   0.881E+00       0.000       16.128   0.100E-07
     TRS4 it   2 1.00000000   0.634E+00       0.000       32.256   0.100E-07
     TRS4 it   3 1.00000000   0.440E+00       0.000       32.256   0.100E-07
     TRS4 it   4 1.00000000   0.237E+00       0.000       32.256   0.100E-07
     TRS4 it   5 1.00000000   0.864E-01       0.000       32.256   0.100E-07
     TRS4 it   6 1.00000000   0.146E-01       0.000       32.256   0.100E-07
     TRS4 it   7 1.00000000   0.567E-03       0.000       32.256   0.100E-07
     TRS4 it   8 1.00000000   0.124E-05       0.000       32.256   0.100E-07
     TRS4 it   9 1.00000000   0.685E-11       0.000       32.256   0.100E-07
     Final TRS4 iteration    9 1.00000000   0.685E-11
     Chemical potential (mu):      -0.01038
 
 PAO| energy:  -7.7596642407696255      penalty:   5.7677428987971269E-006
 PAO|LS| Need extra step
 PAO|LS| adapt:  T T F
 PAO|LS| adapt: scan_steps:    0.0000000000000000       0.40000000000000002        0.0000000000000000     
 PAO|LS| adapt: energies:   -7.6137489523413402       -7.7596642407696255        0.0000000000000000     
 PAO| ======================= Iteration:         5 =============================

     Lanczos converged:  T threshold:   0.100E-02
     Est. extremal eigenvalues:    0.263E+01   0.182E+00
     Est. condition number :    0.145E+02

 Order=           3
     NS sqrt iter    1 1.00000000   0.685E+00       0.001       64.512
     NS sqrt iter    2 1.00000000   0.311E+00       0.001      110.592
     NS sqrt iter    3 1.00000000   0.655E-01       0.001      110.592
     NS sqrt iter    4 1.00000000   0.137E-02       0.001      110.592
     NS sqrt iter    5 1.00000000   0.263E-07       0.001       57.216
     Symmetrizing Results
     Final NS sqrt iter    5 1.00000000   0.254E-08

     Est. extremal eigenvalues     -0.93271     1.67236  converged:  T
     TRS4 it   1 1.00000000   0.879E+00       0.000       16.128   0.100E-07
     TRS4 it   2 1.00000000   0.599E+00       0.000       32.256   0.100E-07
     TRS4 it   3 1.00000000   0.394E+00       0.000       32.256   0.100E-07
     TRS4 it   4 1.00000000   0.182E+00       0.000       32.256   0.100E-07
     TRS4 it   5 1.00000000   0.474E-01       0.000       32.256   0.100E-07
     TRS4 it   6 1.00000000   0.397E-02       0.000       32.256   0.100E-07
     TRS4 it   7 1.00000000   0.360E-04       0.000       32.256   0.100E-07
     TRS4 it   8 1.00000000   0.373E-08       0.000       32.256   0.100E-07
     Final TRS4 iteration    8 1.00000000   0.373E-08
     Chemical potential (mu):       0.03797
 
 PAO| energy:  -7.7049256928851158      penalty:   9.2283869709650852E-005
 PAO|LS| Need extra step
 PAO|LS| adapt:  T T T
 PAO|LS| adapt: scan_steps:    0.0000000000000000       0.40000000000000002       0.80000000000000004     
 PAO|LS| adapt: energies:   -7.6137489523413402       -7.7596642407696255       -7.7049256928851158     
 PAO|LS| adapt: suggested step_size:   0.49087963850503419     
 PAO|LS| adapt: predicted energy  -7.7648430590325539     
 PAO| ======================= Iteration:         6 =============================

     Lanczos converged:  T threshold:   0.100E-02
     Est. extremal eigenvalues:    0.290E+01   0.162E+00
     Est. condition number :    0.179E+02

 Order=           3
     NS sqrt iter    1 1.00000000   0.733E+00       0.001       64.512
     NS sqrt iter    2 1.00000000   0.358E+00       0.001      110.592
     NS sqrt iter    3 1.00000000   0.948E-01       0.001      110.592
     NS sqrt iter    4 1.00000000   0.361E-02       0.001      110.592
     NS sqrt iter    5 1.00000000   0.404E-06       0.001       82.688
     Symmetrizing Results
     Final NS sqrt iter    5 1.00000000   0.233E-10

     Est. extremal eigenvalues     -0.93296     1.71835  converged:  T
     TRS4 it   1 1.00000000   0.881E+00       0.000       16.128   0.100E-07
     TRS4 it   2 1.00000000   0.625E+00       0.000       32.256   0.100E-07
     TRS4 it   3 1.00000000   0.428E+00       0.000       32.256   0.100E-07
     TRS4 it   4 1.00000000   0.222E+00       0.000       32.256   0.100E-07
     TRS4 it   5 1.00000000   0.749E-01       0.000       32.256   0.100E-07
     TRS4 it   6 1.00000000   0.107E-01       0.000       32.256   0.100E-07
     TRS4 it   7 1.00000000   0.292E-03       0.000       32.256   0.100E-07
     TRS4 it   8 1.00000000   0.315E-06       0.000       32.256   0.100E-07
     TRS4 it   9 1.00000000   0.437E-12       0.000       32.256   0.100E-07
     Final TRS4 iteration    9 1.00000000   0.437E-12
     Chemical potential (mu):       0.00326
 
 PAO| energy:  -7.7641095468529535      penalty:   1.3081753794838483E-005
 PAO|CG| warming up with steepest descent
 PAO|CG| beta:    0.0000000000000000     
 PAO| norm of gradient:  0.41766325619180222     
 PAO| energy improvement: -0.15036059451161332     
 PAO| step      6                   -7.764109547  0.261E-01  0.491E+00     0.058
 PAO|LS| adapt:  T F F
 PAO|LS| adapt: scan_steps:    0.0000000000000000        0.0000000000000000        0.0000000000000000     
 PAO|LS| adapt: energies:   -7.7641095468529535        0.0000000000000000        0.0000000000000000     
 PAO| ======================= Iteration:         7 =============================

     Lanczos converged:  T threshold:   0.100E-02
     Est. extremal eigenvalues:    0.281E+01   0.176E+00
     Est. condition number :    0.160E+02

 Order=           3
     NS sqrt iter    1 1.00000000   0.716E+00       0.001       64.512
     NS sqrt iter    2 1.00000000   0.337E+00       0.001      110.592
     NS sqrt iter    3 1.00000000   0.792E-01       0.001      110.592
     NS sqrt iter    4 1.00000000   0.218E-02       0.001      110.592
     NS sqrt iter    5 1.00000000   0.989E-07       0.001       75.776
     Symmetrizing Results
     Final NS sqrt iter    5 1.00000000   0.120E-08

     Est. extremal eigenvalues     -0.93466     1.70522  converged:  T
     TRS4 it   1 1.00000000   0.880E+00       0.000       16.128   0.100E-07
     TRS4 it   2 1.00000000   0.623E+00       0.000       32.256   0.100E-07
     TRS4 it   3 1.00000000   0.428E+00       0.000       32.256   0.100E-07
     TRS4 it   4 1.00000000   0.223E+00       0.000       32.256   0.100E-07
     TRS4 it   5 1.00000000   0.755E-01       0.000       32.256   0.100E-07
     TRS4 it   6 1.00000000   0.106E-01       0.000       32.256   0.100E-07
     TRS4 it   7 1.00000000   0.273E-03       0.000       32.256   0.100E-07
     TRS4 it   8 1.00000000   0.261E-06       0.000       32.256   0.100E-07
     TRS4 it   9 1.00000000   0.294E-12       0.000       32.256   0.100E-07
     Final TRS4 iteration    9 1.00000000   0.294E-12
     Chemical potential (mu):       0.00530
 
 PAO| energy:  -7.7580162825290007      penalty:   1.9810683967354852E-005
 PAO|LS| adapt:  T F T
 PAO|LS| adapt: scan_steps:    0.0000000000000000        0.0000000000000000       0.49087963850503419     
 PAO|LS| adapt: energies:   -7.7641095468529535        0.0000000000000000       -7.7580162825290007     
 PAO| ======================= Iteration:         8 =============================

     Lanczos converged:  T threshold:   0.100E-02
     Est. extremal eigenvalues:    0.286E+01   0.169E+00
     Est. condition number :    0.169E+02

 Order=           3
     NS sqrt iter    1 1.00000000   0.725E+00       0.001       64.512
     NS sqrt iter    2 1.00000000   0.348E+00       0.001      110.592
     NS sqrt iter    3 1.00000000   0.868E-01       0.001      110.592
     NS sqrt iter    4 1.00000000   0.283E-02       0.001      110.592
     NS sqrt iter    5 1.00000000   0.204E-06       0.001       80.384
     Symmetrizing Results
     Final NS sqrt iter    5 1.00000000   0.888E-09

     Est. extremal eigenvalues     -0.93477     1.71120  converged:  T
     TRS4 it   1 1.00000000   0.880E+00       0.000       16.128   0.100E-07
     TRS4 it   2 1.00000000   0.623E+00       0.000       32.256   0.100E-07
     TRS4 it   3 1.00000000   0.427E+00       0.000       32.256   0.100E-07
     TRS4 it   4 1.00000000   0.222E+00       0.000       32.256   0.100E-07
     TRS4 it   5 1.00000000   0.750E-01       0.000       32.256   0.100E-07
     TRS4 it   6 1.00000000   0.107E-01       0.000       32.256   0.100E-07
     TRS4 it   7 1.00000000   0.290E-03       0.000       32.256   0.100E-07
     TRS4 it   8 1.00000000   0.304E-06       0.000       32.256   0.100E-07
     TRS4 it   9 1.00000000   0.405E-12       0.000       32.256   0.100E-07
     Final TRS4 iteration    9 1.00000000   0.405E-12
     Chemical potential (mu):       0.00384
 
 PAO| energy:  -7.7837521578709143      penalty:   1.4186474379317431E-005
 PAO|LS| adapt:  T T T
 PAO|LS| adapt: scan_steps:    0.0000000000000000       0.24543981925251709       0.49087963850503419     
 PAO|LS| adapt: energies:   -7.7641095468529535       -7.7837521578709143       -7.7580162825290007     
 PAO|LS| adapt: suggested step_size:   0.22896141930690758     
 PAO|LS| adapt: predicted energy  -7.7838544306467927     
 PAO| ======================= Iteration:         9 =============================

     Lanczos converged:  T threshold:   0.100E-02
     Est. extremal eigenvalues:    0.286E+01   0.168E+00
     Est. condition number :    0.170E+02

 Order=           3
     NS sqrt iter    1 1.00000000   0.725E+00       0.001       64.512
     NS sqrt iter    2 1.00000000   0.348E+00       0.001      110.592
     NS sqrt iter    3 1.00000000   0.874E-01       0.001      110.592
     NS sqrt iter    4 1.00000000   0.287E-02       0.001      110.592
     NS sqrt iter    5 1.00000000   0.214E-06       0.001       80.768
     Symmetrizing Results
     Final NS sqrt iter    5 1.00000000   0.646E-09

     Est. extremal eigenvalues     -0.93472     1.71164  converged:  T
     TRS4 it   1 1.00000000   0.880E+00       0.000       16.128   0.100E-07
     TRS4 it   2 1.00000000   0.623E+00       0.000       32.256   0.100E-07
     TRS4 it   3 1.00000000   0.427E+00       0.000       32.256   0.100E-07
     TRS4 it   4 1.00000000   0.222E+00       0.000       32.256   0.100E-07
     TRS4 it   5 1.00000000   0.750E-01       0.000       32.256   0.100E-07
     TRS4 it   6 1.00000000   0.107E-01       0.000       32.256   0.100E-07
     TRS4 it   7 1.00000000   0.291E-03       0.000       32.256   0.100E-07
     TRS4 it   8 1.00000000   0.306E-06       0.000       32.256   0.100E-07
     TRS4 it   9 1.00000000   0.410E-12       0.000       32.256   0.100E-07
     Final TRS4 iteration    9 1.00000000   0.410E-12
     Chemical potential (mu):       0.00377
 
 PAO| energy:  -7.7838791596424617      penalty:   1.4010146913783117E-005
 PAO|CG| trace_G_new    3.6854740324143313E-002
 PAO|CG| trace_G_prev   0.17444259557273900     
 PAO|CG| trace_G_mix   -1.4514379484762887E-003
 PAO|CG| trace_D   0.17444259557273900     
 PAO|CG| trace_D_Gnew   1.4514379484762887E-003
 PAO|CG| beta:   0.21959188434940885     
 PAO| norm of gradient:  0.19197588474634858     
 PAO| energy improvement:  -1.9769612789508173E-002
 PAO| step      9                   -7.783879160  0.120E-01  0.229E+00     0.036
 PAO|LS| adapt:  T F F
 PAO|LS| adapt: scan_steps:    0.0000000000000000        0.0000000000000000        0.0000000000000000     
 PAO|LS| adapt: energies:   -7.7838791596424617        0.0000000000000000        0.0000000000000000     
 PAO| ======================= Iteration:        10 =============================

     Lanczos converged:  T threshold:   0.100E-02
     Est. extremal eigenvalues:    0.282E+01   0.174E+00
     Est. condition number :    0.162E+02

 Order=           3
     NS sqrt iter    1 1.00000000   0.717E+00       0.001       64.512
     NS sqrt iter    2 1.00000000   0.340E+00       0.001      110.592
     NS sqrt iter    3 1.00000000   0.817E-01       0.001      110.592
     NS sqrt iter    4 1.00000000   0.237E-02       0.001      110.592
     NS sqrt iter    5 1.00000000   0.120E-06       0.001       76.544
     Symmetrizing Results
     Final NS sqrt iter    5 1.00000000   0.135E-08

     Est. extremal eigenvalues     -0.93561     1.70931  converged:  T
     TRS4 it   1 1.00000000   0.879E+00       0.000       16.128   0.100E-07
     TRS4 it   2 1.00000000   0.622E+00       0.000       32.256   0.100E-07
     TRS4 it   3 1.00000000   0.426E+00       0.000       32.256   0.100E-07
     TRS4 it   4 1.00000000   0.220E+00       0.000       32.256   0.100E-07
     TRS4 it   5 1.00000000   0.732E-01       0.000       32.256   0.100E-07
     TRS4 it   6 1.00000000   0.101E-01       0.000       32.256   0.100E-07
     TRS4 it   7 1.00000000   0.257E-03       0.000       32.256   0.100E-07
     TRS4 it   8 1.00000000   0.233E-06       0.000       32.256   0.100E-07
     TRS4 it   9 1.00000000   0.236E-12       0.000       32.256   0.100E-07
     Final TRS4 iteration    9 1.00000000   0.236E-12
     Chemical potential (mu):       0.00682
 
 PAO| energy:  -7.7889166089806112      penalty:   1.4546331142666925E-005
 PAO|LS| adapt:  T T F
 PAO|LS| adapt: scan_steps:    0.0000000000000000       0.22896141930690758        0.0000000000000000     
 PAO|LS| adapt: energies:   -7.7838791596424617       -7.7889166089806112        0.0000000000000000     
 PAO| ======================= Iteration:        11 =============================

     Lanczos converged:  T threshold:   0.100E-02
     Est. extremal eigenvalues:    0.279E+01   0.180E+00
     Est. condition number :    0.155E+02

 Order=           3
     NS sqrt iter    1 1.00000000   0.709E+00       0.001       64.512
     NS sqrt iter    2 1.00000000   0.332E+00       0.001      110.592
     NS sqrt iter    3 1.00000000   0.764E-01       0.001      110.592
     NS sqrt iter    4 1.00000000   0.194E-02       0.001      110.592
     NS sqrt iter    5 1.00000000   0.662E-07       0.001       71.808
     Symmetrizing Results
     Final NS sqrt iter    5 1.00000000   0.555E-09

     Est. extremal eigenvalues     -0.93553     1.70821  converged:  T
     TRS4 it   1 1.00000000   0.878E+00       0.000       16.128   0.100E-07
     TRS4 it   2 1.00000000   0.622E+00       0.000       32.256   0.100E-07
     TRS4 it   3 1.00000000   0.425E+00       0.000       32.256   0.100E-07
     TRS4 it   4 1.00000000   0.218E+00       0.000       32.256   0.100E-07
     TRS4 it   5 1.00000000   0.715E-01       0.000       32.256   0.100E-07
     TRS4 it   6 1.00000000   0.961E-02       0.000       32.256   0.100E-07
     TRS4 it   7 1.00000000   0.227E-03       0.000       32.256   0.100E-07
     TRS4 it   8 1.00000000   0.177E-06       0.000       32.256   0.100E-07
     TRS4 it   9 1.00000000   0.133E-12       0.000       32.256   0.100E-07
     Final TRS4 iteration    9 1.00000000   0.133E-12
     Chemical potential (mu):       0.00998
 
 PAO| energy:  -7.7875399453252818      penalty:   1.5749881239244654E-005
 PAO|LS| adapt:  T T T
 PAO|LS| adapt: scan_steps:    0.0000000000000000       0.22896141930690758       0.45792283861381516     
 PAO|LS| adapt: energies:   -7.7838791596424617       -7.7889166089806112       -7.7875399453252818     
 PAO|LS| adapt: suggested step_size:   0.29430004731120518     
 PAO|LS| adapt: predicted energy  -7.7891777782145564     
 PAO| ======================= Iteration:        12 =============================

     Lanczos converged:  T threshold:   0.100E-02
     Est. extremal eigenvalues:    0.281E+01   0.176E+00
     Est. condition number :    0.160E+02

 Order=           3
     NS sqrt iter    1 1.00000000   0.715E+00       0.001       64.512
     NS sqrt iter    2 1.00000000   0.338E+00       0.001      110.592
     NS sqrt iter    3 1.00000000   0.802E-01       0.001      110.592
     NS sqrt iter    4 1.00000000   0.224E-02       0.001      110.592
     NS sqrt iter    5 1.00000000   0.101E-06       0.001       75.520
     Symmetrizing Results
     Final NS sqrt iter    5 1.00000000   0.120E-08

     Est. extremal eigenvalues     -0.93568     1.70887  converged:  T
     TRS4 it   1 1.00000000   0.878E+00       0.000       16.128   0.100E-07
     TRS4 it   2 1.00000000   0.622E+00       0.000       32.256   0.100E-07
     TRS4 it   3 1.00000000   0.426E+00       0.000       32.256   0.100E-07
     TRS4 it   4 1.00000000   0.219E+00       0.000       32.256   0.100E-07
     TRS4 it   5 1.00000000   0.727E-01       0.000       32.256   0.100E-07
     TRS4 it   6 1.00000000   0.998E-02       0.000       32.256   0.100E-07
     TRS4 it   7 1.00000000   0.248E-03       0.000       32.256   0.100E-07
     TRS4 it   8 1.00000000   0.215E-06       0.000       32.256   0.100E-07
     TRS4 it   9 1.00000000   0.200E-12       0.000       32.256   0.100E-07
     Final TRS4 iteration    9 1.00000000   0.200E-12
     Chemical potential (mu):       0.00772
 
 PAO| energy:  -7.7891615170461961      penalty:   1.4814047044165976E-005
 PAO|CG| trace_G_new    1.1820852709935180E-002
 PAO|CG| trace_G_prev    3.6854740324143313E-002
 PAO|CG| trace_G_mix   -4.5462620354798453E-004
 PAO|CG| trace_D    4.4629018205007955E-002
 PAO|CG| trace_D_Gnew   2.0590830519199091E-004
 PAO|CG| beta:   0.33307734108335513     
 PAO| norm of gradient:  0.10872374492232678     
 PAO| energy improvement:  -5.2823574037343946E-003
 PAO| step     12                   -7.789161517  0.680E-02  0.294E+00     0.037
 PAO|LS| adapt:  T F F
 PAO|LS| adapt: scan_steps:    0.0000000000000000        0.0000000000000000        0.0000000000000000     
 PAO|LS| adapt: energies:   -7.7891615170461961        0.0000000000000000        0.0000000000000000     
 PAO| ======================= Iteration:        13 =============================

     Lanczos converged:  T threshold:   0.100E-02
     Est. extremal eigenvalues:    0.278E+01   0.180E+00
     Est. condition number :    0.154E+02

 Order=           3
     NS sqrt iter    1 1.00000000   0.708E+00       0.001       64.512
     NS sqrt iter    2 1.00000000   0.331E+00       0.001      110.592
     NS sqrt iter    3 1.00000000   0.758E-01       0.001      110.592
     NS sqrt iter    4 1.00000000   0.190E-02       0.001      110.592
     NS sqrt iter    5 1.00000000   0.635E-07       0.001       71.680
     Symmetrizing Results
     Final NS sqrt iter    5 1.00000000   0.543E-09

     Est. extremal eigenvalues     -0.93616     1.70318  converged:  T
     TRS4 it   1 1.00000000   0.878E+00       0.000       16.128   0.100E-07
     TRS4 it   2 1.00000000   0.619E+00       0.000       32.256   0.100E-07
     TRS4 it   3 1.00000000   0.422E+00       0.000       32.256   0.100E-07
     TRS4 it   4 1.00000000   0.215E+00       0.000       32.256   0.100E-07
     TRS4 it   5 1.00000000   0.693E-01       0.000       32.256   0.100E-07
     TRS4 it   6 1.00000000   0.900E-02       0.000       32.256   0.100E-07
     TRS4 it   7 1.00000000   0.199E-03       0.000       32.256   0.100E-07
     TRS4 it   8 1.00000000   0.136E-06       0.000       32.256   0.100E-07
     TRS4 it   9 1.00000000   0.772E-13       0.000       32.256   0.100E-07
     Final TRS4 iteration    9 1.00000000   0.772E-13
     Chemical potential (mu):       0.01218
 
 PAO| energy:  -7.7912344721158178      penalty:   1.5122560431846142E-005
 PAO|LS| adapt:  T T F
 PAO|LS| adapt: scan_steps:    0.0000000000000000       0.29430004731120518        0.0000000000000000     
 PAO|LS| adapt: energies:   -7.7891615170461961       -7.7912344721158178        0.0000000000000000     
 PAO| ======================= Iteration:        14 =============================

     Lanczos converged:  T threshold:   0.100E-02
     Est. extremal eigenvalues:    0.274E+01   0.184E+00
     Est. condition number :    0.149E+02

 Order=           3
     NS sqrt iter    1 1.00000000   0.701E+00       0.001       64.512
     NS sqrt iter    2 1.00000000   0.324E+00       0.001      110.592
     NS sqrt iter    3 1.00000000   0.717E-01       0.001      110.592
     NS sqrt iter    4 1.00000000   0.162E-02       0.001      110.592
     NS sqrt iter    5 1.00000000   0.396E-07       0.001       67.968
     Symmetrizing Results
     Final NS sqrt iter    5 1.00000000   0.347E-09

     Est. extremal eigenvalues     -0.93614     1.69773  converged:  T
     TRS4 it   1 1.00000000   0.878E+00       0.000       16.128   0.100E-07
     TRS4 it   2 1.00000000   0.617E+00       0.000       32.256   0.100E-07
     TRS4 it   3 1.00000000   0.418E+00       0.000       32.256   0.100E-07
     TRS4 it   4 1.00000000   0.210E+00       0.000       32.256   0.100E-07
     TRS4 it   5 1.00000000   0.660E-01       0.000       32.256   0.100E-07
     TRS4 it   6 1.00000000   0.812E-02       0.000       32.256   0.100E-07
     TRS4 it   7 1.00000000   0.160E-03       0.000       32.256   0.100E-07
     TRS4 it   8 1.00000000   0.853E-07       0.000       32.256   0.100E-07
     TRS4 it   9 1.00000000   0.309E-13       0.000       32.256   0.100E-07
     Final TRS4 iteration    9 1.00000000   0.309E-13
     Chemical potential (mu):       0.01652
 
 PAO| energy:  -7.7905861946782142      penalty:   1.5914099233895160E-005
 PAO|LS| adapt:  T T T
 PAO|LS| adapt: scan_steps:    0.0000000000000000       0.29430004731120518       0.58860009462241036     
 PAO|LS| adapt: energies:   -7.7891615170461961       -7.7912344721158178       -7.7905861946782142     
 PAO|LS| adapt: suggested step_size:   0.37133916348244483     
 PAO|LS| adapt: predicted energy  -7.7913277068150659     
 PAO| ======================= Iteration:        15 =============================

     Lanczos converged:  T threshold:   0.100E-02
     Est. extremal eigenvalues:    0.277E+01   0.181E+00
     Est. condition number :    0.153E+02

 Order=           3
     NS sqrt iter    1 1.00000000   0.706E+00       0.001       64.512
     NS sqrt iter    2 1.00000000   0.329E+00       0.001      110.592
     NS sqrt iter    3 1.00000000   0.747E-01       0.001      110.592
     NS sqrt iter    4 1.00000000   0.183E-02       0.001      110.592
     NS sqrt iter    5 1.00000000   0.561E-07       0.001       70.784
     Symmetrizing Results
     Final NS sqrt iter    5 1.00000000   0.475E-09

     Est. extremal eigenvalues     -0.93621     1.70173  converged:  T
     TRS4 it   1 1.00000000   0.878E+00       0.000       16.128   0.100E-07
     TRS4 it   2 1.00000000   0.619E+00       0.000       32.256   0.100E-07
     TRS4 it   3 1.00000000   0.421E+00       0.000       32.256   0.100E-07
     TRS4 it   4 1.00000000   0.213E+00       0.000       32.256   0.100E-07
     TRS4 it   5 1.00000000   0.684E-01       0.000       32.256   0.100E-07
     TRS4 it   6 1.00000000   0.876E-02       0.000       32.256   0.100E-07
     TRS4 it   7 1.00000000   0.188E-03       0.000       32.256   0.100E-07
     TRS4 it   8 1.00000000   0.120E-06       0.000       32.256   0.100E-07
     TRS4 it   9 1.00000000   0.613E-13       0.000       32.256   0.100E-07
     Final TRS4 iteration    9 1.00000000   0.613E-13
     Chemical potential (mu):       0.01333
 
 PAO| energy:  -7.7913246185005001      penalty:   1.5280020487215510E-005
 PAO|CG| trace_G_new    2.6278413396822677E-003
 PAO|CG| trace_G_prev    1.1820852709935180E-002
 PAO|CG| trace_G_mix    6.1986345495911664E-005
 PAO|CG| trace_D    1.6634852198331464E-002
 PAO|CG| trace_D_Gnew   3.4294894025001905E-005
 PAO|CG| beta:   0.21706175156296537     
 PAO| norm of gradient:   5.1262474966414444E-002
 PAO| energy improvement:  -2.1631014543039839E-003
 PAO| step     15                   -7.791324619  0.320E-02  0.371E+00     0.036
 PAO|LS| adapt:  T F F
 PAO|LS| adapt: scan_steps:    0.0000000000000000        0.0000000000000000        0.0000000000000000     
 PAO|LS| adapt: energies:   -7.7913246185005001        0.0000000000000000        0.0000000000000000     
 PAO| ======================= Iteration:        16 =============================

     Lanczos converged:  T threshold:   0.100E-02
     Est. extremal eigenvalues:    0.276E+01   0.182E+00
     Est. condition number :    0.152E+02

 Order=           3
     NS sqrt iter    1 1.00000000   0.704E+00       0.001       64.512
     NS sqrt iter    2 1.00000000   0.328E+00       0.001      110.592
     NS sqrt iter    3 1.00000000   0.740E-01       0.001      110.592
     NS sqrt iter    4 1.00000000   0.177E-02       0.001      110.592
     NS sqrt iter    5 1.00000000   0.508E-07       0.001       70.400
     Symmetrizing Results
     Final NS sqrt iter    5 1.00000000   0.443E-09

     Est. extremal eigenvalues     -0.93623     1.70119  converged:  T
     TRS4 it   1 1.00000000   0.878E+00       0.000       16.128   0.100E-07
     TRS4 it   2 1.00000000   0.618E+00       0.000       32.256   0.100E-07
     TRS4 it   3 1.00000000   0.420E+00       0.000       32.256   0.100E-07
     TRS4 it   4 1.00000000   0.212E+00       0.000       32.256   0.100E-07
     TRS4 it   5 1.00000000   0.673E-01       0.000       32.256   0.100E-07
     TRS4 it   6 1.00000000   0.848E-02       0.000       32.256   0.100E-07
     TRS4 it   7 1.00000000   0.177E-03       0.000       32.256   0.100E-07
     TRS4 it   8 1.00000000   0.108E-06       0.000       32.256   0.100E-07
     TRS4 it   9 1.00000000   0.490E-13       0.000       32.256   0.100E-07
     Final TRS4 iteration    9 1.00000000   0.490E-13
     Chemical potential (mu):       0.01415
 
 PAO| energy:  -7.7914487115537643      penalty:   1.5061380688608019E-005
 PAO|LS| adapt:  T T F
 PAO|LS| adapt: scan_steps:    0.0000000000000000       0.37133916348244483        0.0000000000000000     
 PAO|LS| adapt: energies:   -7.7913246185005001       -7.7914487115537643        0.0000000000000000     
 PAO| ======================= Iteration:        17 =============================

     Lanczos converged:  T threshold:   0.100E-02
     Est. extremal eigenvalues:    0.275E+01   0.182E+00
     Est. condition number :    0.151E+02

 Order=           3
     NS sqrt iter    1 1.00000000   0.702E+00       0.001       64.512
     NS sqrt iter    2 1.00000000   0.326E+00       0.001      110.592
     NS sqrt iter    3 1.00000000   0.733E-01       0.001      110.592
     NS sqrt iter    4 1.00000000   0.171E-02       0.001      110.592
     NS sqrt iter    5 1.00000000   0.460E-07       0.001       69.632
     Symmetrizing Results
     Final NS sqrt iter    5 1.00000000   0.345E-09

     Est. extremal eigenvalues     -0.93614     1.70072  converged:  T
     TRS4 it   1 1.00000000   0.879E+00       0.000       16.128   0.100E-07
     TRS4 it   2 1.00000000   0.617E+00       0.000       32.256   0.100E-07
     TRS4 it   3 1.00000000   0.418E+00       0.000       32.256   0.100E-07
     TRS4 it   4 1.00000000   0.210E+00       0.000       32.256   0.100E-07
     TRS4 it   5 1.00000000   0.662E-01       0.000       32.256   0.100E-07
     TRS4 it   6 1.00000000   0.821E-02       0.000       32.256   0.100E-07
     TRS4 it   7 1.00000000   0.167E-03       0.000       32.256   0.100E-07
     TRS4 it   8 1.00000000   0.965E-07       0.000       32.256   0.100E-07
     TRS4 it   9 1.00000000   0.398E-13       0.000       32.256   0.100E-07
     Final TRS4 iteration    9 1.00000000   0.398E-13
     Chemical potential (mu):       0.01496
 
 PAO| energy:  -7.7898692049759202      penalty:   1.4969859436450965E-005
 PAO|LS| adapt:  T T T
 PAO|LS| adapt: scan_steps:    0.0000000000000000       0.37133916348244483       0.74267832696488967     
 PAO|LS| adapt: energies:   -7.7913246185005001       -7.7914487115537643       -7.7898692049759202     
 PAO|LS| adapt: suggested step_size:   0.21271854897018219     
 PAO|LS| adapt: predicted energy  -7.7916041345540421     
 PAO| ======================= Iteration:        18 =============================

     Lanczos converged:  T threshold:   0.100E-02
     Est. extremal eigenvalues:    0.276E+01   0.181E+00
     Est. condition number :    0.152E+02

 Order=           3
     NS sqrt iter    1 1.00000000   0.705E+00       0.001       64.512
     NS sqrt iter    2 1.00000000   0.328E+00       0.001      110.592
     NS sqrt iter    3 1.00000000   0.743E-01       0.001      110.592
     NS sqrt iter    4 1.00000000   0.179E-02       0.001      110.592
     NS sqrt iter    5 1.00000000   0.530E-07       0.001       70.656
     Symmetrizing Results
     Final NS sqrt iter    5 1.00000000   0.447E-09

     Est. extremal eigenvalues     -0.93624     1.70141  converged:  T
     TRS4 it   1 1.00000000   0.878E+00       0.000       16.128   0.100E-07
     TRS4 it   2 1.00000000   0.618E+00       0.000       32.256   0.100E-07
     TRS4 it   3 1.00000000   0.420E+00       0.000       32.256   0.100E-07
     TRS4 it   4 1.00000000   0.212E+00       0.000       32.256   0.100E-07
     TRS4 it   5 1.00000000   0.678E-01       0.000       32.256   0.100E-07
     TRS4 it   6 1.00000000   0.860E-02       0.000       32.256   0.100E-07
     TRS4 it   7 1.00000000   0.182E-03       0.000       32.256   0.100E-07
     TRS4 it   8 1.00000000   0.113E-06       0.000       32.256   0.100E-07
     TRS4 it   9 1.00000000   0.544E-13       0.000       32.256   0.100E-07
     Final TRS4 iteration    9 1.00000000   0.544E-13
     Chemical potential (mu):       0.01380
 
 PAO| energy:  -7.7916036660759875      penalty:   1.5139501905332953E-005
 PAO|CG| trace_G_new    7.3070758215569532E-004
 PAO|CG| trace_G_prev    2.6278413396822677E-003
 PAO|CG| trace_G_mix    1.6655274496616606E-006
 PAO|CG| trace_D    3.3967175557543324E-003
 PAO|CG| trace_D_Gnew  -1.7550787423934795E-006
 PAO|CG| beta:   0.27743001211564094     
 PAO| norm of gradient:   2.7031603395945555E-002
 PAO| energy improvement:  -2.7904757548746772E-004
 PAO| step     18                   -7.791603666  0.169E-02  0.213E+00     0.036
 PAO|LS| adapt:  T F F
 PAO|LS| adapt: scan_steps:    0.0000000000000000        0.0000000000000000        0.0000000000000000     
 PAO|LS| adapt: energies:   -7.7916036660759875        0.0000000000000000        0.0000000000000000     
 PAO| ======================= Iteration:        19 =============================

     Lanczos converged:  T threshold:   0.100E-02
     Est. extremal eigenvalues:    0.276E+01   0.181E+00
     Est. condition number :    0.152E+02

 Order=           3
     NS sqrt iter    1 1.00000000   0.705E+00       0.001       64.512
     NS sqrt iter    2 1.00000000   0.328E+00       0.001      110.592
     NS sqrt iter    3 1.00000000   0.745E-01       0.001      110.592
     NS sqrt iter    4 1.00000000   0.180E-02       0.001      110.592
     NS sqrt iter    5 1.00000000   0.534E-07       0.001       70.656
     Symmetrizing Results
     Final NS sqrt iter    5 1.00000000   0.454E-09

     Est. extremal eigenvalues     -0.93624     1.70169  converged:  T
     TRS4 it   1 1.00000000   0.878E+00       0.000       16.128   0.100E-07
     TRS4 it   2 1.00000000   0.618E+00       0.000       32.256   0.100E-07
     TRS4 it   3 1.00000000   0.420E+00       0.000       32.256   0.100E-07
     TRS4 it   4 1.00000000   0.212E+00       0.000       32.256   0.100E-07
     TRS4 it   5 1.00000000   0.677E-01       0.000       32.256   0.100E-07
     TRS4 it   6 1.00000000   0.859E-02       0.000       32.256   0.100E-07
     TRS4 it   7 1.00000000   0.182E-03       0.000       32.256   0.100E-07
     TRS4 it   8 1.00000000   0.114E-06       0.000       32.256   0.100E-07
     TRS4 it   9 1.00000000   0.570E-13       0.000       32.256   0.100E-07
     Final TRS4 iteration    9 1.00000000   0.570E-13
     Chemical potential (mu):       0.01353
 
 PAO| energy:  -7.7917222731407580      penalty:   1.4849639453213119E-005
 PAO|LS| adapt:  T T F
 PAO|LS| adapt: scan_steps:    0.0000000000000000       0.21271854897018219        0.0000000000000000     
 PAO|LS| adapt: energies:   -7.7916036660759875       -7.7917222731407580        0.0000000000000000     
 PAO| ======================= Iteration:        20 =============================

     Lanczos converged:  T threshold:   0.100E-02
     Est. extremal eigenvalues:    0.276E+01   0.181E+00
     Est. condition number :    0.153E+02

 Order=           3
     NS sqrt iter    1 1.00000000   0.705E+00       0.001       64.512
     NS sqrt iter    2 1.00000000   0.329E+00       0.001      110.592
     NS sqrt iter    3 1.00000000   0.747E-01       0.001      110.592
     NS sqrt iter    4 1.00000000   0.181E-02       0.001      110.592
     NS sqrt iter    5 1.00000000   0.539E-07       0.001       70.784
     Symmetrizing Results
     Final NS sqrt iter    5 1.00000000   0.468E-09

     Est. extremal eigenvalues     -0.93623     1.70197  converged:  T
     TRS4 it   1 1.00000000   0.878E+00       0.000       16.128   0.100E-07
     TRS4 it   2 1.00000000   0.618E+00       0.000       32.256   0.100E-07
     TRS4 it   3 1.00000000   0.420E+00       0.000       32.256   0.100E-07
     TRS4 it   4 1.00000000   0.212E+00       0.000       32.256   0.100E-07
     TRS4 it   5 1.00000000   0.676E-01       0.000       32.256   0.100E-07
     TRS4 it   6 1.00000000   0.858E-02       0.000       32.256   0.100E-07
     TRS4 it   7 1.00000000   0.183E-03       0.000       32.256   0.100E-07
     TRS4 it   8 1.00000000   0.116E-06       0.000       32.256   0.100E-07
     TRS4 it   9 1.00000000   0.578E-13       0.000       32.256   0.100E-07
     Final TRS4 iteration    9 1.00000000   0.578E-13
     Chemical potential (mu):       0.01326
 
 PAO| energy:  -7.7917666160510715      penalty:   1.4572274381513894E-005
 PAO|LS| adapt:  T T F
 PAO|LS| adapt: scan_steps:    0.0000000000000000       0.42543709794036438        0.0000000000000000     
 PAO|LS| adapt: energies:   -7.7916036660759875       -7.7917666160510715        0.0000000000000000     
 PAO| ======================= Iteration:        21 =============================

     Lanczos converged:  T threshold:   0.100E-02
     Est. extremal eigenvalues:    0.277E+01   0.181E+00
     Est. condition number :    0.153E+02

 Order=           3
     NS sqrt iter    1 1.00000000   0.705E+00       0.001       64.512
     NS sqrt iter    2 1.00000000   0.329E+00       0.001      110.592
     NS sqrt iter    3 1.00000000   0.752E-01       0.001      110.592
     NS sqrt iter    4 1.00000000   0.183E-02       0.001      110.592
     NS sqrt iter    5 1.00000000   0.549E-07       0.001       71.168
     Symmetrizing Results
     Final NS sqrt iter    5 1.00000000   0.477E-09

     Est. extremal eigenvalues     -0.93623     1.70255  converged:  T
     TRS4 it   1 1.00000000   0.878E+00       0.000       16.128   0.100E-07
     TRS4 it   2 1.00000000   0.618E+00       0.000       32.256   0.100E-07
     TRS4 it   3 1.00000000   0.420E+00       0.000       32.256   0.100E-07
     TRS4 it   4 1.00000000   0.212E+00       0.000       32.256   0.100E-07
     TRS4 it   5 1.00000000   0.674E-01       0.000       32.256   0.100E-07
     TRS4 it   6 1.00000000   0.857E-02       0.000       32.256   0.100E-07
     TRS4 it   7 1.00000000   0.184E-03       0.000       32.256   0.100E-07
     TRS4 it   8 1.00000000   0.120E-06       0.000       32.256   0.100E-07
     TRS4 it   9 1.00000000   0.627E-13       0.000       32.256   0.100E-07
     Final TRS4 iteration    9 1.00000000   0.627E-13
     Chemical potential (mu):       0.01271
 
 PAO| energy:  -7.7916300965115335      penalty:   1.4054460606868708E-005
 PAO|LS| Need extra step
 PAO|LS| adapt:  T T T
 PAO|LS| adapt: scan_steps:    0.0000000000000000       0.42543709794036438       0.85087419588072877     
 PAO|LS| adapt: energies:   -7.7916036660759875       -7.7917666160510715       -7.7916300965115335     
 PAO|LS| adapt: suggested step_size:   0.44421110872768554     
 PAO|LS| adapt: predicted energy  -7.7917669076366449     
 PAO| ======================= Iteration:        22 =============================

     Lanczos converged:  T threshold:   0.100E-02
     Est. extremal eigenvalues:    0.276E+01   0.181E+00
     Est. condition number :    0.153E+02

 Order=           3
     NS sqrt iter    1 1.00000000   0.705E+00       0.001       64.512
     NS sqrt iter    2 1.00000000   0.329E+00       0.001      110.592
     NS sqrt iter    3 1.00000000   0.748E-01       0.001      110.592
     NS sqrt iter    4 1.00000000   0.181E-02       0.001      110.592
     NS sqrt iter    5 1.00000000   0.539E-07       0.001       70.784
     Symmetrizing Results
     Final NS sqrt iter    5 1.00000000   0.469E-09

     Est. extremal eigenvalues     -0.93623     1.70200  converged:  T
     TRS4 it   1 1.00000000   0.878E+00       0.000       16.128   0.100E-07
     TRS4 it   2 1.00000000   0.618E+00       0.000       32.256   0.100E-07
     TRS4 it   3 1.00000000   0.420E+00       0.000       32.256   0.100E-07
     TRS4 it   4 1.00000000   0.212E+00       0.000       32.256   0.100E-07
     TRS4 it   5 1.00000000   0.676E-01       0.000       32.256   0.100E-07
     TRS4 it   6 1.00000000   0.858E-02       0.000       32.256   0.100E-07
     TRS4 it   7 1.00000000   0.183E-03       0.000       32.256   0.100E-07
     TRS4 it   8 1.00000000   0.116E-06       0.000       32.256   0.100E-07
     TRS4 it   9 1.00000000   0.585E-13       0.000       32.256   0.100E-07
     Final TRS4 iteration    9 1.00000000   0.585E-13
     Chemical potential (mu):       0.01323
 
 PAO| energy:  -7.7917669430832417      penalty:   1.4548389084411295E-005
 PAO|CG| trace_G_new    2.2326706449784964E-004
 PAO|CG| trace_G_prev    7.3070758215569532E-004
 PAO|CG| trace_G_mix    3.0517541903693684E-006
 PAO|CG| trace_D    9.9311796346829165E-004
 PAO|CG| trace_D_Gnew  -1.8812837256001756E-006
 PAO|CG| beta:   0.30137269091667634     
 PAO| norm of gradient:   1.4942123828219656E-002
 PAO| energy improvement:  -1.6327700725415895E-004
 PAO| step     22                   -7.791766943  0.934E-03  0.444E+00     0.048
 PAO|LS| adapt:  T F F
 PAO|LS| adapt: scan_steps:    0.0000000000000000        0.0000000000000000        0.0000000000000000     
 PAO|LS| adapt: energies:   -7.7917669430832417        0.0000000000000000        0.0000000000000000     
 PAO| ======================= Iteration:        23 =============================

     Lanczos converged:  T threshold:   0.100E-02
     Est. extremal eigenvalues:    0.277E+01   0.181E+00
     Est. condition number :    0.153E+02

 Order=           3
     NS sqrt iter    1 1.00000000   0.705E+00       0.001       64.512
     NS sqrt iter    2 1.00000000   0.329E+00       0.001      110.592
     NS sqrt iter    3 1.00000000   0.748E-01       0.001      110.592
     NS sqrt iter    4 1.00000000   0.181E-02       0.001      110.592
     NS sqrt iter    5 1.00000000   0.540E-07       0.001       70.912
     Symmetrizing Results
     Final NS sqrt iter    5 1.00000000   0.474E-09

     Est. extremal eigenvalues     -0.93623     1.70195  converged:  T
     TRS4 it   1 1.00000000   0.878E+00       0.000       16.128   0.100E-07
     TRS4 it   2 1.00000000   0.618E+00       0.000       32.256   0.100E-07
     TRS4 it   3 1.00000000   0.420E+00       0.000       32.256   0.100E-07
     TRS4 it   4 1.00000000   0.212E+00       0.000       32.256   0.100E-07
     TRS4 it   5 1.00000000   0.677E-01       0.000       32.256   0.100E-07
     TRS4 it   6 1.00000000   0.862E-02       0.000       32.256   0.100E-07
     TRS4 it   7 1.00000000   0.185E-03       0.000       32.256   0.100E-07
     TRS4 it   8 1.00000000   0.119E-06       0.000       32.256   0.100E-07
     TRS4 it   9 1.00000000   0.606E-13       0.000       32.256   0.100E-07
     Final TRS4 iteration    9 1.00000000   0.606E-13
     Chemical potential (mu):       0.01292
 
 PAO| energy:  -7.7918163665651603      penalty:   1.3865561330324499E-005
 PAO|LS| adapt:  T T F
 PAO|LS| adapt: scan_steps:    0.0000000000000000       0.44421110872768554        0.0000000000000000     
 PAO|LS| adapt: energies:   -7.7917669430832417       -7.7918163665651603        0.0000000000000000     
 PAO| ======================= Iteration:        24 =============================

     Lanczos converged:  T threshold:   0.100E-02
     Est. extremal eigenvalues:    0.277E+01   0.181E+00
     Est. condition number :    0.153E+02

 Order=           3
     NS sqrt iter    1 1.00000000   0.705E+00       0.001       64.512
     NS sqrt iter    2 1.00000000   0.329E+00       0.001      110.592
     NS sqrt iter    3 1.00000000   0.749E-01       0.001      110.592
     NS sqrt iter    4 1.00000000   0.181E-02       0.001      110.592
     NS sqrt iter    5 1.00000000   0.541E-07       0.001       70.912
     Symmetrizing Results
     Final NS sqrt iter    5 1.00000000   0.479E-09

     Est. extremal eigenvalues     -0.93623     1.70190  converged:  T
     TRS4 it   1 1.00000000   0.878E+00       0.000       16.128   0.100E-07
     TRS4 it   2 1.00000000   0.618E+00       0.000       32.256   0.100E-07
     TRS4 it   3 1.00000000   0.420E+00       0.000       32.256   0.100E-07
     TRS4 it   4 1.00000000   0.212E+00       0.000       32.256   0.100E-07
     TRS4 it   5 1.00000000   0.678E-01       0.000       32.256   0.100E-07
     TRS4 it   6 1.00000000   0.866E-02       0.000       32.256   0.100E-07
     TRS4 it   7 1.00000000   0.187E-03       0.000       32.256   0.100E-07
     TRS4 it   8 1.00000000   0.122E-06       0.000       32.256   0.100E-07
     TRS4 it   9 1.00000000   0.650E-13       0.000       32.256   0.100E-07
     Final TRS4 iteration    9 1.00000000   0.650E-13
     Chemical potential (mu):       0.01262
 
 PAO| energy:  -7.7917651388227984      penalty:   1.3211097272267304E-005
 PAO|LS| adapt:  T T T
 PAO|LS| adapt: scan_steps:    0.0000000000000000       0.44421110872768554       0.88842221745537109     
 PAO|LS| adapt: energies:   -7.7917669430832417       -7.7918163665651603       -7.7917651388227984     
 PAO|LS| adapt: suggested step_size:   0.44022967413675623     
 PAO|LS| adapt: predicted energy  -7.7918163706080268     
 PAO| ======================= Iteration:        25 =============================

     Lanczos converged:  T threshold:   0.100E-02
     Est. extremal eigenvalues:    0.277E+01   0.181E+00
     Est. condition number :    0.153E+02

 Order=           3
     NS sqrt iter    1 1.00000000   0.705E+00       0.001       64.512
     NS sqrt iter    2 1.00000000   0.329E+00       0.001      110.592
     NS sqrt iter    3 1.00000000   0.748E-01       0.001      110.592
     NS sqrt iter    4 1.00000000   0.181E-02       0.001      110.592
     NS sqrt iter    5 1.00000000   0.540E-07       0.001       70.912
     Symmetrizing Results
     Final NS sqrt iter    5 1.00000000   0.474E-09

     Est. extremal eigenvalues     -0.93623     1.70195  converged:  T
     TRS4 it   1 1.00000000   0.878E+00       0.000       16.128   0.100E-07
     TRS4 it   2 1.00000000   0.618E+00       0.000       32.256   0.100E-07
     TRS4 it   3 1.00000000   0.420E+00       0.000       32.256   0.100E-07
     TRS4 it   4 1.00000000   0.212E+00       0.000       32.256   0.100E-07
     TRS4 it   5 1.00000000   0.677E-01       0.000       32.256   0.100E-07
     TRS4 it   6 1.00000000   0.862E-02       0.000       32.256   0.100E-07
     TRS4 it   7 1.00000000   0.185E-03       0.000       32.256   0.100E-07
     TRS4 it   8 1.00000000   0.119E-06       0.000       32.256   0.100E-07
     TRS4 it   9 1.00000000   0.612E-13       0.000       32.256   0.100E-07
     Final TRS4 iteration    9 1.00000000   0.612E-13
     Chemical potential (mu):       0.01293
 
 PAO| energy:  -7.7918163691759688      penalty:   1.3871554589355308E-005
 PAO|CG| trace_G_new    7.9827476678131151E-005
 PAO|CG| trace_G_prev    2.2326706449784964E-004
 PAO|CG| trace_G_mix    7.0744132231600509E-007
 PAO|CG| trace_D    3.1460143400477078E-004
 PAO|CG| trace_D_Gnew  -3.5967895587842666E-007
 PAO|CG| beta:   0.35437396704150770     
 PAO| norm of gradient:   8.9346223578913031E-003
 PAO| energy improvement:  -4.9426092727067328E-005
 PAO| step     25                   -7.791816369  0.558E-03  0.440E+00     0.037
 PAO|LS| adapt:  T F F
 PAO|LS| adapt: scan_steps:    0.0000000000000000        0.0000000000000000        0.0000000000000000     
 PAO|LS| adapt: energies:   -7.7918163691759688        0.0000000000000000        0.0000000000000000     
 PAO| ======================= Iteration:        26 =============================

     Lanczos converged:  T threshold:   0.100E-02
     Est. extremal eigenvalues:    0.276E+01   0.181E+00
     Est. condition number :    0.153E+02

 Order=           3
     NS sqrt iter    1 1.00000000   0.705E+00       0.001       64.512
     NS sqrt iter    2 1.00000000   0.328E+00       0.001      110.592
     NS sqrt iter    3 1.00000000   0.747E-01       0.001      110.592
     NS sqrt iter    4 1.00000000   0.181E-02       0.001      110.592
     NS sqrt iter    5 1.00000000   0.537E-07       0.001       70.656
     Symmetrizing Results
     Final NS sqrt iter    5 1.00000000   0.467E-09

     Est. extremal eigenvalues     -0.93624     1.70176  converged:  T
     TRS4 it   1 1.00000000   0.878E+00       0.000       16.128   0.100E-07
     TRS4 it   2 1.00000000   0.618E+00       0.000       32.256   0.100E-07
     TRS4 it   3 1.00000000   0.420E+00       0.000       32.256   0.100E-07
     TRS4 it   4 1.00000000   0.212E+00       0.000       32.256   0.100E-07
     TRS4 it   5 1.00000000   0.676E-01       0.000       32.256   0.100E-07
     TRS4 it   6 1.00000000   0.861E-02       0.000       32.256   0.100E-07
     TRS4 it   7 1.00000000   0.184E-03       0.000       32.256   0.100E-07
     TRS4 it   8 1.00000000   0.118E-06       0.000       32.256   0.100E-07
     TRS4 it   9 1.00000000   0.603E-13       0.000       32.256   0.100E-07
     Final TRS4 iteration    9 1.00000000   0.603E-13
     Chemical potential (mu):       0.01304
 
 PAO| energy:  -7.7918204414111552      penalty:   1.3150556070943413E-005
 PAO|LS| adapt:  T T F
 PAO|LS| adapt: scan_steps:    0.0000000000000000       0.44022967413675623        0.0000000000000000     
 PAO|LS| adapt: energies:   -7.7918163691759688       -7.7918204414111552        0.0000000000000000     
 PAO| ======================= Iteration:        27 =============================

     Lanczos converged:  T threshold:   0.100E-02
     Est. extremal eigenvalues:    0.276E+01   0.181E+00
     Est. condition number :    0.152E+02

 Order=           3
     NS sqrt iter    1 1.00000000   0.704E+00       0.001       64.512
     NS sqrt iter    2 1.00000000   0.328E+00       0.001      110.592
     NS sqrt iter    3 1.00000000   0.746E-01       0.001      110.592
     NS sqrt iter    4 1.00000000   0.180E-02       0.001      110.592
     NS sqrt iter    5 1.00000000   0.534E-07       0.001       70.528
     Symmetrizing Results
     Final NS sqrt iter    5 1.00000000   0.466E-09

     Est. extremal eigenvalues     -0.93624     1.70156  converged:  T
     TRS4 it   1 1.00000000   0.878E+00       0.000       16.128   0.100E-07
     TRS4 it   2 1.00000000   0.618E+00       0.000       32.256   0.100E-07
     TRS4 it   3 1.00000000   0.420E+00       0.000       32.256   0.100E-07
     TRS4 it   4 1.00000000   0.212E+00       0.000       32.256   0.100E-07
     TRS4 it   5 1.00000000   0.675E-01       0.000       32.256   0.100E-07
     TRS4 it   6 1.00000000   0.859E-02       0.000       32.256   0.100E-07
     TRS4 it   7 1.00000000   0.183E-03       0.000       32.256   0.100E-07
     TRS4 it   8 1.00000000   0.117E-06       0.000       32.256   0.100E-07
     TRS4 it   9 1.00000000   0.587E-13       0.000       32.256   0.100E-07
     Final TRS4 iteration    9 1.00000000   0.587E-13
     Chemical potential (mu):       0.01316
 
 PAO| energy:  -7.7917621559969712      penalty:   1.2453047644700494E-005
 PAO|LS| adapt:  T T T
 PAO|LS| adapt: scan_steps:    0.0000000000000000       0.44022967413675623       0.88045934827351247     
 PAO|LS| adapt: energies:   -7.7918163691759688       -7.7918204414111552       -7.7917621559969712     
 PAO|LS| adapt: suggested step_size:   0.24886381633901170     
 PAO|LS| adapt: predicted energy  -7.7918263329673767     
 PAO| ======================= Iteration:        28 =============================

     Lanczos converged:  T threshold:   0.100E-02
     Est. extremal eigenvalues:    0.277E+01   0.181E+00
     Est. condition number :    0.153E+02

 Order=           3
     NS sqrt iter    1 1.00000000   0.705E+00       0.001       64.512
     NS sqrt iter    2 1.00000000   0.329E+00       0.001      110.592
     NS sqrt iter    3 1.00000000   0.747E-01       0.001      110.592
     NS sqrt iter    4 1.00000000   0.181E-02       0.001      110.592
     NS sqrt iter    5 1.00000000   0.538E-07       0.001       70.912
     Symmetrizing Results
     Final NS sqrt iter    5 1.00000000   0.473E-09

     Est. extremal eigenvalues     -0.93624     1.70184  converged:  T
     TRS4 it   1 1.00000000   0.878E+00       0.000       16.128   0.100E-07
     TRS4 it   2 1.00000000   0.618E+00       0.000       32.256   0.100E-07
     TRS4 it   3 1.00000000   0.420E+00       0.000       32.256   0.100E-07
     TRS4 it   4 1.00000000   0.212E+00       0.000       32.256   0.100E-07
     TRS4 it   5 1.00000000   0.676E-01       0.000       32.256   0.100E-07
     TRS4 it   6 1.00000000   0.861E-02       0.000       32.256   0.100E-07
     TRS4 it   7 1.00000000   0.184E-03       0.000       32.256   0.100E-07
     TRS4 it   8 1.00000000   0.119E-06       0.000       32.256   0.100E-07
     TRS4 it   9 1.00000000   0.600E-13       0.000       32.256   0.100E-07
     Final TRS4 iteration    9 1.00000000   0.600E-13
     Chemical potential (mu):       0.01299
 
 PAO| energy:  -7.7918263237477365      penalty:   1.3461065995842645E-005
 PAO|CG| trace_G_new    3.1386956459167415E-005
 PAO|CG| trace_G_prev    7.9827476678131151E-005
 PAO|CG| trace_G_mix    5.0432009892529566E-008
 PAO|CG| trace_D    1.1959033229803009E-004
 PAO|CG| trace_D_Gnew  -2.5573003136313672E-008
 PAO|CG| beta:   0.39255311270360588     
 PAO| norm of gradient:   5.6024063097179421E-003
 PAO| energy improvement:  -9.9545717677784751E-006
 PAO| step     28                   -7.791826324  0.350E-03  0.249E+00     0.036
 PAO|LS| adapt:  T F F
 PAO|LS| adapt: scan_steps:    0.0000000000000000        0.0000000000000000        0.0000000000000000     
 PAO|LS| adapt: energies:   -7.7918263237477365        0.0000000000000000        0.0000000000000000     
 PAO| ======================= Iteration:        29 =============================

     Lanczos converged:  T threshold:   0.100E-02
     Est. extremal eigenvalues:    0.276E+01   0.181E+00
     Est. condition number :    0.153E+02

 Order=           3
     NS sqrt iter    1 1.00000000   0.704E+00       0.001       64.512
     NS sqrt iter    2 1.00000000   0.328E+00       0.001      110.592
     NS sqrt iter    3 1.00000000   0.747E-01       0.001      110.592
     NS sqrt iter    4 1.00000000   0.181E-02       0.001      110.592
     NS sqrt iter    5 1.00000000   0.538E-07       0.001       70.656
     Symmetrizing Results
     Final NS sqrt iter    5 1.00000000   0.467E-09

     Est. extremal eigenvalues     -0.93624     1.70183  converged:  T
     TRS4 it   1 1.00000000   0.878E+00       0.000       16.128   0.100E-07
     TRS4 it   2 1.00000000   0.618E+00       0.000       32.256   0.100E-07
     TRS4 it   3 1.00000000   0.420E+00       0.000       32.256   0.100E-07
     TRS4 it   4 1.00000000   0.212E+00       0.000       32.256   0.100E-07
     TRS4 it   5 1.00000000   0.675E-01       0.000       32.256   0.100E-07
     TRS4 it   6 1.00000000   0.859E-02       0.000       32.256   0.100E-07
     TRS4 it   7 1.00000000   0.184E-03       0.000       32.256   0.100E-07
     TRS4 it   8 1.00000000   0.117E-06       0.000       32.256   0.100E-07
     TRS4 it   9 1.00000000   0.590E-13       0.000       32.256   0.100E-07
     Final TRS4 iteration    9 1.00000000   0.590E-13
     Chemical potential (mu):       0.01312
 
 PAO| energy:  -7.7918332121067220      penalty:   1.3032200989260162E-005
 PAO|LS| adapt:  T T F
 PAO|LS| adapt: scan_steps:    0.0000000000000000       0.24886381633901170        0.0000000000000000     
 PAO|LS| adapt: energies:   -7.7918263237477365       -7.7918332121067220        0.0000000000000000     
 PAO| ======================= Iteration:        30 =============================

     Lanczos converged:  T threshold:   0.100E-02
     Est. extremal eigenvalues:    0.276E+01   0.181E+00
     Est. condition number :    0.153E+02

 Order=           3
     NS sqrt iter    1 1.00000000   0.704E+00       0.001       64.512
     NS sqrt iter    2 1.00000000   0.328E+00       0.001      110.592
     NS sqrt iter    3 1.00000000   0.746E-01       0.001      110.592
     NS sqrt iter    4 1.00000000   0.181E-02       0.001      110.592
     NS sqrt iter    5 1.00000000   0.537E-07       0.001       70.656
     Symmetrizing Results
     Final NS sqrt iter    5 1.00000000   0.467E-09

     Est. extremal eigenvalues     -0.93624     1.70181  converged:  T
     TRS4 it   1 1.00000000   0.878E+00       0.000       16.128   0.100E-07
     TRS4 it   2 1.00000000   0.618E+00       0.000       32.256   0.100E-07
     TRS4 it   3 1.00000000   0.420E+00       0.000       32.256   0.100E-07
     TRS4 it   4 1.00000000   0.212E+00       0.000       32.256   0.100E-07
     TRS4 it   5 1.00000000   0.675E-01       0.000       32.256   0.100E-07
     TRS4 it   6 1.00000000   0.857E-02       0.000       32.256   0.100E-07
     TRS4 it   7 1.00000000   0.183E-03       0.000       32.256   0.100E-07
     TRS4 it   8 1.00000000   0.116E-06       0.000       32.256   0.100E-07
     TRS4 it   9 1.00000000   0.573E-13       0.000       32.256   0.100E-07
     Final TRS4 iteration    9 1.00000000   0.573E-13
     Chemical potential (mu):       0.01325
 
 PAO| energy:  -7.7918382501429377      penalty:   1.2611075240992727E-005
 PAO|LS| adapt:  T T F
 PAO|LS| adapt: scan_steps:    0.0000000000000000       0.49772763267802339        0.0000000000000000     
 PAO|LS| adapt: energies:   -7.7918263237477365       -7.7918382501429377        0.0000000000000000     
 PAO| ======================= Iteration:        31 =============================

     Lanczos converged:  T threshold:   0.100E-02
     Est. extremal eigenvalues:    0.276E+01   0.181E+00
     Est. condition number :    0.153E+02

 Order=           3
     NS sqrt iter    1 1.00000000   0.704E+00       0.001       64.512
     NS sqrt iter    2 1.00000000   0.328E+00       0.001      110.592
     NS sqrt iter    3 1.00000000   0.745E-01       0.001      110.592
     NS sqrt iter    4 1.00000000   0.180E-02       0.001      110.592
     NS sqrt iter    5 1.00000000   0.536E-07       0.001       70.784
     Symmetrizing Results
     Final NS sqrt iter    5 1.00000000   0.456E-09

     Est. extremal eigenvalues     -0.93624     1.70178  converged:  T
     TRS4 it   1 1.00000000   0.879E+00       0.000       16.128   0.100E-07
     TRS4 it   2 1.00000000   0.618E+00       0.000       32.256   0.100E-07
     TRS4 it   3 1.00000000   0.420E+00       0.000       32.256   0.100E-07
     TRS4 it   4 1.00000000   0.212E+00       0.000       32.256   0.100E-07
     TRS4 it   5 1.00000000   0.673E-01       0.000       32.256   0.100E-07
     TRS4 it   6 1.00000000   0.853E-02       0.000       32.256   0.100E-07
     TRS4 it   7 1.00000000   0.181E-03       0.000       32.256   0.100E-07
     TRS4 it   8 1.00000000   0.113E-06       0.000       32.256   0.100E-07
     TRS4 it   9 1.00000000   0.549E-13       0.000       32.256   0.100E-07
     Final TRS4 iteration    9 1.00000000   0.549E-13
     Chemical potential (mu):       0.01350
 
 PAO| energy:  -7.7918427755796733      penalty:   1.1791886206214987E-005
 PAO|LS| Need extra step
 PAO|LS| adapt:  T T F
 PAO|LS| adapt: scan_steps:    0.0000000000000000       0.99545526535604678        0.0000000000000000     
 PAO|LS| adapt: energies:   -7.7918263237477365       -7.7918427755796733        0.0000000000000000     
 PAO| ======================= Iteration:        32 =============================

     Lanczos converged:  T threshold:   0.100E-02
     Est. extremal eigenvalues:    0.276E+01   0.181E+00
     Est. condition number :    0.153E+02

 Order=           3
[...]

     Lanczos converged:  T threshold:   0.100E-02
     Est. extremal eigenvalues:    0.249E+01   0.191E+00
     Est. condition number :    0.131E+02

 Order=           3
     NS sqrt iter    1 1.00000000   0.632E+00       0.002       30.372
     NS sqrt iter    2 1.00000000   0.275E+00       0.002       65.755
     NS sqrt iter    3 1.00000000   0.485E-01       0.002       66.792
     NS sqrt iter    4 1.00000000   0.754E-03       0.002       68.841
     NS sqrt iter    5 1.00000000   0.562E-08       0.001       26.149
     Symmetrizing Results
     Final NS sqrt iter    5 1.00000000   0.332E-09

     Est. extremal eigenvalues     -0.93592     1.62945  converged:  T
     TRS4 it   1 1.00000000   0.881E+00       0.001       16.128   0.100E-07
     TRS4 it   2 1.00000000   0.632E+00       0.001       31.844   0.100E-07
     TRS4 it   3 1.00000000   0.453E+00       0.001       32.256   0.100E-07
     TRS4 it   4 1.00000000   0.276E+00       0.001       32.256   0.100E-07
     TRS4 it   5 1.00000000   0.135E+00       0.001       32.256   0.100E-07
     TRS4 it   6 1.00000000   0.413E-01       0.001       32.256   0.100E-07
     TRS4 it   7 1.00000000   0.531E-02       0.001       32.256   0.100E-07
     TRS4 it   8 1.00000000   0.119E-03       0.001       32.256   0.100E-07
     TRS4 it   9 1.00000000   0.632E-07       0.001       32.256   0.100E-07
     Final TRS4 iteration    9 1.00000000   0.632E-07
     Chemical potential (mu):      -0.07232
 
 PAO| energy:  -7.7909112341928557      penalty:   2.8999165847411720E-008
 PAO|CG| warming up with steepest descent
 PAO|CG| beta:    0.0000000000000000     
 PAO| norm of gradient:   1.3573028225472486E-004
 PAO| energy improvement:  -5.6456643804381201E-009
 PAO| step    412                   -7.790911234  0.848E-05  0.262E+00     0.163
 PAO| converged after          412  steps :-)
 PAO| Recalculating energy after mixing.

     Lanczos converged:  T threshold:   0.100E-02
     Est. extremal eigenvalues:    0.249E+01   0.191E+00
     Est. condition number :    0.131E+02

 Order=           3
     NS sqrt iter    1 1.00000000   0.632E+00       0.001       61.562
     NS sqrt iter    2 1.00000000   0.275E+00       0.001      110.592
     NS sqrt iter    3 1.00000000   0.485E-01       0.001      110.592
     NS sqrt iter    4 1.00000000   0.754E-03       0.001      107.672
     NS sqrt iter    5 1.00000000   0.562E-08       0.001       38.272
     Symmetrizing Results
     Final NS sqrt iter    5 1.00000000   0.332E-09

     Est. extremal eigenvalues     -0.93592     1.62945  converged:  T
     TRS4 it   1 1.00000000   0.881E+00       0.000       16.128   0.100E-07
     TRS4 it   2 1.00000000   0.632E+00       0.001       32.256   0.100E-07
     TRS4 it   3 1.00000000   0.453E+00       0.001       32.256   0.100E-07
     TRS4 it   4 1.00000000   0.276E+00       0.001       32.256   0.100E-07
     TRS4 it   5 1.00000000   0.135E+00       0.001       32.256   0.100E-07
     TRS4 it   6 1.00000000   0.413E-01       0.001       32.256   0.100E-07
     TRS4 it   7 1.00000000   0.531E-02       0.001       32.256   0.100E-07
     TRS4 it   8 1.00000000   0.119E-03       0.001       32.256   0.100E-07
     TRS4 it   9 1.00000000   0.632E-07       0.001       32.256   0.100E-07
     Final TRS4 iteration    9 1.00000000   0.632E-07
     Chemical potential (mu):      -0.07232
 
 PAO| energy:  -7.7909112327814265      penalty:   2.9306915452095976E-008
 PAO| Writing restart file.
     Est. extremal eigenvalues     -0.93592     1.62945  converged:  T
     TRS4 it   1 1.00000000   0.881E+00       0.000       16.128   0.100E-07
     TRS4 it   2 1.00000000   0.632E+00       0.001       32.256   0.100E-07
     TRS4 it   3 1.00000000   0.453E+00       0.001       32.256   0.100E-07
     TRS4 it   4 1.00000000   0.276E+00       0.001       32.256   0.100E-07
     TRS4 it   5 1.00000000   0.135E+00       0.001       32.256   0.100E-07
     TRS4 it   6 1.00000000   0.413E-01       0.001       32.256   0.100E-07
     TRS4 it   7 1.00000000   0.531E-02       0.001       32.256   0.100E-07
     TRS4 it   8 1.00000000   0.119E-03       0.001       32.256   0.100E-07
     TRS4 it   9 1.00000000   0.632E-07       0.001       32.256   0.100E-07
     Final TRS4 iteration    9 1.00000000   0.632E-07
     Chemical potential (mu):      -0.07232

 SCF     1       -34.450322504       -34.450322504    2.651698

*********************************************************
 Using MIXING_FRACTION=0.450 to mix KS matrix:  iscf=  2
 KS_nw=0.450*KS + 0.550*KS_old
*********************************************************
     Est. extremal eigenvalues     -0.93593     1.62945  converged:  T
     TRS4 it   1 1.00000000   0.881E+00       0.000       16.128   0.100E-07
     TRS4 it   2 1.00000000   0.632E+00       0.000       32.256   0.100E-07
     TRS4 it   3 1.00000000   0.453E+00       0.000       32.256   0.100E-07
     TRS4 it   4 1.00000000   0.276E+00       0.000       32.256   0.100E-07
     TRS4 it   5 1.00000000   0.135E+00       0.000       32.256   0.100E-07
     TRS4 it   6 1.00000000   0.413E-01       0.000       32.256   0.100E-07
     TRS4 it   7 1.00000000   0.531E-02       0.000       32.256   0.100E-07
     TRS4 it   8 1.00000000   0.119E-03       0.000       32.256   0.100E-07
     TRS4 it   9 1.00000000   0.632E-07       0.000       32.256   0.100E-07
     Final TRS4 iteration    9 1.00000000   0.632E-07
     Chemical potential (mu):      -0.07233

 SCF     2       -34.450322504        -0.000000000    1.030236


 SCF run converged in     2 steps.

 PAO| Storing density matrix for ASPC guess in slot:           1

 ENERGY| Total FORCE_EVAL ( QS ) energy [a.u.]:              -34.450322504185479

 -------------------------------------------------------------------------------
 -                                                                             -
 -                                DBCSR STATISTICS                             -
 -                                                                             -
 -------------------------------------------------------------------------------
 COUNTER                                    TOTAL       BLAS       SMM       ACC
 flops     5 x     5 x     4                20000       0.0%    100.0%      0.0%
 flops    13 x     5 x     4                20800       0.0%    100.0%      0.0%
 flops     5 x    13 x     4                20800       0.0%    100.0%      0.0%
 flops    13 x    13 x     4                40560       0.0%    100.0%      0.0%
 flops     4 x     4 x     5              3237120       0.0%    100.0%      0.0%
 flops     5 x     4 x     5              3955200       0.0%    100.0%      0.0%
 flops     4 x     4 x    13              4208256       0.0%    100.0%      0.0%
 flops    13 x     4 x     5              5141760       0.0%    100.0%      0.0%
 flops     5 x     4 x    13              5141760       0.0%    100.0%      0.0%
 flops     5 x     4 x     4              6550880       0.0%    100.0%      0.0%
 flops    13 x     4 x    13              6684288       0.0%    100.0%      0.0%
 flops    13 x     4 x     4              8804640       0.0%    100.0%      0.0%
 flops     4 x     4 x     4            412601728       0.0%    100.0%      0.0%
 flops inhomo. stacks                           0       0.0%      0.0%      0.0%
 flops total                       456.427792E+06       0.0%    100.0%      0.0%
 flops max/rank                    456.427792E+06       0.0%    100.0%      0.0%
 matmuls inhomo. stacks                         0       0.0%      0.0%      0.0%
 matmuls total                            3360613       0.0%    100.0%      0.0%
 number of processed stacks                 26848       0.0%    100.0%      0.0%
 average stack size                                     0.0     125.2       0.0
 marketing flops                   740.703360E+06
 -------------------------------------------------------------------------------
 # multiplications                          22317
 max memory usage/rank             506.839040E+06
 # max total images/rank                        1
 # max 3D layers                                1
 # MPI messages exchanged                       0
 -------------------------------------------------------------------------------

 -------------------------------------------------------------------------------
 -                                                                             -
 -                                DBM STATISTICS                               -
 -                                                                             -
 -------------------------------------------------------------------------------
    M  x    N  x    K                                          COUNT     PERCENT
 -------------------------------------------------------------------------------

 -------------------------------------------------------------------------------
 -                                                                             -
 -                                GRID STATISTICS                              -
 -                                                                             -
 -------------------------------------------------------------------------------
 LP    KERNEL             BACKEND                              COUNT     PERCENT
 2     collocate ortho    REF                                  37950      30.66%
 2     integrate ortho    REF                                  37950      30.66%
 3     collocate ortho    REF                                  19660      15.88%
 3     integrate ortho    REF                                  19660      15.88%
 4     collocate ortho    REF                                   4270       3.45%
 4     integrate ortho    REF                                   4270       3.45%
 0     collocate general  REF                                      6       0.00%
 -------------------------------------------------------------------------------

 MEMORY| Estimated peak process memory [MiB]                                 484

 -------------------------------------------------------------------------------
 -                                                                             -
 -                           R E F E R E N C E S                               -
 -                                                                             -
 -------------------------------------------------------------------------------
 
 CP2K version 2023.1 (Development Version), the CP2K developers group (2023).
 CP2K is freely available from https://www.cp2k.org/ .

 Kuehne,Thomas D.; Iannuzzi,Marcella; Del Ben,Mauro;
 Rybkin,Vladimir V.; Seewald,Patrick; Stein,Frederick; Laino,Teodoro;
 Khaliullin,Rustam Z.; Schuett,Ole; Schiffmann,Florian; Golze,Dorothea;
 Wilhelm,Jan; Chulkov,Sergey; Bani-Hashemian,Mohammad Hossein;
 Weber,Valery; Borstnik,Urban; Taillefumier,Mathieu;
 Jakobovits,Alice Shoshana; Lazzaro,Alfio; Pabst,Hans; Mueller,Tiziano;
 Schade,Robert; Guidon,Manuel; Andermatt,Samuel; Holmberg,Nico;
 Schenter,Gregory K.; Hehn,Anna; Bussy,Augustin; Belleflamme,Fabian;
 Tabacchi,Gloria; Gloess,Andreas; Lass,Michael; Bethune,Iain;
 Mundy,Christopher J.; Plessl,Christian; Watkins,Matt;
 VandeVondele,Joost; Krack,Matthias; Hutter,Juerg. 
 The Journal of Chemical Physics, 152 (19), (2020). 
 CP2K: An electronic structure and molecular dynamics software package -
 Quickstep: Efficient and accurate electronic structure calculations.
 https://doi.org/10.1063/5.0007045

 Schuett, O; VandeVondele, J. 
 Journal of Chemical Theory and Computation, 14, (2018). 
 Machine Learning Adaptive Basis Sets for Efficient Large Scale
 Density Functional Theory Simulation.
 https://doi.org/10.1021/acs.jctc.8b00378

 Schuett, Ole; Messmer, Peter; Hutter, Juerg; VandeVondele, Joost. 
 Electronic Structure Calculations on Graphics Processing Units, John
 Wiley & Sons, Ltd, 173-190 (2016). 
 GPU-Accelerated Sparse Matrix-Matrix Multiplication for
 Linear Scaling Density Functional Theory.
 https://doi.org/10.1002/9781118670712.ch8

 Heinecke, A; Henry, G; Hutchinson, M; Pabst, H. 
 Proceedings of Intl. Supercomputing Conference, 981-991 (2016). 
 LIBXSMM: Accelerating Small Matrix Multiplications
 by Runtime Code Generation.
 https://doi.org/10.1109/SC.2016.83

 Borstnik, U; VandeVondele, J; Weber, V; Hutter, J. 
 PARALLEL COMPUTING, 40 (5-6), 47-58 (2014). 
 Sparse matrix multiplication: The distributed block-compressed sparse
 row library.
 https://doi.org/10.1016/j.parco.2014.03.012

 Hutter, J; Iannuzzi, M; Schiffmann, F; VandeVondele, J. 
 WIREs Comput Mol Sci., 4 (1), 15-25 (2014). 
 CP2K: atomistic simulations of condensed matter systems.
 https://doi.org/10.1002/wcms.1159

 VandeVondele, J; Borstnik, U; Hutter, J. 
 JOURNAL OF CHEMICAL THEORY AND COMPUTATION, 8 (10), 3565-3573 (2012). 
 Linear Scaling Self-Consistent Field Calculations with Millions of Atoms
 in the Condensed Phase.
 https://doi.org/10.1021/ct200897x

 VandeVondele, J; Hutter, J. 
 JOURNAL OF CHEMICAL PHYSICS, 127 (11), 114105 (2007). 
 Gaussian basis sets for accurate calculations on molecular systems in
 gas and condensed phases.
 https://doi.org/10.1063/1.2770708

 Krack, M. 
 THEORETICAL CHEMISTRY ACCOUNTS, 114 (1-3), 145-152 (2005). 
 Pseudopotentials for H to Kr optimized for gradient-corrected
 exchange-correlation functionals.
 https://doi.org/10.1007/s00214-005-0655-y

 VandeVondele, J; Krack, M; Mohamed, F; Parrinello, M; Chassaing, T;
 Hutter, J. COMPUTER PHYSICS COMMUNICATIONS, 167 (2), 103-128 (2005). 
 QUICKSTEP: Fast and accurate density functional calculations using a
 mixed Gaussian and plane waves approach.
 https://doi.org/10.1016/j.cpc.2004.12.014

 Frigo, M; Johnson, SG. 
 PROCEEDINGS OF THE IEEE, 93 (2), 216-231 (2005). 
 The design and implementation of FFTW3.
 https://doi.org/10.1109/JPROC.2004.840301

 Niklasson, AMN; Tymczak, CJ; Challacombe, M. 
 JOURNAL OF CHEMICAL PHYSICS, 118 (19), 8611-8620 (2003). 
 Trace resetting density matrix purification in O(N)
 self-consistent-field theory.
 https://doi.org/10.1063/1.1559913

 Hartwigsen, C; Goedecker, S; Hutter, J. 
 PHYSICAL REVIEW B, 58 (7), 3641-3662 (1998). 
 Relativistic separable dual-space Gaussian pseudopotentials from H to Rn.
 https://doi.org/10.1103/PhysRevB.58.3641

 Lippert, G; Hutter, J; Parrinello, M. 
 MOLECULAR PHYSICS, 92 (3), 477-487 (1997). 
 A hybrid Gaussian and plane wave density functional scheme.
 https://doi.org/10.1080/002689797170220

 Perdew, JP; Burke, K; Ernzerhof, M. 
 PHYSICAL REVIEW LETTERS, 77 (18), 3865-3868 (1996). 
 Generalized gradient approximation made simple.
 https://doi.org/10.1103/PhysRevLett.77.3865

 Goedecker, S; Teter, M; Hutter, J. 
 PHYSICAL REVIEW B, 54 (3), 1703-1710 (1996). 
 Separable dual-space Gaussian pseudopotentials.
 https://doi.org/10.1103/PhysRevB.54.1703


 -------------------------------------------------------------------------------
 -                                                                             -
 -                                T I M I N G                                  -
 -                                                                             -
 -------------------------------------------------------------------------------
 SUBROUTINE                       CALLS  ASD         SELF TIME        TOTAL TIME
                                MAXIMUM       AVERAGE  MAXIMUM  AVERAGE  MAXIMUM
 CP2K                                 1  1.0    0.008    0.008   24.806   24.806
 qs_energies                          1  2.0    0.000    0.000   24.431   24.431
 ls_scf                               1  3.0    0.000    0.000   24.309   24.309
 ls_scf_main                          4  4.0    0.001    0.001   16.874   16.874
 ls_scf_dm_to_ks                      9  5.0    0.000    0.000   16.808   16.808
 qs_ks_update_qs_env                 10  6.0    0.000    0.000   14.621   14.621
 rebuild_ks_matrix                   10  7.0    0.000    0.000   14.621   14.621
 qs_ks_build_kohn_sham_matrix        10  8.0    0.002    0.002   14.621   14.621
 qs_vxc_create                       10  9.0    0.000    0.000    9.214    9.214
 xc_vxc_pw_create                    10 10.0    0.184    0.184    9.214    9.214
 pw_transfer                        191 11.1    0.019    0.019    7.339    7.339
 fft_wrap_pw1pw2                    171 12.3    0.003    0.003    7.158    7.158
 fft_wrap_pw1pw2_200                111 13.7    0.768    0.768    6.959    6.959
 xc_rho_set_and_dset_create          10 11.0    0.222    0.222    5.395    5.395
 xc_pw_derive                        60 12.0    0.001    0.001    5.311    5.311
 pao_update                           4  4.0    0.005    0.005    5.174    5.174
 pao_calc_energy                    415  5.0    0.002    0.002    4.685    4.685
 qs_rho_update_rho_low               10  6.0    0.000    0.000    4.407    4.407
 calculate_rho_elec                  10  7.0    0.033    0.033    4.407    4.407
 sum_up_and_integrate                10  9.0    0.141    0.141    4.199    4.199
 integrate_v_rspace                  10 10.0    0.001    0.001    4.058    4.058
 dbcsr_multiply_generic           22317  8.4    0.233    0.233    3.704    3.704
 xc_pw_divergence                    10 11.0    0.001    0.001    3.496    3.496
 grid_integrate_task_list            10 11.0    3.132    3.132    3.132    3.132
 grid_collocate_task_list            10  8.0    3.022    3.022    3.022    3.022
 fft3d_s                            172 14.2    2.926    2.926    2.939    2.939
 pao_dm_trs4                        415  6.0    0.002    0.002    2.412    2.412
 density_matrix_trs4                424  7.0    0.078    0.078    2.330    2.330
 ls_scf_init_matrix_S               419  7.0    0.002    0.002    2.266    2.266
 pao_rebuild_S                      415  6.0    0.001    0.001    2.239    2.239
 xc_functional_eval                  10 12.0    0.000    0.000    2.226    2.226
 pbe_lda_eval                        10 13.0    2.226    2.226    2.226    2.226
 pao_guess_initial_P                  1  4.0    0.000    0.000    2.225    2.225
 pao_read_preopt_dm                   1  5.0    0.000    0.000    2.225    2.225
 matrix_sqrt_Newton_Schulz          419  8.0    0.059    0.059    2.043    2.043
 pw_scatter_s                        90 14.7    1.721    1.721    1.721    1.721
 pw_gather_s                         81 13.8    1.707    1.707    1.707    1.707
 make_m2s                         44634  9.4    0.088    0.088    1.403    1.403
 multiply_cannon                  22317  9.4    0.558    0.558    1.371    1.371
 density_rs2pw                       10  8.0    0.001    0.001    1.352    1.352
 make_images                      44634 10.4    0.359    0.359    1.247    1.247
 pw_derive                           60 13.0    1.088    1.088    1.088    1.088
 potential_pw2rs                     10 11.0    0.002    0.002    0.925    0.925
 arnoldi_extremal                   843  8.5    0.002    0.002    0.747    0.747
 arnoldi_normal_ev                  843  9.5    0.006    0.006    0.745    0.745
 pw_copy                            120 11.8    0.711    0.711    0.711    0.711
 build_subspace                     843 10.5    0.032    0.032    0.584    0.584
 dbcsr_matrix_vector_mult         20223 11.5    0.065    0.065    0.540    0.540
 -------------------------------------------------------------------------------

 The number of warnings for this run is : 0
 
 -------------------------------------------------------------------------------
  **** **** ******  **  PROGRAM ENDED AT                 2023-02-01 10:45:44.633
 ***** ** ***  *** **   PROGRAM RAN ON                                    moritz
 **    ****   ******    PROGRAM RAN BY                                       ole
 ***** **    ** ** **   PROGRAM PROCESS ID                                148581
  **** **  *******  **  PROGRAM STOPPED IN /home/ole/git/pao_ml_equivar/2H2O_rot
                                           ations/phi_15
