 DBCSR| CPU Multiplication driver                                           BLAS
 DBCSR| Multrec recursion limit                                              512
 DBCSR| Multiplication stack size                                           1000
 DBCSR| Maximum elements for images                                    UNLIMITED
 DBCSR| Multiplicative factor virtual images                                   1
 DBCSR| Use multiplication densification                                       T
 DBCSR| Multiplication size stacks                                             3


  **** **** ******  **  PROGRAM STARTED AT               2019-03-28 17:24:06.414
 ***** ** ***  *** **   PROGRAM STARTED ON        oleschuett.zrh.corp.google.com
 **    ****   ******    PROGRAM STARTED BY                            oleschuett
 ***** **    ** ** **   PROGRAM PROCESS ID                                  4401
  **** **  *******  **  PROGRAM STARTED IN /usr/local/google/home/oleschuett/git
                                           /pao_ml_equivar/2H2O_rotations/phi_06

 CP2K| version string:                    CP2K version 7.0 (Development Version)
 CP2K| source code revision number:                                git:d9814d431
 CP2K| cp2kflags: libint fftw3 libxc libderiv_max_am1=5 libint_max_am=6         
 CP2K| is freely available from                            https://www.cp2k.org/
 CP2K| Program compiled at                          Mon Mar 25 16:50:07 CET 2019
 CP2K| Program compiled on                        oleschuett.zrh.corp.google.com
 CP2K| Program compiled for                                                local
 CP2K| Data directory path       /usr/local/google/home/oleschuett/git/cp2k/data
 CP2K| Input file name                                              2H2O_ref.inp

 GLOBAL| Force Environment number                                              1
 GLOBAL| Basis set file name                                        BASIS_MOLOPT
 GLOBAL| Potential file name                                      GTH_POTENTIALS
 GLOBAL| MM Potential file name                                     MM_POTENTIAL
 GLOBAL| Coordinate file name                                         coords.xyz
 GLOBAL| Method name                                                        CP2K
 GLOBAL| Project name                                                   2H2O_ref
 GLOBAL| Preferred FFT library                                             FFTW3
 GLOBAL| Preferred diagonalization lib.                                       SL
 GLOBAL| Run type                                                         ENERGY
 GLOBAL| All-to-all communication in single precision                          F
 GLOBAL| FFTs using library dependent lengths                                  F
 GLOBAL| Global print level                                                  LOW
 GLOBAL| MPI I/O enabled                                                       T
 GLOBAL| Total number of message passing processes                             1
 GLOBAL| Number of threads for this process                                    1
 GLOBAL| This output is from process                                           0
 GLOBAL| CPU model name :  Intel(R) Xeon(R) CPU E5-1650 v4 @ 3.60GHz

 MEMORY| system memory details [Kb]
 MEMORY|                        rank 0           min           max       average
 MEMORY| MemTotal             65953612      65953612      65953612      65953612
 MEMORY| MemFree               6798820       6798820       6798820       6798820
 MEMORY| Buffers               2547700       2547700       2547700       2547700
 MEMORY| Cached               25356692      25356692      25356692      25356692
 MEMORY| Slab                  3623400       3623400       3623400       3623400
 MEMORY| SReclaimable          2422988       2422988       2422988       2422988
 MEMORY| MemLikelyFree        37126200      37126200      37126200      37126200


 GENERATE|  Preliminary Number of Bonds generated:                             0
 GENERATE|  Achieved consistency in connectivity generation.

 *******************************************************************************
 *******************************************************************************
 **                                                                           **
 **     #####                         ##              ##                      **
 **    ##   ##            ##          ##              ##                      **
 **   ##     ##                       ##            ######                    **
 **   ##     ##  ##   ##  ##   #####  ##  ##   ####   ##    #####    #####    **
 **   ##     ##  ##   ##  ##  ##      ## ##   ##      ##   ##   ##  ##   ##   **
 **   ##  ## ##  ##   ##  ##  ##      ####     ###    ##   ######   ######    **
 **    ##  ###   ##   ##  ##  ##      ## ##      ##   ##   ##       ##        **
 **     #######   #####   ##   #####  ##  ##  ####    ##    #####   ##        **
 **           ##                                                    ##        **
 **                                                                           **
 **                                                ... make the atoms dance   **
 **                                                                           **
 **            Copyright (C) by CP2K developers group (2000 - 2018)           **
 **                                                                           **
 *******************************************************************************


 TOTAL NUMBERS AND MAXIMUM NUMBERS

  Total number of            - Atomic kinds:                                   2
                             - Atoms:                                          6
                             - Shell sets:                                     6
                             - Shells:                                        22
                             - Primitive Cartesian functions:                 42
                             - Cartesian basis functions:                     48
                             - Spherical basis functions:                     46

  Maximum angular momentum of- Orbital basis functions:                        2
                             - Local part of the GTH pseudopotential:          2
                             - Non-local part of the GTH pseudopotential:      0

 ------------------------------ Linear scaling SCF -----------------------------
 eps_scf:                                                              0.100E-07
 eps_filter:                                                           0.100E-07
 mixing_fraction:                                                      0.450E+00
 max_scf:                                                                     25
 fixed chemical potential (mu)                                                 F
 has unit metric:                                                              F
 Computing inv(S):                                                             T
 Computing sqrt(S):                                                            T
 Computing s preconditioner                                                    F
 sign sqrt order:                                                              3
 Extrapolation order:                                                          4
 Use single precision matrices                                                 F
 S preconditioner type                                                      NONE
 Polarized Atomic Orbitals (PAO)                                               F
 Purification method                                   Trace resetting 4th order
 Cluster type                                                             ATOMIC
 Computing Chebyshev                                                       FALSE
 Using PAO                                                                     F
 -------------------------------------------------------------------------------


     Lanczos converged:  T threshold:   0.100E-02
     Est. extremal eigenvalues:    0.407E+01   0.113E-01
     Est. condition number :    0.359E+03
     NS sqrt iter    1 1.00000000   0.105E+01       0.006       84.777
     NS sqrt iter    2 1.00000000   0.617E+00       0.002      343.612
     NS sqrt iter    3 1.00000000   0.342E+00       0.007      118.379
     NS sqrt iter    4 1.00000000   0.234E+00       0.002      406.501
     NS sqrt iter    5 1.00000000   0.117E+00       0.006      137.028
     NS sqrt iter    6 1.00000000   0.143E-01       0.002      407.764
     NS sqrt iter    7 1.00000000   0.338E-04       0.002      314.339
     Final NS sqrt iter    7 1.00000000   0.668E-08



 Guess for atomic kind: O

 Electronic structure
    Total number of core electrons                                          2.00
    Total number of valence electrons                                       6.00
    Total number of electrons                                               8.00
    Multiplicity                                                   not specified
    S   [  2.00] 2.00
    P      4.00


 *******************************************************************************
                  Iteration          Convergence                     Energy [au]
 *******************************************************************************
                          1        0.708315                     -15.576645311500
                          2        0.608879                     -15.587933561584
                          3        0.102828E-01                 -15.656849565404
                          4        0.113889E-02                 -15.656866888140
                          5        0.434197E-03                 -15.656867072159
                          6        0.263771E-03                 -15.656867091904
                          7        0.478536E-06                 -15.656867103452

 Energy components [Hartree]           Total Energy ::          -15.656867103452
                                        Band Energy ::           -3.000198112285
                                     Kinetic Energy ::           11.759971203220
                                   Potential Energy ::          -27.416838306672
                                      Virial (-V/T) ::            2.331369510426
                                        Core Energy ::          -26.140716385623
                                          XC Energy ::           -3.154051012914
                                     Coulomb Energy ::           13.637900295084
                       Total Pseudopotential Energy ::          -37.935781716540
                       Local Pseudopotential Energy ::          -39.218907440693
                    Nonlocal Pseudopotential Energy ::            1.283125724153
                                        Confinement ::            0.350941276976

 Orbital energies  State     L     Occupation   Energy[a.u.]          Energy[eV]

                       1     0          2.000      -0.864471          -23.523463

                       1     1          4.000      -0.317814           -8.648154


 Total Electron Density at R=0:                                         0.000068

 Guess for atomic kind: H

 Electronic structure
    Total number of core electrons                                          0.00
    Total number of valence electrons                                       1.00
    Total number of electrons                                               1.00
    Multiplicity                                                   not specified
    S      1.00


 *******************************************************************************
                  Iteration          Convergence                     Energy [au]
 *******************************************************************************
                          1        0.437545E-02                  -0.424159432110
                          2        0.531356E-03                  -0.424178438213
                          3        0.259176E-06                  -0.424178722480

 Energy components [Hartree]           Total Energy ::           -0.424178722480
                                        Band Energy ::           -0.199015229016
                                     Kinetic Energy ::            0.464007633961
                                   Potential Energy ::           -0.888186356441
                                      Virial (-V/T) ::            1.914163240935
                                        Core Energy ::           -0.479160803564
                                          XC Energy ::           -0.244352904054
                                     Coulomb Energy ::            0.299334985138
                       Total Pseudopotential Energy ::           -0.962295316385
                       Local Pseudopotential Energy ::           -0.962295316385
                    Nonlocal Pseudopotential Energy ::            0.000000000000
                                        Confinement ::            0.191268788606

 Orbital energies  State     L     Occupation   Energy[a.u.]          Energy[eV]

                       1     0          1.000      -0.199015           -5.415480


 Total Electron Density at R=0:                                         0.242907
 Re-scaling the density matrix to get the right number of electrons
                  # Electrons              Trace(P)               Scaling factor
                           16                15.990                        1.001
 Energy with the initial guess:       -34.130273857

     Est. extremal eigenvalues     -1.07108     3.79629  converged:  T
     TRS4 it   1 1.00000000   0.179E+01       0.001      117.484   0.100E-07
     TRS4 it   2 1.00000000   0.157E+01       0.001      117.484   0.100E-07
     TRS4 it   3 1.00000000   0.902E+00       0.001      206.626   0.100E-07
     TRS4 it   4 1.00000000   0.556E+00       0.001      196.664   0.100E-07
     TRS4 it   5 1.00000000   0.331E+00       0.001      218.166   0.100E-07
     TRS4 it   6 1.00000000   0.150E+00       0.001      218.783   0.100E-07
     TRS4 it   7 1.00000000   0.414E-01       0.001      215.077   0.100E-07
     TRS4 it   8 1.00000000   0.396E-02       0.001      217.840   0.100E-07
     TRS4 it   9 1.00000000   0.448E-04       0.001      221.244   0.100E-07
     TRS4 it  10 1.00000000   0.618E-08       0.001      220.299   0.100E-07
     Final TRS4 iteration   10 1.00000000   0.618E-08
     Chemical potential (mu):      -0.22557

 SCF     1       -34.247566056       -34.247566056    2.428753

*********************************************************
 Using MIXING_FRACTION=0.450 to mix KS matrix:  iscf=  2
 KS_nw=0.450*KS + 0.550*KS_old
*********************************************************
     Est. extremal eigenvalues     -0.92800     3.92370  converged:  T
     TRS4 it   1 1.00000000   0.176E+01       0.001      117.484   0.100E-07
     TRS4 it   2 1.00000000   0.160E+01       0.001      117.484   0.100E-07
     TRS4 it   3 1.00000000   0.967E+00       0.001      217.650   0.100E-07
     TRS4 it   4 1.00000000   0.593E+00       0.001      225.197   0.100E-07
     TRS4 it   5 1.00000000   0.395E+00       0.001      223.980   0.100E-07
     TRS4 it   6 1.00000000   0.228E+00       0.001      211.029   0.100E-07
     TRS4 it   7 1.00000000   0.104E+00       0.001      206.690   0.100E-07
     TRS4 it   8 1.00000000   0.283E-01       0.001      178.868   0.100E-07
     TRS4 it   9 1.00000000   0.288E-02       0.001      213.440   0.100E-07
     TRS4 it  10 1.00000000   0.355E-04       0.001      215.618   0.100E-07
     TRS4 it  11 1.00000000   0.561E-08       0.001      183.955   0.100E-07
     Final TRS4 iteration   11 1.00000000   0.561E-08
     Chemical potential (mu):      -0.11206

 SCF     2       -34.440338261        -0.192772205    1.858418

*********************************************************
 Using MIXING_FRACTION=0.450 to mix KS matrix:  iscf=  3
 KS_nw=0.450*KS + 0.550*KS_old
*********************************************************
     Est. extremal eigenvalues     -0.95063     3.91242  converged:  T
     TRS4 it   1 1.00000000   0.177E+01       0.001      117.484   0.100E-07
     TRS4 it   2 1.00000000   0.160E+01       0.001      117.484   0.100E-07
     TRS4 it   3 1.00000000   0.956E+00       0.001      234.968   0.100E-07
     TRS4 it   4 1.00000000   0.591E+00       0.001      234.968   0.100E-07
     TRS4 it   5 1.00000000   0.389E+00       0.001      234.968   0.100E-07
     TRS4 it   6 1.00000000   0.219E+00       0.001      234.968   0.100E-07
     TRS4 it   7 1.00000000   0.945E-01       0.001      234.968   0.100E-07
     TRS4 it   8 1.00000000   0.236E-01       0.001      234.968   0.100E-07
     TRS4 it   9 1.00000000   0.208E-02       0.001      234.968   0.100E-07
     TRS4 it  10 1.00000000   0.193E-04       0.001      234.968   0.100E-07
     TRS4 it  11 1.00000000   0.168E-08       0.001      234.968   0.100E-07
     Final TRS4 iteration   11 1.00000000   0.168E-08
     Chemical potential (mu):      -0.12265

 SCF     3       -34.449989850        -0.009651589    1.808782

*********************************************************
 Using MIXING_FRACTION=0.450 to mix KS matrix:  iscf=  4
 KS_nw=0.450*KS + 0.550*KS_old
*********************************************************
     Est. extremal eigenvalues     -0.93880     3.92483  converged:  T
     TRS4 it   1 1.00000000   0.177E+01       0.000      117.484   0.100E-07
     TRS4 it   2 1.00000000   0.160E+01       0.000      117.484   0.100E-07
     TRS4 it   3 1.00000000   0.960E+00       0.001      234.968   0.100E-07
     TRS4 it   4 1.00000000   0.593E+00       0.001      234.968   0.100E-07
     TRS4 it   5 1.00000000   0.394E+00       0.001      234.968   0.100E-07
     TRS4 it   6 1.00000000   0.225E+00       0.001      234.968   0.100E-07
     TRS4 it   7 1.00000000   0.101E+00       0.001      234.968   0.100E-07
     TRS4 it   8 1.00000000   0.274E-01       0.001      234.968   0.100E-07
     TRS4 it   9 1.00000000   0.288E-02       0.001      234.968   0.100E-07
     TRS4 it  10 1.00000000   0.378E-04       0.001      234.968   0.100E-07
     TRS4 it  11 1.00000000   0.647E-08       0.001      234.968   0.100E-07
     Final TRS4 iteration   11 1.00000000   0.647E-08
     Chemical potential (mu):      -0.11233

 SCF     4       -34.450712144        -0.000722294    2.203181

*********************************************************
 Using MIXING_FRACTION=0.450 to mix KS matrix:  iscf=  5
 KS_nw=0.450*KS + 0.550*KS_old
*********************************************************
     Est. extremal eigenvalues     -0.93906     3.92649  converged:  T
     TRS4 it   1 1.00000000   0.177E+01       0.001      117.484   0.100E-07
     TRS4 it   2 1.00000000   0.160E+01       0.001      117.484   0.100E-07
     TRS4 it   3 1.00000000   0.960E+00       0.001      234.968   0.100E-07
     TRS4 it   4 1.00000000   0.594E+00       0.001      224.619   0.100E-07
     TRS4 it   5 1.00000000   0.394E+00       0.001      233.057   0.100E-07
     TRS4 it   6 1.00000000   0.226E+00       0.001      234.968   0.100E-07
     TRS4 it   7 1.00000000   0.102E+00       0.001      234.968   0.100E-07
     TRS4 it   8 1.00000000   0.278E-01       0.001      227.349   0.100E-07
     TRS4 it   9 1.00000000   0.301E-02       0.001      233.990   0.100E-07
     TRS4 it  10 1.00000000   0.418E-04       0.001      234.968   0.100E-07
     TRS4 it  11 1.00000000   0.794E-08       0.001      228.997   0.100E-07
     Final TRS4 iteration   11 1.00000000   0.794E-08
     Chemical potential (mu):      -0.11110

 SCF     5       -34.450771745        -0.000059600    2.426367

*********************************************************
 Using MIXING_FRACTION=0.450 to mix KS matrix:  iscf=  6
 KS_nw=0.450*KS + 0.550*KS_old
*********************************************************
     Est. extremal eigenvalues     -0.93741     3.92862  converged:  T
     TRS4 it   1 1.00000000   0.177E+01       0.001      117.484   0.100E-07
     TRS4 it   2 1.00000000   0.160E+01       0.001      117.484   0.100E-07
     TRS4 it   3 1.00000000   0.961E+00       0.001      185.941   0.100E-07
     TRS4 it   4 1.00000000   0.594E+00       0.001      179.334   0.100E-07
     TRS4 it   5 1.00000000   0.395E+00       0.001      192.044   0.100E-07
     TRS4 it   6 1.00000000   0.227E+00       0.001      189.935   0.100E-07
     TRS4 it   7 1.00000000   0.103E+00       0.001      216.842   0.100E-07
     TRS4 it   8 1.00000000   0.285E-01       0.001      216.040   0.100E-07
     TRS4 it   9 1.00000000   0.318E-02       0.001      201.139   0.100E-07
     TRS4 it  10 1.00000000   0.469E-04       0.001      226.587   0.100E-07
     TRS4 it  11 1.00000000   0.100E-07       0.001      209.564   0.100E-07
     Final TRS4 iteration   11 1.00000000   0.100E-07
     Chemical potential (mu):      -0.10937

 SCF     6       -34.450778473        -0.000006728    2.012208

*********************************************************
 Using MIXING_FRACTION=0.450 to mix KS matrix:  iscf=  7
 KS_nw=0.450*KS + 0.550*KS_old
*********************************************************
     Est. extremal eigenvalues     -0.93703     3.92939  converged:  T
     TRS4 it   1 1.00000000   0.177E+01       0.001      117.484   0.100E-07
     TRS4 it   2 1.00000000   0.160E+01       0.001      117.484   0.100E-07
     TRS4 it   3 1.00000000   0.961E+00       0.001      234.968   0.100E-07
     TRS4 it   4 1.00000000   0.594E+00       0.001      234.968   0.100E-07
     TRS4 it   5 1.00000000   0.396E+00       0.001      234.968   0.100E-07
     TRS4 it   6 1.00000000   0.227E+00       0.001      234.968   0.100E-07
     TRS4 it   7 1.00000000   0.103E+00       0.001      234.968   0.100E-07
     TRS4 it   8 1.00000000   0.287E-01       0.001      234.968   0.100E-07
     TRS4 it   9 1.00000000   0.325E-02       0.001      234.968   0.100E-07
     TRS4 it  10 1.00000000   0.491E-04       0.001      234.968   0.100E-07
     TRS4 it  11 1.00000000   0.110E-07       0.001      234.968   0.100E-07
     Final TRS4 iteration   11 1.00000000   0.110E-07
     Chemical potential (mu):      -0.10874

 SCF     7       -34.450779628        -0.000001155    1.677569

*********************************************************
 Using MIXING_FRACTION=0.450 to mix KS matrix:  iscf=  8
 KS_nw=0.450*KS + 0.550*KS_old
*********************************************************
     Est. extremal eigenvalues     -0.93670     3.92989  converged:  T
     TRS4 it   1 1.00000000   0.177E+01       0.001      117.484   0.100E-07
     TRS4 it   2 1.00000000   0.160E+01       0.001      117.484   0.100E-07
     TRS4 it   3 1.00000000   0.961E+00       0.001      224.631   0.100E-07
     TRS4 it   4 1.00000000   0.594E+00       0.001      234.968   0.100E-07
     TRS4 it   5 1.00000000   0.396E+00       0.001      234.968   0.100E-07
     TRS4 it   6 1.00000000   0.227E+00       0.001      234.968   0.100E-07
     TRS4 it   7 1.00000000   0.103E+00       0.001      234.968   0.100E-07
     TRS4 it   8 1.00000000   0.289E-01       0.001      234.968   0.100E-07
     TRS4 it   9 1.00000000   0.329E-02       0.001      234.968   0.100E-07
     TRS4 it  10 1.00000000   0.504E-04       0.004       61.051   0.100E-07
     TRS4 it  11 1.00000000   0.116E-07       0.001      159.378   0.100E-07
     Final TRS4 iteration   11 1.00000000   0.116E-07
     Chemical potential (mu):      -0.10834

 SCF     8       -34.450779898        -0.000000271    2.300376

*********************************************************
 Using MIXING_FRACTION=0.450 to mix KS matrix:  iscf=  9
 KS_nw=0.450*KS + 0.550*KS_old
*********************************************************
     Est. extremal eigenvalues     -0.93656     3.93013  converged:  T
     TRS4 it   1 1.00000000   0.177E+01       0.001      117.484   0.100E-07
     TRS4 it   2 1.00000000   0.160E+01       0.001      117.484   0.100E-07
     TRS4 it   3 1.00000000   0.961E+00       0.001      161.304   0.100E-07
     TRS4 it   4 1.00000000   0.595E+00       0.001      168.818   0.100E-07
     TRS4 it   5 1.00000000   0.396E+00       0.001      188.240   0.100E-07
     TRS4 it   6 1.00000000   0.227E+00       0.001      173.713   0.100E-07
     TRS4 it   7 1.00000000   0.103E+00       0.001      185.054   0.100E-07
     TRS4 it   8 1.00000000   0.290E-01       0.001      196.602   0.100E-07
     TRS4 it   9 1.00000000   0.331E-02       0.001      222.568   0.100E-07
     TRS4 it  10 1.00000000   0.512E-04       0.001      222.308   0.100E-07
     TRS4 it  11 1.00000000   0.119E-07       0.001      225.046   0.100E-07
     Final TRS4 iteration   11 1.00000000   0.119E-07
     Chemical potential (mu):      -0.10815

 SCF     9       -34.450779971        -0.000000072    2.374882

 Writing restart DM 2H2O_ref_LS_DM_SPIN_1_RESTART.dm with checksum:       0.66769010E+02

 ENERGY| Total FORCE_EVAL ( QS ) energy (a.u.):              -34.450779970555409


 -------------------------------------------------------------------------------
 -                                                                             -
 -                                DBCSR STATISTICS                             -
 -                                                                             -
 -------------------------------------------------------------------------------
 COUNTER                                    TOTAL       BLAS       SMM       ACC
 flops     5 x     5 x     5              2778000     100.0%      0.0%      0.0%
 flops     5 x    13 x     5              3120000     100.0%      0.0%      0.0%
 flops    13 x     5 x     5              3120000     100.0%      0.0%      0.0%
 flops     5 x     5 x    13              3601000     100.0%      0.0%      0.0%
 flops    13 x     5 x    13              4059380     100.0%      0.0%      0.0%
 flops     5 x    13 x    13              4059380     100.0%      0.0%      0.0%
 flops    13 x    13 x     5              5313360     100.0%      0.0%      0.0%
 flops    13 x    13 x    13              6938126     100.0%      0.0%      0.0%
 flops inhomo. stacks                           0       0.0%      0.0%      0.0%
 flops total                        32.989246E+06     100.0%      0.0%      0.0%
 flops max/rank                     32.989246E+06     100.0%      0.0%      0.0%
 matmuls inhomo. stacks                         0       0.0%      0.0%      0.0%
 matmuls total                              35779     100.0%      0.0%      0.0%
 number of processed stacks                  1960     100.0%      0.0%      0.0%
 average stack size                                    18.3       0.0       0.0
 marketing flops                    47.889312E+06
 -------------------------------------------------------------------------------
 # multiplications                            246
 max memory usage/rank             328.159232E+06
 # max total images/rank                        1
 # max 3D layers                                1
 # MPI messages exchanged                       0
 MPI messages size (bytes):
  total size                         0.000000E+00
  min size                           0.000000E+00
  max size                           0.000000E+00
  average size                       0.000000E+00
 MPI breakdown and total messages size (bytes):
             size <=      128                   0                        0
       128 < size <=     8192                   0                        0
      8192 < size <=    32768                   0                        0
     32768 < size <=   131072                   0                        0
    131072 < size <=  4194304                   0                        0
   4194304 < size <= 16777216                   0                        0
  16777216 < size                               0                        0
 -------------------------------------------------------------------------------

 MEMORY| Estimated peak process memory [MiB]                                 313

 -------------------------------------------------------------------------------
 -                                                                             -
 -                           R E F E R E N C E S                               -
 -                                                                             -
 -------------------------------------------------------------------------------
 
 CP2K version 7.0 (Development Version), the CP2K developers group (2018).
 CP2K is freely available from https://www.cp2k.org/ .

 Schuett, Ole; Messmer, Peter; Hutter, Juerg; VandeVondele, Joost. 
 Electronic Structure Calculations on Graphics Processing Units, John Wiley & Sons, Ltd, 173-190 (2016). 
 GPU-Accelerated Sparse Matrix-Matrix Multiplication for Linear Scaling Density Functional Theory.
 https://dx.doi.org/10.1002/9781118670712.ch8


 Borstnik, U; VandeVondele, J; Weber, V; Hutter, J. 
 PARALLEL COMPUTING, 40 (5-6), 47-58 (2014). 
 Sparse matrix multiplication: The distributed block-compressed sparse
 row library.
 https://dx.doi.org/10.1016/j.parco.2014.03.012


 Hutter, J; Iannuzzi, M; Schiffmann, F; VandeVondele, J. 
 WILEY INTERDISCIPLINARY REVIEWS-COMPUTATIONAL MOLECULAR SCIENCE, 4 (1), 15-25 (2014). 
 CP2K: atomistic simulations of condensed matter systems.
 https://dx.doi.org/10.1002/wcms.1159


 VandeVondele, J; Borstnik, U; Hutter, J. 
 JOURNAL OF CHEMICAL THEORY AND COMPUTATION, 8 (10), 3565-3573 (2012). 
 Linear Scaling Self-Consistent Field Calculations with Millions of Atoms
 in the Condensed Phase.
 https://dx.doi.org/10.1021/ct200897x


 VandeVondele, J; Hutter, J. 
 JOURNAL OF CHEMICAL PHYSICS, 127 (11), 114105 (2007). 
 Gaussian basis sets for accurate calculations on molecular systems in
 gas and condensed phases.
 https://dx.doi.org/10.1063/1.2770708


 Krack, M. 
 THEORETICAL CHEMISTRY ACCOUNTS, 114 (1-3), 145-152 (2005). 
 Pseudopotentials for H to Kr optimized for gradient-corrected
 exchange-correlation functionals.
 https://dx.doi.org/10.1007/s00214-005-0655-y


 VandeVondele, J; Krack, M; Mohamed, F; Parrinello, M; Chassaing, T;
 Hutter, J. COMPUTER PHYSICS COMMUNICATIONS, 167 (2), 103-128 (2005). 
 QUICKSTEP: Fast and accurate density functional calculations using a
 mixed Gaussian and plane waves approach.
 https://dx.doi.org/10.1016/j.cpc.2004.12.014


 Frigo, M; Johnson, SG. 
 PROCEEDINGS OF THE IEEE, 93 (2), 216-231 (2005). 
 The design and implementation of FFTW3.
 https://dx.doi.org/10.1109/JPROC.2004.840301


 Niklasson, AMN; Tymczak, CJ; Challacombe, M. 
 JOURNAL OF CHEMICAL PHYSICS, 118 (19), 8611-8620 (2003). 
 Trace resetting density matrix purification in O(N)
 self-consistent-field theory.
 https://dx.doi.org/10.1063/1.1559913


 Hartwigsen, C; Goedecker, S; Hutter, J. 
 PHYSICAL REVIEW B, 58 (7), 3641-3662 (1998). 
 Relativistic separable dual-space Gaussian pseudopotentials from H to Rn.
 https://dx.doi.org/10.1103/PhysRevB.58.3641


 Lippert, G; Hutter, J; Parrinello, M. 
 MOLECULAR PHYSICS, 92 (3), 477-487 (1997). 
 A hybrid Gaussian and plane wave density functional scheme.
 https://dx.doi.org/10.1080/002689797170220


 Perdew, JP; Burke, K; Ernzerhof, M. 
 PHYSICAL REVIEW LETTERS, 77 (18), 3865-3868 (1996). 
 Generalized gradient approximation made simple.
 https://dx.doi.org/10.1103/PhysRevLett.77.3865


 Goedecker, S; Teter, M; Hutter, J. 
 PHYSICAL REVIEW B, 54 (3), 1703-1710 (1996). 
 Separable dual-space Gaussian pseudopotentials.
 https://dx.doi.org/10.1103/PhysRevB.54.1703


 -------------------------------------------------------------------------------
 -                                                                             -
 -                                T I M I N G                                  -
 -                                                                             -
 -------------------------------------------------------------------------------
 SUBROUTINE                       CALLS  ASD         SELF TIME        TOTAL TIME
                                MAXIMUM       AVERAGE  MAXIMUM  AVERAGE  MAXIMUM
 CP2K                                 1  1.0    0.013    0.013   22.441   22.441
 qs_energies                          1  2.0    0.000    0.000   21.900   21.900
 ls_scf                               1  3.0    0.000    0.000   21.740   21.740
 ls_scf_main                          1  4.0    0.001    0.001   19.091   19.091
 ls_scf_dm_to_ks                      9  5.0    0.000    0.000   18.954   18.954
 qs_ks_update_qs_env                 10  6.1    0.000    0.000   15.111   15.111
 rebuild_ks_matrix                   10  7.1    0.000    0.000   15.111   15.111
 qs_ks_build_kohn_sham_matrix        10  8.1    0.001    0.001   15.111   15.111
 qs_vxc_create                       10  9.1    0.000    0.000    9.023    9.023
 xc_vxc_pw_create                    10 10.1    0.138    0.138    9.023    9.023
 pw_transfer                        191 10.7    0.017    0.017    6.585    6.585
 fft_wrap_pw1pw2                    171 11.8    0.002    0.002    6.478    6.478
 qs_rho_update_rho                   10  6.1    0.000    0.000    6.428    6.428
 calculate_rho_elec                  10  7.1    4.887    4.887    6.428    6.428
 xc_rho_set_and_dset_create          10 11.1    0.035    0.035    6.372    6.372
 fft_wrap_pw1pw2_200                111 12.9    0.350    0.350    6.180    6.180
 sum_up_and_integrate                10  9.1    0.021    0.021    5.093    5.093
 integrate_v_rspace                  10 10.1    4.339    4.339    5.072    5.072
 xc_functional_eval                  10 12.1    0.000    0.000    4.429    4.429
 pbe_lda_eval                        10 13.1    4.429    4.429    4.429    4.429
 fft3d_s                            172 13.7    3.365    3.365    3.392    3.392
 ls_scf_init_scf                      1  4.0    0.000    0.000    2.648    2.648
 ls_scf_initial_guess                 1  5.0    0.000    0.000    2.599    2.599
 ls_scf_qs_atomic_guess               1  6.0    0.000    0.000    2.599    2.599
 pw_gather_s                         81 13.2    1.573    1.573    1.573    1.573
 density_rs2pw                       10  8.1    0.001    0.001    1.526    1.526
 pw_scatter_s                        90 14.3    1.146    1.146    1.146    1.146
 potential_pw2rs                     10 11.1    0.003    0.003    0.731    0.731
 qs_init_subsys                       1  2.0    0.001    0.001    0.476    0.476
 qs_env_setup                         1  3.0    0.000    0.000    0.473    0.473
 qs_env_rebuild_pw_env                2  3.5    0.000    0.000    0.473    0.473
 pw_env_rebuild                       1  5.0    0.000    0.000    0.473    0.473
 -------------------------------------------------------------------------------

 The number of warnings for this run is : 0
 
 -------------------------------------------------------------------------------
  **** **** ******  **  PROGRAM ENDED AT                 2019-03-28 17:24:28.987
 ***** ** ***  *** **   PROGRAM RAN ON            oleschuett.zrh.corp.google.com
 **    ****   ******    PROGRAM RAN BY                                oleschuett
 ***** **    ** ** **   PROGRAM PROCESS ID                                  4401
  **** **  *******  **  PROGRAM STOPPED IN /usr/local/google/home/oleschuett/git
                                           /pao_ml_equivar/2H2O_rotations/phi_06
