 DBCSR| CPU Multiplication driver                                           XSMM (U)
 DBCSR| Multrec recursion limit                                              512 (U)
 DBCSR| Multiplication stack size                                           1000 (D)
 DBCSR| Maximum elements for images                                    UNLIMITED (U)
 DBCSR| Multiplicative factor virtual images                                   1 (U)
 DBCSR| Use multiplication densification                                       T (D)
 DBCSR| Multiplication size stacks                                             3 (U)
 DBCSR| Use memory pool for CPU allocation                                     F (U)
 DBCSR| OMP: Current number of threads                                         1
 DBCSR| OMP: Max number of threads                                             1
 DBCSR| Split modifier for TAS multiplication algorithm                  1.0E+00 (U)


  **** **** ******  **  PROGRAM STARTED AT               2023-02-01 10:45:19.663
 ***** ** ***  *** **   PROGRAM STARTED ON                                moritz
 **    ****   ******    PROGRAM STARTED BY                                   ole
 ***** **    ** ** **   PROGRAM PROCESS ID                                148563
  **** **  *******  **  PROGRAM STARTED IN /home/ole/git/pao_ml_equivar/2H2O_rot
                                           ations/phi_06

 CP2K| version string:                 CP2K version 2023.1 (Development Version)
 CP2K| source code revision number:                                  git:03b4147
 CP2K| cp2kflags: omp libint fftw3 libxc quip xsmm spglib libvori libbqb libtorc
 CP2K|            h
 CP2K| is freely available from                            https://www.cp2k.org/
 CP2K| Program compiled at                           Mi 01 Feb 2023 10:36:52 CET
 CP2K| Program compiled on                                                moritz
 CP2K| Program compiled for                                                local
 CP2K| Data directory path                               /home/ole/git/cp2k/data
 CP2K| Input file name                                            2H2O_pao44.inp

 GLOBAL| Force Environment number                                              1
 GLOBAL| Basis set file name                                        BASIS_MOLOPT
 GLOBAL| Potential file name                                      GTH_POTENTIALS
 GLOBAL| MM Potential file name                                     MM_POTENTIAL
 GLOBAL| Coordinate file name                                         coords.xyz
 GLOBAL| Method name                                                        CP2K
 GLOBAL| Project name                                                 2H2O_pao44
 GLOBAL| Run type                                                         ENERGY
 GLOBAL| FFT library                                                       FFTW3
 GLOBAL| Diagonalization library                                       ScaLAPACK
 GLOBAL| DGEMM library                                                      BLAS
 GLOBAL| Orthonormality check for eigenvectors                          DISABLED
 GLOBAL| Matrix multiplication library                                 ScaLAPACK
 GLOBAL| All-to-all communication in single precision                          F
 GLOBAL| FFTs using library dependent lengths                                  F
 GLOBAL| Grid backend                                                       AUTO
 GLOBAL| Global print level                                                  LOW
 GLOBAL| MPI I/O enabled                                                       T
 GLOBAL| Total number of message passing processes                             1
 GLOBAL| Number of threads for this process                                    1
 GLOBAL| This output is from process                                           0
 GLOBAL| Stack size for threads created by OpenMP (OMP_STACKSIZE)        default
 GLOBAL| CPU model name           AMD Ryzen Threadripper 3970X 32-Core Processor
 GLOBAL| CPUID                                                              1002
 GLOBAL| Compiled for CPUID                                                    0

 *** HINT in environment.F:884 :: The compiler target flags (generic) used ***
 *** to build this binary cannot exploit all extensions of this CPU model  ***
 *** (x86_avx2). Consider compiler target flags as part of FCFLAGS and     ***
 *** CFLAGS (ARCH file).                                                   ***


 MEMORY| system memory details [Kb]
 MEMORY|                        rank 0           min           max       average
 MEMORY| MemTotal            131773860     131773860     131773860     131773860
 MEMORY| MemFree             118696576     118696576     118696576     118696576
 MEMORY| Buffers                301580        301580        301580        301580
 MEMORY| Cached                7018548       7018548       7018548       7018548
 MEMORY| Slab                   776140        776140        776140        776140
 MEMORY| SReclaimable           331304        331304        331304        331304
 MEMORY| MemLikelyFree       126348008     126348008     126348008     126348008


 GENERATE|  Preliminary Number of Bonds generated:                             0
 GENERATE|  Achieved consistency in connectivity generation.

 *******************************************************************************
 *******************************************************************************
 **                                                                           **
 **     #####                         ##              ##                      **
 **    ##   ##            ##          ##              ##                      **
 **   ##     ##                       ##            ######                    **
 **   ##     ##  ##   ##  ##   #####  ##  ##   ####   ##    #####    #####    **
 **   ##     ##  ##   ##  ##  ##      ## ##   ##      ##   ##   ##  ##   ##   **
 **   ##  ## ##  ##   ##  ##  ##      ####     ###    ##   ######   ######    **
 **    ##  ###   ##   ##  ##  ##      ## ##      ##   ##   ##       ##        **
 **     #######   #####   ##   #####  ##  ##  ####    ##    #####   ##        **
 **           ##                                                    ##        **
 **                                                                           **
 **                                                ... make the atoms dance   **
 **                                                                           **
 **            Copyright (C) by CP2K developers group (2000-2023)             **
 **                      J. Chem. Phys. 152, 194103 (2020)                    **
 **                                                                           **
 *******************************************************************************


 TOTAL NUMBERS AND MAXIMUM NUMBERS

  Total number of            - Atomic kinds:                                   2
                             - Atoms:                                          6
                             - Shell sets:                                     6
                             - Shells:                                        22
                             - Primitive Cartesian functions:                 42
                             - Cartesian basis functions:                     48
                             - Spherical basis functions:                     46

  Maximum angular momentum of- Orbital basis functions:                        2
                             - Local part of the GTH pseudopotential:          2
                             - Non-local part of the GTH pseudopotential:      0

 ------------------------------ Linear scaling SCF -----------------------------
 eps_scf:                                                              0.100E-07
 eps_filter:                                                           0.100E-07
 mixing_fraction:                                                      0.450E+00
 max_scf:                                                                     25
 fixed chemical potential (mu)                                                 F
 has unit metric:                                                              F
 Computing inv(S):                                                             T
 Computing sqrt(S):                                                            T
 Computing S preconditioner                                                    F
 S sqrt method:                                                     NEWTONSCHULZ
 S sqrt order:                                                                 3
 Extrapolation order:                                                          1
 Use single precision matrices                                                 F
 S preconditioner type                                                      NONE
 Polarized Atomic Orbitals (PAO)                                               T
 Purification method                                   Trace resetting 4th order
 Cluster type                                                             ATOMIC
 Computing Chebyshev                                                       FALSE
 Using PAO                                                                     T
 -------------------------------------------------------------------------------

 
 PAO|                                  EPS_PAO                           0.1E-04
 PAO|                                  MIXING                            0.5E+00
 PAO|                                  MAX_PAO                              1000
 PAO|                                  MAX_CYCLES                           1000
 PAO|                                  PARAMETERIZATION              EQUIVARIANT
 PAO|                                  PRECONDITION                            F
 PAO|                                  REGULARIZATION                    0.0E+00
 PAO|                                  EPS_PGF                           0.1E-09
 PAO|                                  PENALTY_DISTANCE                  0.1E+00
 PAO|                                  PENALTY_STRENGTH                  0.5E-02
 PAO|                                  LINPOT_PRECONDITION_DELTA         0.0E+00
 PAO|                                  LINPOT_INITGUESS_DELT             0.0E+00
 PAO|                                  LINPOT_REGULARIZATION_DELTA       0.0E+00
 PAO|                                  LINPOT_REGULARIZATION_STRENGTH    0.0E+00
 PAO|                                  OPTIMIZER                              CG
 PAO|                                  CG_INIT_STEPS                           2
 PAO|                                  CG_RESET_LIMIT                    0.1E+00
 PAO|                                  CHECK_UNITARY_TOL                -0.1E+01
 PAO|                                  CHECK_GRADIENT_TOL               -0.1E+01
 PAO|                                  NUM_GRADIENT_ORDER                      2
 PAO|                                  NUM_GRADIENT_EPS                  0.1E-07
 PAO|                                  PRINT%RESTART%WRITE_CYCLES            100
 PAO|                                  RESTART_FILE 
 PAO|                                  PREOPT_DM_FILE 2H2O_ref_LS_DM_SPIN_1_RESTART.dm
 PAO|                                  MACHINE_LEARNING%METHOD       GAUSSIAN_PR
 PAO|                                  MACHINE_LEARNING%PRIOR               ZERO
 PAO|                                  MACHINE_LEARNING%DESCRIPTOR     POTENTIAL
 PAO|                                  MACHINE_LEARNING%TOLERANCE        0.1E-01
 PAO|                                  MACHINE_LEARNING%GP_NOISE_VAR     0.1E+00
 PAO|                                  MACHINE_LEARNING%GP_SCALE         0.5E-01
 

 Calculating atomic Fock matrix for atomic kind: O

 Electronic structure
    Total number of core electrons                                          2.00
    Total number of valence electrons                                       6.00
    Total number of electrons                                               8.00
    Multiplicity                                                   not specified
    S   [  2.00] 2.00
    P      4.00


 *******************************************************************************
                  Iteration          Convergence                     Energy [au]
 *******************************************************************************
                          1        0.708315                     -15.576645311500
                          2        0.608879                     -15.587933561584
                          3        0.102828E-01                 -15.656849565404
                          4        0.113889E-02                 -15.656866888140
                          5        0.434197E-03                 -15.656867072159
                          6        0.263771E-03                 -15.656867091904
                          7        0.478536E-06                 -15.656867103452

 Energy components [Hartree]           Total Energy ::          -15.656867103452
                                        Band Energy ::           -3.000198112285
                                     Kinetic Energy ::           11.759971203220
                                   Potential Energy ::          -27.416838306672
                                      Virial (-V/T) ::            2.331369510426
                                        Core Energy ::          -26.140716385623
                                          XC Energy ::           -3.154051012914
                                     Coulomb Energy ::           13.637900295084
                       Total Pseudopotential Energy ::          -37.935781716540
                       Local Pseudopotential Energy ::          -39.218907440693
                    Nonlocal Pseudopotential Energy ::            1.283125724153
                                        Confinement ::            0.350941276976

 Orbital energies  State     L     Occupation   Energy[a.u.]          Energy[eV]

                       1     0          2.000      -0.864471          -23.523463

                       1     1          4.000      -0.317814           -8.648154


 Total Electron Density at R=0:                                         0.000068

 Calculating atomic Fock matrix for atomic kind: H

 Electronic structure
    Total number of core electrons                                          0.00
    Total number of valence electrons                                       1.00
    Total number of electrons                                               1.00
    Multiplicity                                                   not specified
    S      1.00


 *******************************************************************************
                  Iteration          Convergence                     Energy [au]
 *******************************************************************************
                          1        0.437545E-02                  -0.424159432110
                          2        0.531356E-03                  -0.424178438213
                          3        0.259176E-06                  -0.424178722480

 Energy components [Hartree]           Total Energy ::           -0.424178722480
                                        Band Energy ::           -0.199015229016
                                     Kinetic Energy ::            0.464007633961
                                   Potential Energy ::           -0.888186356441
                                      Virial (-V/T) ::            1.914163240935
                                        Core Energy ::           -0.479160803564
                                          XC Energy ::           -0.244352904054
                                     Coulomb Energy ::            0.299334985138
                       Total Pseudopotential Energy ::           -0.962295316385
                       Local Pseudopotential Energy ::           -0.962295316385
                    Nonlocal Pseudopotential Energy ::            0.000000000000
                                        Confinement ::            0.191268788606

 Orbital energies  State     L     Occupation   Energy[a.u.]          Energy[eV]

                       1     0          1.000      -0.199015           -5.415480


 Total Electron Density at R=0:                                         0.242907
 PAO| Made initial guess for matrix_X with norm:   4.8989794855663558     

     Lanczos converged:  T threshold:   0.100E-02
     Est. extremal eigenvalues:    0.337E+01   0.114E+00
     Est. condition number :    0.295E+02

 Order=           3
     NS sqrt iter    1 1.00000000   0.822E+00       0.001       64.512
     NS sqrt iter    2 1.00000000   0.440E+00       0.001      110.592
     NS sqrt iter    3 1.00000000   0.171E+00       0.001      110.592
     NS sqrt iter    4 1.00000000   0.207E-01       0.001      110.592
     NS sqrt iter    5 1.00000000   0.544E-04       0.001       92.032
     Symmetrizing Results
     Final NS sqrt iter    5 1.00000000   0.272E-08

 PAO| Read restart DM 2H2O_ref_LS_DM_SPIN_1_RESTART.dm with checksum:    66.769009634419689     
 PAO| Quickstep energy from restart density:  -34.450779970566032     
 PAO| ======================= Iteration:         1 =============================

     Lanczos converged:  T threshold:   0.100E-02
     Est. extremal eigenvalues:    0.337E+01   0.114E+00
     Est. condition number :    0.295E+02

 Order=           3
     NS sqrt iter    1 1.00000000   0.822E+00       0.001       64.512
     NS sqrt iter    2 1.00000000   0.440E+00       0.001      110.592
     NS sqrt iter    3 1.00000000   0.171E+00       0.001      110.592
     NS sqrt iter    4 1.00000000   0.207E-01       0.001      110.592
     NS sqrt iter    5 1.00000000   0.544E-04       0.001       92.032
     Symmetrizing Results
     Final NS sqrt iter    5 1.00000000   0.272E-08

     Est. extremal eigenvalues     -0.91908     1.89229  converged:  T
     TRS4 it   1 1.00000000   0.889E+00       0.000       16.128   0.100E-07
     TRS4 it   2 1.00000000   0.694E+00       0.000       32.256   0.100E-07
     TRS4 it   3 1.00000000   0.499E+00       0.000       32.256   0.100E-07
     TRS4 it   4 1.00000000   0.312E+00       0.000       32.256   0.100E-07
     TRS4 it   5 1.00000000   0.154E+00       0.000       32.256   0.100E-07
     TRS4 it   6 1.00000000   0.481E-01       0.000       32.256   0.100E-07
     TRS4 it   7 1.00000000   0.644E-02       0.000       32.256   0.100E-07
     TRS4 it   8 1.00000000   0.163E-03       0.000       32.256   0.100E-07
     TRS4 it   9 1.00000000   0.118E-06       0.000       32.256   0.100E-07
     TRS4 it  10 1.00000000   0.617E-13       0.000       32.256   0.100E-07
     Final TRS4 iteration   10 1.00000000   0.617E-13
     Chemical potential (mu):      -0.06350
 
 PAO| energy:  -7.6139127188899884      penalty:   4.8071211411905415E-033
 PAO|CG| warming up with steepest descent
 PAO|CG| beta:    0.0000000000000000     
 PAO| norm of gradient:  0.78372804541542629     
 PAO|LS| adapt:  T F F
 PAO|LS| adapt: scan_steps:    0.0000000000000000        0.0000000000000000        0.0000000000000000     
 PAO|LS| adapt: energies:   -7.6139127188899884        0.0000000000000000        0.0000000000000000     
 PAO| ======================= Iteration:         2 =============================

     Lanczos converged:  T threshold:   0.100E-02
     Est. extremal eigenvalues:    0.328E+01   0.127E+00
     Est. condition number :    0.259E+02

 Order=           3
     NS sqrt iter    1 1.00000000   0.806E+00       0.001       64.512
     NS sqrt iter    2 1.00000000   0.425E+00       0.001      110.592
     NS sqrt iter    3 1.00000000   0.153E+00       0.001      110.592
     NS sqrt iter    4 1.00000000   0.144E-01       0.001      110.592
     NS sqrt iter    5 1.00000000   0.177E-04       0.001       82.944
     Symmetrizing Results
     Final NS sqrt iter    5 1.00000000   0.469E-09

     Est. extremal eigenvalues     -0.92275     1.84072  converged:  T
     TRS4 it   1 1.00000000   0.887E+00       0.000       16.128   0.100E-07
     TRS4 it   2 1.00000000   0.676E+00       0.000       32.256   0.100E-07
     TRS4 it   3 1.00000000   0.484E+00       0.000       32.256   0.100E-07
     TRS4 it   4 1.00000000   0.292E+00       0.000       32.256   0.100E-07
     TRS4 it   5 1.00000000   0.135E+00       0.000       32.256   0.100E-07
     TRS4 it   6 1.00000000   0.371E-01       0.000       32.256   0.100E-07
     TRS4 it   7 1.00000000   0.388E-02       0.000       32.256   0.100E-07
     TRS4 it   8 1.00000000   0.597E-04       0.000       32.256   0.100E-07
     TRS4 it   9 1.00000000   0.158E-07       0.000       32.256   0.100E-07
     Final TRS4 iteration    9 1.00000000   0.158E-07
     Chemical potential (mu):      -0.05157
 
 PAO| energy:  -7.6694484257233135      penalty:   2.2533349583708601E-008
 PAO|LS| adapt:  T T F
 PAO|LS| adapt: scan_steps:    0.0000000000000000       0.10000000000000001        0.0000000000000000     
 PAO|LS| adapt: energies:   -7.6139127188899884       -7.6694484257233135        0.0000000000000000     
 PAO| ======================= Iteration:         3 =============================

     Lanczos converged:  T threshold:   0.100E-02
     Est. extremal eigenvalues:    0.319E+01   0.138E+00
     Est. condition number :    0.231E+02

 Order=           3
     NS sqrt iter    1 1.00000000   0.788E+00       0.001       64.512
     NS sqrt iter    2 1.00000000   0.408E+00       0.001      110.592
     NS sqrt iter    3 1.00000000   0.136E+00       0.001      110.592
     NS sqrt iter    4 1.00000000   0.994E-02       0.001      110.592
     NS sqrt iter    5 1.00000000   0.610E-05       0.001       82.944
     Symmetrizing Results
     Final NS sqrt iter    5 1.00000000   0.568E-10

     Est. extremal eigenvalues     -0.92618     1.79951  converged:  T
     TRS4 it   1 1.00000000   0.885E+00       0.000       16.128   0.100E-07
     TRS4 it   2 1.00000000   0.660E+00       0.000       32.256   0.100E-07
     TRS4 it   3 1.00000000   0.468E+00       0.000       32.256   0.100E-07
     TRS4 it   4 1.00000000   0.273E+00       0.000       32.256   0.100E-07
     TRS4 it   5 1.00000000   0.118E+00       0.000       32.256   0.100E-07
     TRS4 it   6 1.00000000   0.278E-01       0.000       32.256   0.100E-07
     TRS4 it   7 1.00000000   0.218E-02       0.000       32.256   0.100E-07
     TRS4 it   8 1.00000000   0.188E-04       0.000       32.256   0.100E-07
     TRS4 it   9 1.00000000   0.157E-08       0.000       32.256   0.100E-07
     Final TRS4 iteration    9 1.00000000   0.157E-08
     Chemical potential (mu):      -0.03868
 
 PAO| energy:  -7.7125468527094396      penalty:   3.6053368891816725E-007
 PAO|LS| adapt:  T T F
 PAO|LS| adapt: scan_steps:    0.0000000000000000       0.20000000000000001        0.0000000000000000     
 PAO|LS| adapt: energies:   -7.6139127188899884       -7.7125468527094396        0.0000000000000000     
 PAO| ======================= Iteration:         4 =============================

     Lanczos converged:  T threshold:   0.100E-02
     Est. extremal eigenvalues:    0.299E+01   0.155E+00
     Est. condition number :    0.193E+02

 Order=           3
     NS sqrt iter    1 1.00000000   0.750E+00       0.001       64.512
     NS sqrt iter    2 1.00000000   0.373E+00       0.001      110.592
     NS sqrt iter    3 1.00000000   0.106E+00       0.001      110.592
     NS sqrt iter    4 1.00000000   0.490E-02       0.001      110.592
     NS sqrt iter    5 1.00000000   0.921E-06       0.001       82.944
     Symmetrizing Results
     Final NS sqrt iter    5 1.00000000   0.144E-11

     Est. extremal eigenvalues     -0.93151     1.74013  converged:  T
     TRS4 it   1 1.00000000   0.882E+00       0.000       16.128   0.100E-07
     TRS4 it   2 1.00000000   0.635E+00       0.000       32.256   0.100E-07
     TRS4 it   3 1.00000000   0.440E+00       0.000       32.256   0.100E-07
     TRS4 it   4 1.00000000   0.237E+00       0.000       32.256   0.100E-07
     TRS4 it   5 1.00000000   0.866E-01       0.000       32.256   0.100E-07
     TRS4 it   6 1.00000000   0.146E-01       0.000       32.256   0.100E-07
     TRS4 it   7 1.00000000   0.572E-03       0.000       32.256   0.100E-07
     TRS4 it   8 1.00000000   0.126E-05       0.000       32.256   0.100E-07
     TRS4 it   9 1.00000000   0.707E-11       0.000       32.256   0.100E-07
     Final TRS4 iteration    9 1.00000000   0.707E-11
     Chemical potential (mu):      -0.01037
 
 PAO| energy:  -7.7598171214567202      penalty:   5.7685397873327166E-006
 PAO|LS| Need extra step
 PAO|LS| adapt:  T T F
 PAO|LS| adapt: scan_steps:    0.0000000000000000       0.40000000000000002        0.0000000000000000     
 PAO|LS| adapt: energies:   -7.6139127188899884       -7.7598171214567202        0.0000000000000000     
 PAO| ======================= Iteration:         5 =============================

     Lanczos converged:  T threshold:   0.100E-02
     Est. extremal eigenvalues:    0.263E+01   0.182E+00
     Est. condition number :    0.145E+02

 Order=           3
     NS sqrt iter    1 1.00000000   0.685E+00       0.001       64.512
     NS sqrt iter    2 1.00000000   0.311E+00       0.001      110.592
     NS sqrt iter    3 1.00000000   0.655E-01       0.001      110.592
     NS sqrt iter    4 1.00000000   0.137E-02       0.001      110.592
     NS sqrt iter    5 1.00000000   0.265E-07       0.001       57.344
     Symmetrizing Results
     Final NS sqrt iter    5 1.00000000   0.260E-08

     Est. extremal eigenvalues     -0.93274     1.67442  converged:  T
     TRS4 it   1 1.00000000   0.880E+00       0.000       16.128   0.100E-07
     TRS4 it   2 1.00000000   0.600E+00       0.000       32.256   0.100E-07
     TRS4 it   3 1.00000000   0.395E+00       0.000       32.256   0.100E-07
     TRS4 it   4 1.00000000   0.182E+00       0.000       32.256   0.100E-07
     TRS4 it   5 1.00000000   0.476E-01       0.000       32.256   0.100E-07
     TRS4 it   6 1.00000000   0.401E-02       0.000       32.256   0.100E-07
     TRS4 it   7 1.00000000   0.366E-04       0.000       32.256   0.100E-07
     TRS4 it   8 1.00000000   0.386E-08       0.000       32.256   0.100E-07
     Final TRS4 iteration    8 1.00000000   0.386E-08
     Chemical potential (mu):       0.03794
 
 PAO| energy:  -7.7051007172536981      penalty:   9.2296642714503077E-005
 PAO|LS| Need extra step
 PAO|LS| adapt:  T T T
 PAO|LS| adapt: scan_steps:    0.0000000000000000       0.40000000000000002       0.80000000000000004     
 PAO|LS| adapt: energies:   -7.6139127188899884       -7.7598171214567202       -7.7051007172536981     
 PAO|LS| adapt: suggested step_size:   0.49090582361017338     
 PAO|LS| adapt: predicted energy  -7.7649980715158549     
 PAO| ======================= Iteration:         6 =============================

     Lanczos converged:  T threshold:   0.100E-02
     Est. extremal eigenvalues:    0.290E+01   0.162E+00
     Est. condition number :    0.179E+02

 Order=           3
     NS sqrt iter    1 1.00000000   0.733E+00       0.001       64.512
     NS sqrt iter    2 1.00000000   0.358E+00       0.001      110.592
     NS sqrt iter    3 1.00000000   0.948E-01       0.001      110.592
     NS sqrt iter    4 1.00000000   0.362E-02       0.001      110.592
     NS sqrt iter    5 1.00000000   0.408E-06       0.001       82.688
     Symmetrizing Results
     Final NS sqrt iter    5 1.00000000   0.242E-10

     Est. extremal eigenvalues     -0.93299     1.72043  converged:  T
     TRS4 it   1 1.00000000   0.882E+00       0.000       16.128   0.100E-07
     TRS4 it   2 1.00000000   0.625E+00       0.000       32.256   0.100E-07
     TRS4 it   3 1.00000000   0.429E+00       0.000       32.256   0.100E-07
     TRS4 it   4 1.00000000   0.223E+00       0.000       32.256   0.100E-07
     TRS4 it   5 1.00000000   0.751E-01       0.000       32.256   0.100E-07
     TRS4 it   6 1.00000000   0.107E-01       0.000       32.256   0.100E-07
     TRS4 it   7 1.00000000   0.295E-03       0.000       32.256   0.100E-07
     TRS4 it   8 1.00000000   0.321E-06       0.000       32.256   0.100E-07
     TRS4 it   9 1.00000000   0.454E-12       0.000       32.256   0.100E-07
     Final TRS4 iteration    9 1.00000000   0.454E-12
     Chemical potential (mu):       0.00327
 
 PAO| energy:  -7.7642622474406648      penalty:   1.3086354306477089E-005
 PAO|CG| warming up with steepest descent
 PAO|CG| beta:    0.0000000000000000     
 PAO| norm of gradient:  0.41759112074646343     
 PAO| energy improvement: -0.15034952855067640     
 PAO| step      6                   -7.764262247  0.261E-01  0.491E+00     0.059
 PAO|LS| adapt:  T F F
 PAO|LS| adapt: scan_steps:    0.0000000000000000        0.0000000000000000        0.0000000000000000     
 PAO|LS| adapt: energies:   -7.7642622474406648        0.0000000000000000        0.0000000000000000     
 PAO| ======================= Iteration:         7 =============================

     Lanczos converged:  T threshold:   0.100E-02
     Est. extremal eigenvalues:    0.281E+01   0.176E+00
     Est. condition number :    0.160E+02

 Order=           3
     NS sqrt iter    1 1.00000000   0.716E+00       0.001       64.512
     NS sqrt iter    2 1.00000000   0.337E+00       0.001      110.592
     NS sqrt iter    3 1.00000000   0.792E-01       0.001      110.592
     NS sqrt iter    4 1.00000000   0.219E-02       0.001      110.592
     NS sqrt iter    5 1.00000000   0.998E-07       0.001       75.776
     Symmetrizing Results
     Final NS sqrt iter    5 1.00000000   0.121E-08

     Est. extremal eigenvalues     -0.93469     1.70719  converged:  T
     TRS4 it   1 1.00000000   0.881E+00       0.000       16.128   0.100E-07
     TRS4 it   2 1.00000000   0.623E+00       0.000       32.256   0.100E-07
     TRS4 it   3 1.00000000   0.428E+00       0.000       32.256   0.100E-07
     TRS4 it   4 1.00000000   0.223E+00       0.000       32.256   0.100E-07
     TRS4 it   5 1.00000000   0.758E-01       0.000       32.256   0.100E-07
     TRS4 it   6 1.00000000   0.107E-01       0.000       32.256   0.100E-07
     TRS4 it   7 1.00000000   0.276E-03       0.000       32.256   0.100E-07
     TRS4 it   8 1.00000000   0.266E-06       0.000       32.256   0.100E-07
     TRS4 it   9 1.00000000   0.306E-12       0.000       32.256   0.100E-07
     Final TRS4 iteration    9 1.00000000   0.306E-12
     Chemical potential (mu):       0.00528
 
 PAO| energy:  -7.7581422644466640      penalty:   1.9811059967049715E-005
 PAO|LS| adapt:  T F T
 PAO|LS| adapt: scan_steps:    0.0000000000000000        0.0000000000000000       0.49090582361017338     
 PAO|LS| adapt: energies:   -7.7642622474406648        0.0000000000000000       -7.7581422644466640     
 PAO| ======================= Iteration:         8 =============================

     Lanczos converged:  T threshold:   0.100E-02
     Est. extremal eigenvalues:    0.286E+01   0.169E+00
     Est. condition number :    0.169E+02

 Order=           3
     NS sqrt iter    1 1.00000000   0.724E+00       0.001       64.512
     NS sqrt iter    2 1.00000000   0.348E+00       0.001      110.592
     NS sqrt iter    3 1.00000000   0.868E-01       0.001      110.592
     NS sqrt iter    4 1.00000000   0.283E-02       0.001      110.592
     NS sqrt iter    5 1.00000000   0.206E-06       0.001       80.512
     Symmetrizing Results
     Final NS sqrt iter    5 1.00000000   0.909E-09

     Est. extremal eigenvalues     -0.93481     1.71323  converged:  T
     TRS4 it   1 1.00000000   0.881E+00       0.000       16.128   0.100E-07
     TRS4 it   2 1.00000000   0.624E+00       0.000       32.256   0.100E-07
     TRS4 it   3 1.00000000   0.428E+00       0.000       32.256   0.100E-07
     TRS4 it   4 1.00000000   0.222E+00       0.000       32.256   0.100E-07
     TRS4 it   5 1.00000000   0.752E-01       0.000       32.256   0.100E-07
     TRS4 it   6 1.00000000   0.108E-01       0.000       32.256   0.100E-07
     TRS4 it   7 1.00000000   0.293E-03       0.000       32.256   0.100E-07
     TRS4 it   8 1.00000000   0.310E-06       0.000       32.256   0.100E-07
     TRS4 it   9 1.00000000   0.422E-12       0.000       32.256   0.100E-07
     Final TRS4 iteration    9 1.00000000   0.422E-12
     Chemical potential (mu):       0.00383
 
 PAO| energy:  -7.7838921810803514      penalty:   1.4189884729081648E-005
 PAO|LS| adapt:  T T T
 PAO|LS| adapt: scan_steps:    0.0000000000000000       0.24545291180508669       0.49090582361017338     
 PAO|LS| adapt: energies:   -7.7642622474406648       -7.7838921810803514       -7.7581422644466640     
 PAO|LS| adapt: suggested step_size:   0.22890186946993274     
 PAO|LS| adapt: predicted energy  -7.7839953496442105     
 PAO| ======================= Iteration:         9 =============================

     Lanczos converged:  T threshold:   0.100E-02
     Est. extremal eigenvalues:    0.286E+01   0.168E+00
     Est. condition number :    0.170E+02

 Order=           3
     NS sqrt iter    1 1.00000000   0.725E+00       0.001       64.512
     NS sqrt iter    2 1.00000000   0.348E+00       0.001      110.592
     NS sqrt iter    3 1.00000000   0.874E-01       0.001      110.592
     NS sqrt iter    4 1.00000000   0.288E-02       0.001      110.592
     NS sqrt iter    5 1.00000000   0.216E-06       0.001       80.768
     Symmetrizing Results
     Final NS sqrt iter    5 1.00000000   0.669E-09

     Est. extremal eigenvalues     -0.93475     1.71368  converged:  T
     TRS4 it   1 1.00000000   0.881E+00       0.000       16.128   0.100E-07
     TRS4 it   2 1.00000000   0.624E+00       0.000       32.256   0.100E-07
     TRS4 it   3 1.00000000   0.428E+00       0.000       32.256   0.100E-07
     TRS4 it   4 1.00000000   0.222E+00       0.000       32.256   0.100E-07
     TRS4 it   5 1.00000000   0.752E-01       0.000       32.256   0.100E-07
     TRS4 it   6 1.00000000   0.108E-01       0.000       32.256   0.100E-07
     TRS4 it   7 1.00000000   0.294E-03       0.000       32.256   0.100E-07
     TRS4 it   8 1.00000000   0.312E-06       0.000       32.256   0.100E-07
     TRS4 it   9 1.00000000   0.428E-12       0.000       32.256   0.100E-07
     Final TRS4 iteration    9 1.00000000   0.428E-12
     Chemical potential (mu):       0.00377
 
 PAO| energy:  -7.7840201692288513      penalty:   1.4012974440357440E-005
 PAO|CG| trace_G_new    3.6832403165743065E-002
 PAO|CG| trace_G_prev   0.17438234412628742     
 PAO|CG| trace_G_mix   -1.4500466148960017E-003
 PAO|CG| trace_D   0.17438234412628742     
 PAO|CG| trace_D_Gnew   1.4500466148960017E-003
 PAO|CG| beta:   0.21953168465790879     
 PAO| norm of gradient:  0.19191769893822472     
 PAO| energy improvement:  -1.9757921788186472E-002
 PAO| step      9                   -7.784020169  0.120E-01  0.229E+00     0.037
 PAO|LS| adapt:  T F F
 PAO|LS| adapt: scan_steps:    0.0000000000000000        0.0000000000000000        0.0000000000000000     
 PAO|LS| adapt: energies:   -7.7840201692288513        0.0000000000000000        0.0000000000000000     
 PAO| ======================= Iteration:        10 =============================

     Lanczos converged:  T threshold:   0.100E-02
     Est. extremal eigenvalues:    0.282E+01   0.174E+00
     Est. condition number :    0.162E+02

 Order=           3
     NS sqrt iter    1 1.00000000   0.717E+00       0.001       64.512
     NS sqrt iter    2 1.00000000   0.340E+00       0.001      110.592
     NS sqrt iter    3 1.00000000   0.818E-01       0.001      110.592
     NS sqrt iter    4 1.00000000   0.237E-02       0.001      110.592
     NS sqrt iter    5 1.00000000   0.121E-06       0.001       76.416
     Symmetrizing Results
     Final NS sqrt iter    5 1.00000000   0.137E-08

     Est. extremal eigenvalues     -0.93564     1.71128  converged:  T
     TRS4 it   1 1.00000000   0.880E+00       0.000       16.128   0.100E-07
     TRS4 it   2 1.00000000   0.623E+00       0.000       32.256   0.100E-07
     TRS4 it   3 1.00000000   0.427E+00       0.000       32.256   0.100E-07
     TRS4 it   4 1.00000000   0.220E+00       0.000       32.256   0.100E-07
     TRS4 it   5 1.00000000   0.734E-01       0.000       32.256   0.100E-07
     TRS4 it   6 1.00000000   0.102E-01       0.000       32.256   0.100E-07
     TRS4 it   7 1.00000000   0.260E-03       0.000       32.256   0.100E-07
     TRS4 it   8 1.00000000   0.238E-06       0.000       32.256   0.100E-07
     TRS4 it   9 1.00000000   0.246E-12       0.000       32.256   0.100E-07
     Final TRS4 iteration    9 1.00000000   0.246E-12
     Chemical potential (mu):       0.00681
 
 PAO| energy:  -7.7890533373546811      penalty:   1.4547704383995525E-005
 PAO|LS| adapt:  T T F
 PAO|LS| adapt: scan_steps:    0.0000000000000000       0.22890186946993274        0.0000000000000000     
 PAO|LS| adapt: energies:   -7.7840201692288513       -7.7890533373546811        0.0000000000000000     
 PAO| ======================= Iteration:        11 =============================

     Lanczos converged:  T threshold:   0.100E-02
     Est. extremal eigenvalues:    0.279E+01   0.180E+00
     Est. condition number :    0.155E+02

 Order=           3
     NS sqrt iter    1 1.00000000   0.709E+00       0.001       64.512
     NS sqrt iter    2 1.00000000   0.332E+00       0.001      110.592
     NS sqrt iter    3 1.00000000   0.764E-01       0.001      110.592
     NS sqrt iter    4 1.00000000   0.194E-02       0.001      110.592
     NS sqrt iter    5 1.00000000   0.669E-07       0.001       72.064
     Symmetrizing Results
     Final NS sqrt iter    5 1.00000000   0.531E-09

     Est. extremal eigenvalues     -0.93556     1.71011  converged:  T
     TRS4 it   1 1.00000000   0.879E+00       0.000       16.128   0.100E-07
     TRS4 it   2 1.00000000   0.622E+00       0.000       32.256   0.100E-07
     TRS4 it   3 1.00000000   0.425E+00       0.000       32.256   0.100E-07
     TRS4 it   4 1.00000000   0.218E+00       0.000       32.256   0.100E-07
     TRS4 it   5 1.00000000   0.718E-01       0.000       32.256   0.100E-07
     TRS4 it   6 1.00000000   0.966E-02       0.000       32.256   0.100E-07
     TRS4 it   7 1.00000000   0.230E-03       0.000       32.256   0.100E-07
     TRS4 it   8 1.00000000   0.181E-06       0.000       32.256   0.100E-07
     TRS4 it   9 1.00000000   0.139E-12       0.000       32.256   0.100E-07
     Final TRS4 iteration    9 1.00000000   0.139E-12
     Chemical potential (mu):       0.00996
 
 PAO| energy:  -7.7876780740949547      penalty:   1.5748631409384191E-005
 PAO|LS| adapt:  T T T
 PAO|LS| adapt: scan_steps:    0.0000000000000000       0.22890186946993274       0.45780373893986548     
 PAO|LS| adapt: energies:   -7.7840201692288513       -7.7890533373546811       -7.7876780740949547     
 PAO|LS| adapt: suggested step_size:   0.29422996708219806     
 PAO|LS| adapt: predicted energy  -7.7893143268855907     
 PAO| ======================= Iteration:        12 =============================

     Lanczos converged:  T threshold:   0.100E-02
     Est. extremal eigenvalues:    0.281E+01   0.176E+00
     Est. condition number :    0.160E+02

 Order=           3
     NS sqrt iter    1 1.00000000   0.715E+00       0.001       64.512
     NS sqrt iter    2 1.00000000   0.338E+00       0.001      110.592
     NS sqrt iter    3 1.00000000   0.802E-01       0.001      110.592
     NS sqrt iter    4 1.00000000   0.224E-02       0.001      110.592
     NS sqrt iter    5 1.00000000   0.102E-06       0.001       75.648
     Symmetrizing Results
     Final NS sqrt iter    5 1.00000000   0.122E-08

     Est. extremal eigenvalues     -0.93571     1.71082  converged:  T
     TRS4 it   1 1.00000000   0.880E+00       0.000       16.128   0.100E-07
     TRS4 it   2 1.00000000   0.623E+00       0.000       32.256   0.100E-07
     TRS4 it   3 1.00000000   0.426E+00       0.000       32.256   0.100E-07
     TRS4 it   4 1.00000000   0.220E+00       0.000       32.256   0.100E-07
     TRS4 it   5 1.00000000   0.729E-01       0.000       32.256   0.100E-07
     TRS4 it   6 1.00000000   0.100E-01       0.000       32.256   0.100E-07
     TRS4 it   7 1.00000000   0.251E-03       0.000       32.256   0.100E-07
     TRS4 it   8 1.00000000   0.220E-06       0.000       32.256   0.100E-07
     TRS4 it   9 1.00000000   0.209E-12       0.000       32.256   0.100E-07
     Final TRS4 iteration    9 1.00000000   0.209E-12
     Chemical potential (mu):       0.00770
 
 PAO| energy:  -7.7892980739978288      penalty:   1.4814833574131042E-005
 PAO|CG| trace_G_new    1.1812223758047439E-002
 PAO|CG| trace_G_prev    3.6832403165743065E-002
 PAO|CG| trace_G_mix   -4.5440431391278384E-004
 PAO|CG| trace_D    4.4599951506517327E-002
 PAO|CG| trace_D_Gnew   2.0582894218277876E-004
 PAO|CG| beta:   0.33303903676231256     
 PAO| norm of gradient:  0.10868405475527419     
 PAO| energy improvement:  -5.2779047689774927E-003
 PAO| step     12                   -7.789298074  0.679E-02  0.294E+00     0.036
 PAO|LS| adapt:  T F F
 PAO|LS| adapt: scan_steps:    0.0000000000000000        0.0000000000000000        0.0000000000000000     
 PAO|LS| adapt: energies:   -7.7892980739978288        0.0000000000000000        0.0000000000000000     
 PAO| ======================= Iteration:        13 =============================

     Lanczos converged:  T threshold:   0.100E-02
     Est. extremal eigenvalues:    0.278E+01   0.180E+00
     Est. condition number :    0.155E+02

 Order=           3
     NS sqrt iter    1 1.00000000   0.708E+00       0.001       64.512
     NS sqrt iter    2 1.00000000   0.331E+00       0.001      110.592
     NS sqrt iter    3 1.00000000   0.758E-01       0.001      110.592
     NS sqrt iter    4 1.00000000   0.191E-02       0.001      110.592
     NS sqrt iter    5 1.00000000   0.641E-07       0.001       71.680
     Symmetrizing Results
     Final NS sqrt iter    5 1.00000000   0.544E-09

     Est. extremal eigenvalues     -0.93620     1.70509  converged:  T
     TRS4 it   1 1.00000000   0.879E+00       0.000       16.128   0.100E-07
     TRS4 it   2 1.00000000   0.620E+00       0.000       32.256   0.100E-07
     TRS4 it   3 1.00000000   0.422E+00       0.000       32.256   0.100E-07
     TRS4 it   4 1.00000000   0.215E+00       0.000       32.256   0.100E-07
     TRS4 it   5 1.00000000   0.695E-01       0.000       32.256   0.100E-07
     TRS4 it   6 1.00000000   0.906E-02       0.000       32.256   0.100E-07
     TRS4 it   7 1.00000000   0.202E-03       0.000       32.256   0.100E-07
     TRS4 it   8 1.00000000   0.139E-06       0.000       32.256   0.100E-07
     TRS4 it   9 1.00000000   0.813E-13       0.000       32.256   0.100E-07
     Final TRS4 iteration    9 1.00000000   0.813E-13
     Chemical potential (mu):       0.01214
 
 PAO| energy:  -7.7913696167619344      penalty:   1.5122021518149123E-005
 PAO|LS| adapt:  T T F
 PAO|LS| adapt: scan_steps:    0.0000000000000000       0.29422996708219806        0.0000000000000000     
 PAO|LS| adapt: energies:   -7.7892980739978288       -7.7913696167619344        0.0000000000000000     
 PAO| ======================= Iteration:        14 =============================

     Lanczos converged:  T threshold:   0.100E-02
     Est. extremal eigenvalues:    0.274E+01   0.184E+00
     Est. condition number :    0.149E+02

 Order=           3
     NS sqrt iter    1 1.00000000   0.701E+00       0.001       64.512
     NS sqrt iter    2 1.00000000   0.324E+00       0.001      110.592
     NS sqrt iter    3 1.00000000   0.717E-01       0.001      110.592
     NS sqrt iter    4 1.00000000   0.162E-02       0.001      110.592
     NS sqrt iter    5 1.00000000   0.400E-07       0.001       67.968
     Symmetrizing Results
     Final NS sqrt iter    5 1.00000000   0.337E-09

     Est. extremal eigenvalues     -0.93618     1.69960  converged:  T
     TRS4 it   1 1.00000000   0.879E+00       0.000       16.128   0.100E-07
     TRS4 it   2 1.00000000   0.617E+00       0.000       32.256   0.100E-07
     TRS4 it   3 1.00000000   0.419E+00       0.000       32.256   0.100E-07
     TRS4 it   4 1.00000000   0.210E+00       0.000       32.256   0.100E-07
     TRS4 it   5 1.00000000   0.662E-01       0.000       32.256   0.100E-07
     TRS4 it   6 1.00000000   0.817E-02       0.000       32.256   0.100E-07
     TRS4 it   7 1.00000000   0.162E-03       0.000       32.256   0.100E-07
     TRS4 it   8 1.00000000   0.874E-07       0.000       32.256   0.100E-07
     TRS4 it   9 1.00000000   0.317E-13       0.000       32.256   0.100E-07
     Final TRS4 iteration    9 1.00000000   0.317E-13
     Chemical potential (mu):       0.01648
 
 PAO| energy:  -7.7907237306442401      penalty:   1.5911428240108401E-005
 PAO|LS| adapt:  T T T
 PAO|LS| adapt: scan_steps:    0.0000000000000000       0.29422996708219806       0.58845993416439613     
 PAO|LS| adapt: energies:   -7.7892980739978288       -7.7913696167619344       -7.7907237306442401     
 PAO|LS| adapt: suggested step_size:   0.37141154687505312     
 PAO|LS| adapt: predicted energy  -7.7914631103252372     
 PAO| ======================= Iteration:        15 =============================

     Lanczos converged:  T threshold:   0.100E-02
     Est. extremal eigenvalues:    0.277E+01   0.181E+00
     Est. condition number :    0.153E+02

 Order=           3
     NS sqrt iter    1 1.00000000   0.706E+00       0.001       64.512
     NS sqrt iter    2 1.00000000   0.329E+00       0.001      110.592
     NS sqrt iter    3 1.00000000   0.747E-01       0.001      110.592
     NS sqrt iter    4 1.00000000   0.183E-02       0.001      110.592
     NS sqrt iter    5 1.00000000   0.566E-07       0.001       70.912
     Symmetrizing Results
     Final NS sqrt iter    5 1.00000000   0.475E-09

     Est. extremal eigenvalues     -0.93624     1.70363  converged:  T
     TRS4 it   1 1.00000000   0.879E+00       0.000       16.128   0.100E-07
     TRS4 it   2 1.00000000   0.619E+00       0.000       32.256   0.100E-07
     TRS4 it   3 1.00000000   0.421E+00       0.000       32.256   0.100E-07
     TRS4 it   4 1.00000000   0.214E+00       0.000       32.256   0.100E-07
     TRS4 it   5 1.00000000   0.686E-01       0.000       32.256   0.100E-07
     TRS4 it   6 1.00000000   0.882E-02       0.000       32.256   0.100E-07
     TRS4 it   7 1.00000000   0.190E-03       0.000       32.256   0.100E-07
     TRS4 it   8 1.00000000   0.123E-06       0.000       32.256   0.100E-07
     TRS4 it   9 1.00000000   0.642E-13       0.000       32.256   0.100E-07
     Final TRS4 iteration    9 1.00000000   0.642E-13
     Chemical potential (mu):       0.01329
 
 PAO| energy:  -7.7914600216044887      penalty:   1.5279370939047562E-005
 PAO|CG| trace_G_new    2.6288271366008615E-003
 PAO|CG| trace_G_prev    1.1812223758047439E-002
 PAO|CG| trace_G_mix    6.1824447681088729E-005
 PAO|CG| trace_D    1.6621929234445668E-002
 PAO|CG| trace_D_Gnew   3.4210808216157275E-005
 PAO|CG| beta:   0.21731747903699536     
 PAO| norm of gradient:   5.1272089255274760E-002
 PAO| energy improvement:  -2.1619476066598864E-003
 PAO| step     15                   -7.791460022  0.320E-02  0.371E+00     0.036
 PAO|LS| adapt:  T F F
 PAO|LS| adapt: scan_steps:    0.0000000000000000        0.0000000000000000        0.0000000000000000     
 PAO|LS| adapt: energies:   -7.7914600216044887        0.0000000000000000        0.0000000000000000     
 PAO| ======================= Iteration:        16 =============================

     Lanczos converged:  T threshold:   0.100E-02
     Est. extremal eigenvalues:    0.276E+01   0.182E+00
     Est. condition number :    0.152E+02

 Order=           3
     NS sqrt iter    1 1.00000000   0.704E+00       0.001       64.512
     NS sqrt iter    2 1.00000000   0.327E+00       0.001      110.592
     NS sqrt iter    3 1.00000000   0.740E-01       0.001      110.592
     NS sqrt iter    4 1.00000000   0.177E-02       0.001      110.592
     NS sqrt iter    5 1.00000000   0.512E-07       0.001       70.528
     Symmetrizing Results
     Final NS sqrt iter    5 1.00000000   0.443E-09

     Est. extremal eigenvalues     -0.93627     1.70299  converged:  T
     TRS4 it   1 1.00000000   0.879E+00       0.000       16.128   0.100E-07
     TRS4 it   2 1.00000000   0.618E+00       0.000       32.256   0.100E-07
     TRS4 it   3 1.00000000   0.420E+00       0.000       32.256   0.100E-07
     TRS4 it   4 1.00000000   0.212E+00       0.000       32.256   0.100E-07
     TRS4 it   5 1.00000000   0.675E-01       0.000       32.256   0.100E-07
     TRS4 it   6 1.00000000   0.853E-02       0.000       32.256   0.100E-07
     TRS4 it   7 1.00000000   0.179E-03       0.000       32.256   0.100E-07
     TRS4 it   8 1.00000000   0.110E-06       0.000       32.256   0.100E-07
     TRS4 it   9 1.00000000   0.517E-13       0.000       32.256   0.100E-07
     Final TRS4 iteration    9 1.00000000   0.517E-13
     Chemical potential (mu):       0.01412
 
 PAO| energy:  -7.7915837344442327      penalty:   1.5060570243118906E-005
 PAO|LS| adapt:  T T F
 PAO|LS| adapt: scan_steps:    0.0000000000000000       0.37141154687505312        0.0000000000000000     
 PAO|LS| adapt: energies:   -7.7914600216044887       -7.7915837344442327        0.0000000000000000     
 PAO| ======================= Iteration:        17 =============================

     Lanczos converged:  T threshold:   0.100E-02
     Est. extremal eigenvalues:    0.275E+01   0.182E+00
     Est. condition number :    0.151E+02

 Order=           3
     NS sqrt iter    1 1.00000000   0.702E+00       0.001       64.512
     NS sqrt iter    2 1.00000000   0.326E+00       0.001      110.592
     NS sqrt iter    3 1.00000000   0.733E-01       0.001      110.592
     NS sqrt iter    4 1.00000000   0.172E-02       0.001      110.592
     NS sqrt iter    5 1.00000000   0.463E-07       0.001       69.504
     Symmetrizing Results
     Final NS sqrt iter    5 1.00000000   0.359E-09

     Est. extremal eigenvalues     -0.93617     1.70243  converged:  T
     TRS4 it   1 1.00000000   0.880E+00       0.000       16.128   0.100E-07
     TRS4 it   2 1.00000000   0.618E+00       0.000       32.256   0.100E-07
     TRS4 it   3 1.00000000   0.419E+00       0.000       32.256   0.100E-07
     TRS4 it   4 1.00000000   0.210E+00       0.000       32.256   0.100E-07
     TRS4 it   5 1.00000000   0.664E-01       0.000       32.256   0.100E-07
     TRS4 it   6 1.00000000   0.826E-02       0.000       32.256   0.100E-07
     TRS4 it   7 1.00000000   0.169E-03       0.000       32.256   0.100E-07
     TRS4 it   8 1.00000000   0.987E-07       0.000       32.256   0.100E-07
     TRS4 it   9 1.00000000   0.417E-13       0.000       32.256   0.100E-07
     Final TRS4 iteration    9 1.00000000   0.417E-13
     Chemical potential (mu):       0.01492
 
 PAO| energy:  -7.7900019807587055      penalty:   1.4969038766735985E-005
 PAO|LS| adapt:  T T T
 PAO|LS| adapt: scan_steps:    0.0000000000000000       0.37141154687505312       0.74282309375010624     
 PAO|LS| adapt: energies:   -7.7914600216044887       -7.7915837344442327       -7.7900019807587055     
 PAO|LS| adapt: suggested step_size:   0.21264759639140560     
 PAO|LS| adapt: predicted energy  -7.7917395483429868     
 PAO| ======================= Iteration:        18 =============================

     Lanczos converged:  T threshold:   0.100E-02
     Est. extremal eigenvalues:    0.276E+01   0.181E+00
     Est. condition number :    0.152E+02

 Order=           3
     NS sqrt iter    1 1.00000000   0.705E+00       0.001       64.512
     NS sqrt iter    2 1.00000000   0.328E+00       0.001      110.592
     NS sqrt iter    3 1.00000000   0.743E-01       0.001      110.592
     NS sqrt iter    4 1.00000000   0.180E-02       0.001      110.592
     NS sqrt iter    5 1.00000000   0.534E-07       0.001       70.656
     Symmetrizing Results
     Final NS sqrt iter    5 1.00000000   0.448E-09

     Est. extremal eigenvalues     -0.93627     1.70325  converged:  T
     TRS4 it   1 1.00000000   0.879E+00       0.000       16.128   0.100E-07
     TRS4 it   2 1.00000000   0.619E+00       0.000       32.256   0.100E-07
     TRS4 it   3 1.00000000   0.421E+00       0.000       32.256   0.100E-07
     TRS4 it   4 1.00000000   0.213E+00       0.000       32.256   0.100E-07
     TRS4 it   5 1.00000000   0.680E-01       0.000       32.256   0.100E-07
     TRS4 it   6 1.00000000   0.865E-02       0.000       32.256   0.100E-07
     TRS4 it   7 1.00000000   0.184E-03       0.000       32.256   0.100E-07
     TRS4 it   8 1.00000000   0.115E-06       0.000       32.256   0.100E-07
     TRS4 it   9 1.00000000   0.566E-13       0.000       32.256   0.100E-07
     Final TRS4 iteration    9 1.00000000   0.566E-13
     Chemical potential (mu):       0.01377
 
 PAO| energy:  -7.7917390808368552      penalty:   1.5138806700137125E-005
 PAO|CG| trace_G_new    7.2926826598043238E-004
 PAO|CG| trace_G_prev    2.6288271366008615E-003
 PAO|CG| trace_G_mix    1.6320508507381272E-006
 PAO|CG| trace_D    3.3989598920135438E-003
 PAO|CG| trace_D_Gnew  -1.7484641631246324E-006
 PAO|CG| beta:   0.27679119900996835     
 PAO| norm of gradient:   2.7004967431575110E-002
 PAO| energy improvement:  -2.7905923236648533E-004
 PAO| step     18                   -7.791739081  0.169E-02  0.213E+00     0.036
 PAO|LS| adapt:  T F F
 PAO|LS| adapt: scan_steps:    0.0000000000000000        0.0000000000000000        0.0000000000000000     
 PAO|LS| adapt: energies:   -7.7917390808368552        0.0000000000000000        0.0000000000000000     
 PAO| ======================= Iteration:        19 =============================

     Lanczos converged:  T threshold:   0.100E-02
     Est. extremal eigenvalues:    0.276E+01   0.181E+00
     Est. condition number :    0.153E+02

 Order=           3
     NS sqrt iter    1 1.00000000   0.705E+00       0.001       64.512
     NS sqrt iter    2 1.00000000   0.328E+00       0.001      110.592
     NS sqrt iter    3 1.00000000   0.745E-01       0.001      110.592
     NS sqrt iter    4 1.00000000   0.180E-02       0.001      110.592
     NS sqrt iter    5 1.00000000   0.538E-07       0.001       70.784
     Symmetrizing Results
     Final NS sqrt iter    5 1.00000000   0.462E-09

     Est. extremal eigenvalues     -0.93627     1.70353  converged:  T
     TRS4 it   1 1.00000000   0.879E+00       0.000       16.128   0.100E-07
     TRS4 it   2 1.00000000   0.619E+00       0.000       32.256   0.100E-07
     TRS4 it   3 1.00000000   0.421E+00       0.000       32.256   0.100E-07
     TRS4 it   4 1.00000000   0.213E+00       0.000       32.256   0.100E-07
     TRS4 it   5 1.00000000   0.679E-01       0.000       32.256   0.100E-07
     TRS4 it   6 1.00000000   0.864E-02       0.000       32.256   0.100E-07
     TRS4 it   7 1.00000000   0.184E-03       0.000       32.256   0.100E-07
     TRS4 it   8 1.00000000   0.117E-06       0.000       32.256   0.100E-07
     TRS4 it   9 1.00000000   0.590E-13       0.000       32.256   0.100E-07
     Final TRS4 iteration    9 1.00000000   0.590E-13
     Chemical potential (mu):       0.01350
 
 PAO| energy:  -7.7918574200151802      penalty:   1.4849090190547797E-005
 PAO|LS| adapt:  T T F
 PAO|LS| adapt: scan_steps:    0.0000000000000000       0.21264759639140560        0.0000000000000000     
 PAO|LS| adapt: energies:   -7.7917390808368552       -7.7918574200151802        0.0000000000000000     
 PAO| ======================= Iteration:        20 =============================

     Lanczos converged:  T threshold:   0.100E-02
     Est. extremal eigenvalues:    0.276E+01   0.181E+00
     Est. condition number :    0.153E+02

 Order=           3
     NS sqrt iter    1 1.00000000   0.705E+00       0.001       64.512
     NS sqrt iter    2 1.00000000   0.328E+00       0.001      110.592
     NS sqrt iter    3 1.00000000   0.747E-01       0.001      110.592
     NS sqrt iter    4 1.00000000   0.181E-02       0.001      110.592
     NS sqrt iter    5 1.00000000   0.543E-07       0.001       70.912
     Symmetrizing Results
     Final NS sqrt iter    5 1.00000000   0.470E-09

     Est. extremal eigenvalues     -0.93627     1.70380  converged:  T
     TRS4 it   1 1.00000000   0.879E+00       0.000       16.128   0.100E-07
     TRS4 it   2 1.00000000   0.619E+00       0.000       32.256   0.100E-07
     TRS4 it   3 1.00000000   0.420E+00       0.000       32.256   0.100E-07
     TRS4 it   4 1.00000000   0.212E+00       0.000       32.256   0.100E-07
     TRS4 it   5 1.00000000   0.678E-01       0.000       32.256   0.100E-07
     TRS4 it   6 1.00000000   0.864E-02       0.000       32.256   0.100E-07
     TRS4 it   7 1.00000000   0.185E-03       0.000       32.256   0.100E-07
     TRS4 it   8 1.00000000   0.119E-06       0.000       32.256   0.100E-07
     TRS4 it   9 1.00000000   0.605E-13       0.000       32.256   0.100E-07
     Final TRS4 iteration    9 1.00000000   0.605E-13
     Chemical potential (mu):       0.01322
 
 PAO| energy:  -7.7919016782828940      penalty:   1.4571836221521023E-005
 PAO|LS| adapt:  T T F
 PAO|LS| adapt: scan_steps:    0.0000000000000000       0.42529519278281119        0.0000000000000000     
 PAO|LS| adapt: energies:   -7.7917390808368552       -7.7919016782828940        0.0000000000000000     
 PAO| ======================= Iteration:        21 =============================

     Lanczos converged:  T threshold:   0.100E-02
     Est. extremal eigenvalues:    0.277E+01   0.181E+00
     Est. condition number :    0.153E+02

 Order=           3
     NS sqrt iter    1 1.00000000   0.705E+00       0.001       64.512
     NS sqrt iter    2 1.00000000   0.329E+00       0.001      110.592
     NS sqrt iter    3 1.00000000   0.752E-01       0.001      110.592
     NS sqrt iter    4 1.00000000   0.183E-02       0.001      110.592
     NS sqrt iter    5 1.00000000   0.553E-07       0.001       71.168
     Symmetrizing Results
     Final NS sqrt iter    5 1.00000000   0.478E-09

     Est. extremal eigenvalues     -0.93626     1.70436  converged:  T
     TRS4 it   1 1.00000000   0.880E+00       0.000       16.128   0.100E-07
     TRS4 it   2 1.00000000   0.619E+00       0.000       32.256   0.100E-07
     TRS4 it   3 1.00000000   0.420E+00       0.000       32.256   0.100E-07
     TRS4 it   4 1.00000000   0.212E+00       0.000       32.256   0.100E-07
     TRS4 it   5 1.00000000   0.676E-01       0.000       32.256   0.100E-07
     TRS4 it   6 1.00000000   0.862E-02       0.000       32.256   0.100E-07
     TRS4 it   7 1.00000000   0.186E-03       0.000       32.256   0.100E-07
     TRS4 it   8 1.00000000   0.122E-06       0.000       32.256   0.100E-07
     TRS4 it   9 1.00000000   0.649E-13       0.000       32.256   0.100E-07
     Final TRS4 iteration    9 1.00000000   0.649E-13
     Chemical potential (mu):       0.01267
 
 PAO| energy:  -7.7917655505029337      penalty:   1.4054141486291614E-005
 PAO|LS| Need extra step
 PAO|LS| adapt:  T T T
 PAO|LS| adapt: scan_steps:    0.0000000000000000       0.42529519278281119       0.85059038556562239     
 PAO|LS| adapt: energies:   -7.7917390808368552       -7.7919016782828940       -7.7917655505029337     
 PAO|LS| adapt: suggested step_size:   0.44413762850299882     
 PAO|LS| adapt: predicted energy  -7.7919019714633659     
 PAO| ======================= Iteration:        22 =============================

     Lanczos converged:  T threshold:   0.100E-02
     Est. extremal eigenvalues:    0.276E+01   0.181E+00
     Est. condition number :    0.153E+02

 Order=           3
     NS sqrt iter    1 1.00000000   0.705E+00       0.001       64.512
     NS sqrt iter    2 1.00000000   0.328E+00       0.001      110.592
     NS sqrt iter    3 1.00000000   0.748E-01       0.001      110.592
     NS sqrt iter    4 1.00000000   0.181E-02       0.001      110.592
     NS sqrt iter    5 1.00000000   0.543E-07       0.001       70.912
     Symmetrizing Results
     Final NS sqrt iter    5 1.00000000   0.471E-09

     Est. extremal eigenvalues     -0.93627     1.70383  converged:  T
     TRS4 it   1 1.00000000   0.879E+00       0.000       16.128   0.100E-07
     TRS4 it   2 1.00000000   0.619E+00       0.000       32.256   0.100E-07
     TRS4 it   3 1.00000000   0.420E+00       0.000       32.256   0.100E-07
     TRS4 it   4 1.00000000   0.212E+00       0.000       32.256   0.100E-07
     TRS4 it   5 1.00000000   0.678E-01       0.000       32.256   0.100E-07
     TRS4 it   6 1.00000000   0.863E-02       0.000       32.256   0.100E-07
     TRS4 it   7 1.00000000   0.185E-03       0.000       32.256   0.100E-07
     TRS4 it   8 1.00000000   0.119E-06       0.000       32.256   0.100E-07
     TRS4 it   9 1.00000000   0.602E-13       0.000       32.256   0.100E-07
     Final TRS4 iteration    9 1.00000000   0.602E-13
     Chemical potential (mu):       0.01320
 
 PAO| energy:  -7.7919020068831726      penalty:   1.4547864245978166E-005
 PAO|CG| trace_G_new    2.2216453997339167E-004
 PAO|CG| trace_G_prev    7.2926826598043238E-004
 PAO|CG| trace_G_mix    3.0406639796334513E-006
 PAO|CG| trace_D    9.9064194947681553E-004
 PAO|CG| trace_D_Gnew  -1.8729888382398773E-006
 PAO|CG| beta:   0.30047087774917347     
 PAO| norm of gradient:   1.4905185002991130E-002
 PAO| energy improvement:  -1.6292604631740204E-004
 PAO| step     22                   -7.791902007  0.932E-03  0.444E+00     0.047
 PAO|LS| adapt:  T F F
 PAO|LS| adapt: scan_steps:    0.0000000000000000        0.0000000000000000        0.0000000000000000     
 PAO|LS| adapt: energies:   -7.7919020068831726        0.0000000000000000        0.0000000000000000     
 PAO| ======================= Iteration:        23 =============================

     Lanczos converged:  T threshold:   0.100E-02
     Est. extremal eigenvalues:    0.277E+01   0.181E+00
     Est. condition number :    0.153E+02

 Order=           3
     NS sqrt iter    1 1.00000000   0.705E+00       0.001       64.512
     NS sqrt iter    2 1.00000000   0.329E+00       0.001      110.592
     NS sqrt iter    3 1.00000000   0.748E-01       0.001      110.592
     NS sqrt iter    4 1.00000000   0.182E-02       0.001      110.592
     NS sqrt iter    5 1.00000000   0.544E-07       0.001       70.912
     Symmetrizing Results
     Final NS sqrt iter    5 1.00000000   0.475E-09

     Est. extremal eigenvalues     -0.93627     1.70379  converged:  T
     TRS4 it   1 1.00000000   0.879E+00       0.000       16.128   0.100E-07
     TRS4 it   2 1.00000000   0.619E+00       0.000       32.256   0.100E-07
     TRS4 it   3 1.00000000   0.420E+00       0.000       32.256   0.100E-07
     TRS4 it   4 1.00000000   0.213E+00       0.000       32.256   0.100E-07
     TRS4 it   5 1.00000000   0.679E-01       0.000       32.256   0.100E-07
     TRS4 it   6 1.00000000   0.868E-02       0.000       32.256   0.100E-07
     TRS4 it   7 1.00000000   0.187E-03       0.000       32.256   0.100E-07
     TRS4 it   8 1.00000000   0.122E-06       0.000       32.256   0.100E-07
     TRS4 it   9 1.00000000   0.638E-13       0.000       32.256   0.100E-07
     Final TRS4 iteration    9 1.00000000   0.638E-13
     Chemical potential (mu):       0.01289
 
 PAO| energy:  -7.7919511517846063      penalty:   1.3865624094696980E-005
 PAO|LS| adapt:  T T F
 PAO|LS| adapt: scan_steps:    0.0000000000000000       0.44413762850299882        0.0000000000000000     
 PAO|LS| adapt: energies:   -7.7919020068831726       -7.7919511517846063        0.0000000000000000     
 PAO| ======================= Iteration:        24 =============================

     Lanczos converged:  T threshold:   0.100E-02
     Est. extremal eigenvalues:    0.277E+01   0.181E+00
     Est. condition number :    0.153E+02

 Order=           3
     NS sqrt iter    1 1.00000000   0.705E+00       0.001       64.512
     NS sqrt iter    2 1.00000000   0.329E+00       0.001      110.592
     NS sqrt iter    3 1.00000000   0.749E-01       0.001      110.592
     NS sqrt iter    4 1.00000000   0.182E-02       0.001      110.592
     NS sqrt iter    5 1.00000000   0.545E-07       0.001       70.912
     Symmetrizing Results
     Final NS sqrt iter    5 1.00000000   0.480E-09

     Est. extremal eigenvalues     -0.93626     1.70375  converged:  T
     TRS4 it   1 1.00000000   0.879E+00       0.000       16.128   0.100E-07
     TRS4 it   2 1.00000000   0.619E+00       0.000       32.256   0.100E-07
     TRS4 it   3 1.00000000   0.421E+00       0.000       32.256   0.100E-07
     TRS4 it   4 1.00000000   0.213E+00       0.000       32.256   0.100E-07
     TRS4 it   5 1.00000000   0.680E-01       0.000       32.256   0.100E-07
     TRS4 it   6 1.00000000   0.872E-02       0.000       32.256   0.100E-07
     TRS4 it   7 1.00000000   0.189E-03       0.000       32.256   0.100E-07
     TRS4 it   8 1.00000000   0.125E-06       0.000       32.256   0.100E-07
     TRS4 it   9 1.00000000   0.680E-13       0.000       32.256   0.100E-07
     Final TRS4 iteration    9 1.00000000   0.680E-13
     Chemical potential (mu):       0.01257
 
 PAO| energy:  -7.7919001092957254      penalty:   1.3211635439911355E-005
 PAO|LS| adapt:  T T T
 PAO|LS| adapt: scan_steps:    0.0000000000000000       0.44413762850299882       0.88827525700599763     
 PAO|LS| adapt: energies:   -7.7919020068831726       -7.7919511517846063       -7.7919001092957254     
 PAO|LS| adapt: suggested step_size:   0.43993156032406439     
 PAO|LS| adapt: predicted energy  -7.7919511562772348     
 PAO| ======================= Iteration:        25 =============================

     Lanczos converged:  T threshold:   0.100E-02
     Est. extremal eigenvalues:    0.277E+01   0.181E+00
     Est. condition number :    0.153E+02

 Order=           3
     NS sqrt iter    1 1.00000000   0.705E+00       0.001       64.512
     NS sqrt iter    2 1.00000000   0.329E+00       0.001      110.592
     NS sqrt iter    3 1.00000000   0.748E-01       0.001      110.592
     NS sqrt iter    4 1.00000000   0.182E-02       0.001      110.592
     NS sqrt iter    5 1.00000000   0.544E-07       0.001       70.912
     Symmetrizing Results
     Final NS sqrt iter    5 1.00000000   0.475E-09

     Est. extremal eigenvalues     -0.93627     1.70379  converged:  T
     TRS4 it   1 1.00000000   0.879E+00       0.000       16.128   0.100E-07
     TRS4 it   2 1.00000000   0.619E+00       0.000       32.256   0.100E-07
     TRS4 it   3 1.00000000   0.420E+00       0.000       32.256   0.100E-07
     TRS4 it   4 1.00000000   0.213E+00       0.000       32.256   0.100E-07
     TRS4 it   5 1.00000000   0.679E-01       0.000       32.256   0.100E-07
     TRS4 it   6 1.00000000   0.868E-02       0.000       32.256   0.100E-07
     TRS4 it   7 1.00000000   0.187E-03       0.000       32.256   0.100E-07
     TRS4 it   8 1.00000000   0.122E-06       0.000       32.256   0.100E-07
     TRS4 it   9 1.00000000   0.639E-13       0.000       32.256   0.100E-07
     Final TRS4 iteration    9 1.00000000   0.639E-13
     Chemical potential (mu):       0.01289
 
 PAO| energy:  -7.7919511547761005      penalty:   1.3871951578622993E-005
 PAO|CG| trace_G_new    7.8995844962422389E-005
 PAO|CG| trace_G_prev    2.2216453997339167E-004
 PAO|CG| trace_G_mix    6.9831802473722095E-007
 PAO|CG| trace_D    3.1272797502856261E-004
 PAO|CG| trace_D_Gnew  -3.5688890743264963E-007
 PAO|CG| beta:   0.35243035160814928     
 PAO| norm of gradient:   8.8879606751167840E-003
 PAO| energy improvement:  -4.9147892927869918E-005
 PAO| step     25                   -7.791951155  0.555E-03  0.440E+00     0.036
 PAO|LS| adapt:  T F F
 PAO|LS| adapt: scan_steps:    0.0000000000000000        0.0000000000000000        0.0000000000000000     
 PAO|LS| adapt: energies:   -7.7919511547761005        0.0000000000000000        0.0000000000000000     
 PAO| ======================= Iteration:        26 =============================

     Lanczos converged:  T threshold:   0.100E-02
     Est. extremal eigenvalues:    0.276E+01   0.181E+00
     Est. condition number :    0.153E+02

 Order=           3
     NS sqrt iter    1 1.00000000   0.704E+00       0.001       64.512
     NS sqrt iter    2 1.00000000   0.328E+00       0.001      110.592
     NS sqrt iter    3 1.00000000   0.747E-01       0.001      110.592
     NS sqrt iter    4 1.00000000   0.181E-02       0.001      110.592
     NS sqrt iter    5 1.00000000   0.541E-07       0.001       70.912
     Symmetrizing Results
     Final NS sqrt iter    5 1.00000000   0.473E-09

     Est. extremal eigenvalues     -0.93627     1.70360  converged:  T
     TRS4 it   1 1.00000000   0.879E+00       0.000       16.128   0.100E-07
     TRS4 it   2 1.00000000   0.619E+00       0.000       32.256   0.100E-07
     TRS4 it   3 1.00000000   0.420E+00       0.000       32.256   0.100E-07
     TRS4 it   4 1.00000000   0.212E+00       0.000       32.256   0.100E-07
     TRS4 it   5 1.00000000   0.678E-01       0.000       32.256   0.100E-07
     TRS4 it   6 1.00000000   0.866E-02       0.000       32.256   0.100E-07
     TRS4 it   7 1.00000000   0.186E-03       0.000       32.256   0.100E-07
     TRS4 it   8 1.00000000   0.121E-06       0.000       32.256   0.100E-07
     TRS4 it   9 1.00000000   0.628E-13       0.000       32.256   0.100E-07
     Final TRS4 iteration    9 1.00000000   0.628E-13
     Chemical potential (mu):       0.01300
 
 PAO| energy:  -7.7919550680933645      penalty:   1.3152777428541201E-005
 PAO|LS| adapt:  T T F
 PAO|LS| adapt: scan_steps:    0.0000000000000000       0.43993156032406439        0.0000000000000000     
 PAO|LS| adapt: energies:   -7.7919511547761005       -7.7919550680933645        0.0000000000000000     
 PAO| ======================= Iteration:        27 =============================

     Lanczos converged:  T threshold:   0.100E-02
     Est. extremal eigenvalues:    0.276E+01   0.181E+00
     Est. condition number :    0.153E+02

 Order=           3
     NS sqrt iter    1 1.00000000   0.704E+00       0.001       64.512
     NS sqrt iter    2 1.00000000   0.328E+00       0.001      110.592
     NS sqrt iter    3 1.00000000   0.746E-01       0.001      110.592
     NS sqrt iter    4 1.00000000   0.181E-02       0.001      110.592
     NS sqrt iter    5 1.00000000   0.538E-07       0.001       70.784
     Symmetrizing Results
     Final NS sqrt iter    5 1.00000000   0.472E-09

     Est. extremal eigenvalues     -0.93627     1.70342  converged:  T
     TRS4 it   1 1.00000000   0.879E+00       0.000       16.128   0.100E-07
     TRS4 it   2 1.00000000   0.619E+00       0.000       32.256   0.100E-07
     TRS4 it   3 1.00000000   0.420E+00       0.000       32.256   0.100E-07
     TRS4 it   4 1.00000000   0.212E+00       0.000       32.256   0.100E-07
     TRS4 it   5 1.00000000   0.677E-01       0.000       32.256   0.100E-07
     TRS4 it   6 1.00000000   0.864E-02       0.000       32.256   0.100E-07
     TRS4 it   7 1.00000000   0.186E-03       0.000       32.256   0.100E-07
     TRS4 it   8 1.00000000   0.120E-06       0.000       32.256   0.100E-07
     TRS4 it   9 1.00000000   0.622E-13       0.000       32.256   0.100E-07
     Final TRS4 iteration    9 1.00000000   0.622E-13
     Chemical potential (mu):       0.01311
 
 PAO| energy:  -7.7918970881969214      penalty:   1.2456925502992599E-005
 PAO|LS| adapt:  T T T
 PAO|LS| adapt: scan_steps:    0.0000000000000000       0.43993156032406439       0.87986312064812877     
 PAO|LS| adapt: energies:   -7.7919511547761005       -7.7919550680933645       -7.7918970881969214     
 PAO|LS| adapt: suggested step_size:   0.24778129767819626     
 PAO|LS| adapt: predicted energy  -7.7919609717999441     
 PAO| ======================= Iteration:        28 =============================

     Lanczos converged:  T threshold:   0.100E-02
     Est. extremal eigenvalues:    0.277E+01   0.181E+00
     Est. condition number :    0.153E+02

 Order=           3
     NS sqrt iter    1 1.00000000   0.704E+00       0.001       64.512
     NS sqrt iter    2 1.00000000   0.328E+00       0.001      110.592
     NS sqrt iter    3 1.00000000   0.748E-01       0.001      110.592
     NS sqrt iter    4 1.00000000   0.181E-02       0.001      110.592
     NS sqrt iter    5 1.00000000   0.542E-07       0.001       70.912
     Symmetrizing Results
     Final NS sqrt iter    5 1.00000000   0.474E-09

     Est. extremal eigenvalues     -0.93627     1.70368  converged:  T
     TRS4 it   1 1.00000000   0.879E+00       0.000       16.128   0.100E-07
     TRS4 it   2 1.00000000   0.619E+00       0.000       32.256   0.100E-07
     TRS4 it   3 1.00000000   0.420E+00       0.000       32.256   0.100E-07
     TRS4 it   4 1.00000000   0.212E+00       0.000       32.256   0.100E-07
     TRS4 it   5 1.00000000   0.678E-01       0.000       32.256   0.100E-07
     TRS4 it   6 1.00000000   0.867E-02       0.000       32.256   0.100E-07
     TRS4 it   7 1.00000000   0.187E-03       0.000       32.256   0.100E-07
     TRS4 it   8 1.00000000   0.121E-06       0.000       32.256   0.100E-07
     TRS4 it   9 1.00000000   0.627E-13       0.000       32.256   0.100E-07
     Final TRS4 iteration    9 1.00000000   0.627E-13
     Chemical potential (mu):       0.01295
 
 PAO| energy:  -7.7919609626806308      penalty:   1.3464006257193401E-005
 PAO|CG| trace_G_new    3.0759975251635926E-005
 PAO|CG| trace_G_prev    7.8995844962422389E-005
 PAO|CG| trace_G_mix    4.8088938887898808E-008
 PAO|CG| trace_D    1.1809045328745399E-004
 PAO|CG| trace_D_Gnew  -2.4925220435085220E-008
 PAO|CG| beta:   0.38877850255741164     
 PAO| norm of gradient:   5.5461676184222859E-003
 PAO| energy improvement:  -9.8079045303123280E-006
 PAO| step     28                   -7.791960963  0.347E-03  0.248E+00     0.036
 PAO|LS| adapt:  T F F
 PAO|LS| adapt: scan_steps:    0.0000000000000000        0.0000000000000000        0.0000000000000000     
 PAO|LS| adapt: energies:   -7.7919609626806308        0.0000000000000000        0.0000000000000000     
 PAO| ======================= Iteration:        29 =============================

     Lanczos converged:  T threshold:   0.100E-02
     Est. extremal eigenvalues:    0.276E+01   0.181E+00
     Est. condition number :    0.153E+02

 Order=           3
     NS sqrt iter    1 1.00000000   0.704E+00       0.001       64.512
     NS sqrt iter    2 1.00000000   0.328E+00       0.001      110.592
     NS sqrt iter    3 1.00000000   0.747E-01       0.001      110.592
     NS sqrt iter    4 1.00000000   0.181E-02       0.001      110.592
     NS sqrt iter    5 1.00000000   0.542E-07       0.001       70.912
     Symmetrizing Results
     Final NS sqrt iter    5 1.00000000   0.474E-09

     Est. extremal eigenvalues     -0.93627     1.70367  converged:  T
     TRS4 it   1 1.00000000   0.879E+00       0.000       16.128   0.100E-07
     TRS4 it   2 1.00000000   0.619E+00       0.000       32.256   0.100E-07
     TRS4 it   3 1.00000000   0.420E+00       0.000       32.256   0.100E-07
     TRS4 it   4 1.00000000   0.212E+00       0.000       32.256   0.100E-07
     TRS4 it   5 1.00000000   0.678E-01       0.000       32.256   0.100E-07
     TRS4 it   6 1.00000000   0.865E-02       0.000       32.256   0.100E-07
     TRS4 it   7 1.00000000   0.186E-03       0.000       32.256   0.100E-07
     TRS4 it   8 1.00000000   0.120E-06       0.000       32.256   0.100E-07
     TRS4 it   9 1.00000000   0.615E-13       0.000       32.256   0.100E-07
     Final TRS4 iteration    9 1.00000000   0.615E-13
     Chemical potential (mu):       0.01307
 
 PAO| energy:  -7.7919676855395936      penalty:   1.3038698424959859E-005
 PAO|LS| adapt:  T T F
 PAO|LS| adapt: scan_steps:    0.0000000000000000       0.24778129767819626        0.0000000000000000     
 PAO|LS| adapt: energies:   -7.7919609626806308       -7.7919676855395936        0.0000000000000000     
 PAO| ======================= Iteration:        30 =============================

     Lanczos converged:  T threshold:   0.100E-02
     Est. extremal eigenvalues:    0.276E+01   0.181E+00
     Est. condition number :    0.153E+02

 Order=           3
     NS sqrt iter    1 1.00000000   0.704E+00       0.001       64.512
     NS sqrt iter    2 1.00000000   0.328E+00       0.001      110.592
     NS sqrt iter    3 1.00000000   0.746E-01       0.001      110.592
     NS sqrt iter    4 1.00000000   0.181E-02       0.001      110.592
     NS sqrt iter    5 1.00000000   0.541E-07       0.001       70.784
     Symmetrizing Results
     Final NS sqrt iter    5 1.00000000   0.474E-09

     Est. extremal eigenvalues     -0.93627     1.70366  converged:  T
     TRS4 it   1 1.00000000   0.880E+00       0.000       16.128   0.100E-07
     TRS4 it   2 1.00000000   0.619E+00       0.000       32.256   0.100E-07
     TRS4 it   3 1.00000000   0.420E+00       0.000       32.256   0.100E-07
     TRS4 it   4 1.00000000   0.212E+00       0.000       32.256   0.100E-07
     TRS4 it   5 1.00000000   0.677E-01       0.000       32.256   0.100E-07
     TRS4 it   6 1.00000000   0.863E-02       0.000       32.256   0.100E-07
     TRS4 it   7 1.00000000   0.185E-03       0.000       32.256   0.100E-07
     TRS4 it   8 1.00000000   0.119E-06       0.000       32.256   0.100E-07
     TRS4 it   9 1.00000000   0.610E-13       0.000       32.256   0.100E-07
     Final TRS4 iteration    9 1.00000000   0.610E-13
     Chemical potential (mu):       0.01320
 
 PAO| energy:  -7.7919726058790895      penalty:   1.2620985392120785E-005
 PAO|LS| adapt:  T T F
 PAO|LS| adapt: scan_steps:    0.0000000000000000       0.49556259535639252        0.0000000000000000     
 PAO|LS| adapt: energies:   -7.7919609626806308       -7.7919726058790895        0.0000000000000000     
 PAO| ======================= Iteration:        31 =============================

     Lanczos converged:  T threshold:   0.100E-02
     Est. extremal eigenvalues:    0.276E+01   0.181E+00
     Est. condition number :    0.153E+02

 Order=           3
     NS sqrt iter    1 1.00000000   0.704E+00       0.001       64.512
     NS sqrt iter    2 1.00000000   0.328E+00       0.001      110.592
     NS sqrt iter    3 1.00000000   0.745E-01       0.001      110.592
     NS sqrt iter    4 1.00000000   0.181E-02       0.001      110.592
     NS sqrt iter    5 1.00000000   0.540E-07       0.001       70.528
     Symmetrizing Results
     Final NS sqrt iter    5 1.00000000   0.479E-09

     Est. extremal eigenvalues     -0.93628     1.70362  converged:  T
     TRS4 it   1 1.00000000   0.880E+00       0.000       16.128   0.100E-07
     TRS4 it   2 1.00000000   0.619E+00       0.000       32.256   0.100E-07
     TRS4 it   3 1.00000000   0.420E+00       0.000       32.256   0.100E-07
     TRS4 it   4 1.00000000   0.212E+00       0.000       32.256   0.100E-07
     TRS4 it   5 1.00000000   0.675E-01       0.000       32.256   0.100E-07
     TRS4 it   6 1.00000000   0.859E-02       0.000       32.256   0.100E-07
     TRS4 it   7 1.00000000   0.183E-03       0.000       32.256   0.100E-07
     TRS4 it   8 1.00000000   0.116E-06       0.000       32.256   0.100E-07
     TRS4 it   9 1.00000000   0.575E-13       0.000       32.256   0.100E-07
     Final TRS4 iteration    9 1.00000000   0.575E-13
     Chemical potential (mu):       0.01345
 
 PAO| energy:  -7.7919770406538937      penalty:   1.1808194986571678E-005
 PAO|LS| Need extra step
 PAO|LS| adapt:  T T F
 PAO|LS| adapt: scan_steps:    0.0000000000000000       0.99112519071278504        0.0000000000000000     
 PAO|LS| adapt: energies:   -7.7919609626806308       -7.7919770406538937        0.0000000000000000     
 PAO| ======================= Iteration:        32 =============================

     Lanczos converged:  T threshold:   0.100E-02
     Est. extremal eigenvalues:    0.276E+01   0.181E+00
     Est. condition number :    0.153E+02

 Order=           3
[...]
     NS sqrt iter    1 1.00000000   0.631E+00       0.001       64.512
     NS sqrt iter    2 1.00000000   0.274E+00       0.001      110.592
     NS sqrt iter    3 1.00000000   0.483E-01       0.001      110.592
     NS sqrt iter    4 1.00000000   0.746E-03       0.001      110.592
     NS sqrt iter    5 1.00000000   0.545E-08       0.001       38.272
     Symmetrizing Results
     Final NS sqrt iter    5 1.00000000   0.321E-09

     Est. extremal eigenvalues     -0.93596     1.62806  converged:  T
     TRS4 it   1 1.00000000   0.881E+00       0.000       16.128   0.100E-07
     TRS4 it   2 1.00000000   0.632E+00       0.000       32.256   0.100E-07
     TRS4 it   3 1.00000000   0.453E+00       0.000       32.256   0.100E-07
     TRS4 it   4 1.00000000   0.275E+00       0.000       32.256   0.100E-07
     TRS4 it   5 1.00000000   0.135E+00       0.000       32.256   0.100E-07
     TRS4 it   6 1.00000000   0.411E-01       0.000       32.256   0.100E-07
     TRS4 it   7 1.00000000   0.527E-02       0.000       32.256   0.100E-07
     TRS4 it   8 1.00000000   0.117E-03       0.000       32.256   0.100E-07
     TRS4 it   9 1.00000000   0.614E-07       0.000       32.256   0.100E-07
     Final TRS4 iteration    9 1.00000000   0.614E-07
     Chemical potential (mu):      -0.07223
 
 PAO| energy:  -7.7910342721357431      penalty:   2.8430640387737365E-008
 PAO|CG| warming up with steepest descent
 PAO|CG| beta:    0.0000000000000000     
 PAO| norm of gradient:   1.4052418991569461E-004
 PAO| energy improvement:  -5.7726312618910924E-009
 PAO| step    415                   -7.791034272  0.878E-05  0.267E+00     0.053
 PAO| converged after          415  steps :-)
 PAO| Recalculating energy after mixing.

     Lanczos converged:  T threshold:   0.100E-02
     Est. extremal eigenvalues:    0.249E+01   0.191E+00
     Est. condition number :    0.130E+02

 Order=           3
     NS sqrt iter    1 1.00000000   0.631E+00       0.001       64.512
     NS sqrt iter    2 1.00000000   0.274E+00       0.001      110.592
     NS sqrt iter    3 1.00000000   0.483E-01       0.001      110.592
     NS sqrt iter    4 1.00000000   0.746E-03       0.001      110.592
     NS sqrt iter    5 1.00000000   0.545E-08       0.001       38.272
     Symmetrizing Results
     Final NS sqrt iter    5 1.00000000   0.321E-09

     Est. extremal eigenvalues     -0.93596     1.62806  converged:  T
     TRS4 it   1 1.00000000   0.881E+00       0.000       16.128   0.100E-07
     TRS4 it   2 1.00000000   0.632E+00       0.000       32.256   0.100E-07
     TRS4 it   3 1.00000000   0.453E+00       0.000       32.256   0.100E-07
     TRS4 it   4 1.00000000   0.275E+00       0.000       32.256   0.100E-07
     TRS4 it   5 1.00000000   0.135E+00       0.000       32.256   0.100E-07
     TRS4 it   6 1.00000000   0.411E-01       0.000       32.256   0.100E-07
     TRS4 it   7 1.00000000   0.527E-02       0.000       32.256   0.100E-07
     TRS4 it   8 1.00000000   0.117E-03       0.000       32.256   0.100E-07
     TRS4 it   9 1.00000000   0.614E-07       0.000       32.256   0.100E-07
     Final TRS4 iteration    9 1.00000000   0.614E-07
     Chemical potential (mu):      -0.07223
 
 PAO| energy:  -7.7910342706925739      penalty:   2.8738563787511234E-008
 PAO| Writing restart file.
     Est. extremal eigenvalues     -0.93596     1.62806  converged:  T
     TRS4 it   1 1.00000000   0.881E+00       0.000       16.128   0.100E-07
     TRS4 it   2 1.00000000   0.632E+00       0.000       32.256   0.100E-07
     TRS4 it   3 1.00000000   0.453E+00       0.000       32.256   0.100E-07
     TRS4 it   4 1.00000000   0.275E+00       0.000       32.256   0.100E-07
     TRS4 it   5 1.00000000   0.135E+00       0.000       32.256   0.100E-07
     TRS4 it   6 1.00000000   0.411E-01       0.000       32.256   0.100E-07
     TRS4 it   7 1.00000000   0.527E-02       0.000       32.256   0.100E-07
     TRS4 it   8 1.00000000   0.117E-03       0.001       32.256   0.100E-07
     TRS4 it   9 1.00000000   0.614E-07       0.000       32.256   0.100E-07
     Final TRS4 iteration    9 1.00000000   0.614E-07
     Chemical potential (mu):      -0.07223

 SCF     1       -34.450242376       -34.450242376    1.762804

*********************************************************
 Using MIXING_FRACTION=0.450 to mix KS matrix:  iscf=  2
 KS_nw=0.450*KS + 0.550*KS_old
*********************************************************
     Est. extremal eigenvalues     -0.93596     1.62806  converged:  T
     TRS4 it   1 1.00000000   0.881E+00       0.000       16.128   0.100E-07
     TRS4 it   2 1.00000000   0.632E+00       0.000       32.256   0.100E-07
     TRS4 it   3 1.00000000   0.453E+00       0.000       32.256   0.100E-07
     TRS4 it   4 1.00000000   0.275E+00       0.000       32.256   0.100E-07
     TRS4 it   5 1.00000000   0.135E+00       0.000       32.256   0.100E-07
     TRS4 it   6 1.00000000   0.411E-01       0.000       32.256   0.100E-07
     TRS4 it   7 1.00000000   0.527E-02       0.000       32.256   0.100E-07
     TRS4 it   8 1.00000000   0.117E-03       0.000       32.256   0.100E-07
     TRS4 it   9 1.00000000   0.614E-07       0.000       32.256   0.100E-07
     Final TRS4 iteration    9 1.00000000   0.614E-07
     Chemical potential (mu):      -0.07223

 SCF     2       -34.450242376        -0.000000000    1.714349


 SCF run converged in     2 steps.

 PAO| Storing density matrix for ASPC guess in slot:           1

 ENERGY| Total FORCE_EVAL ( QS ) energy [a.u.]:              -34.450242375964400

 -------------------------------------------------------------------------------
 -                                                                             -
 -                                DBCSR STATISTICS                             -
 -                                                                             -
 -------------------------------------------------------------------------------
 COUNTER                                    TOTAL       BLAS       SMM       ACC
 flops     5 x     5 x     4                20000       0.0%    100.0%      0.0%
 flops    13 x     5 x     4                20800       0.0%    100.0%      0.0%
 flops     5 x    13 x     4                20800       0.0%    100.0%      0.0%
 flops    13 x    13 x     4                40560       0.0%    100.0%      0.0%
 flops     4 x     4 x     5              3260160       0.0%    100.0%      0.0%
 flops     5 x     4 x     5              3974400       0.0%    100.0%      0.0%
 flops     4 x     4 x    13              4238208       0.0%    100.0%      0.0%
 flops    13 x     4 x     5              5166720       0.0%    100.0%      0.0%
 flops     5 x     4 x    13              5166720       0.0%    100.0%      0.0%
 flops     5 x     4 x     4              6532160       0.0%    100.0%      0.0%
 flops    13 x     4 x    13              6716736       0.0%    100.0%      0.0%
 flops    13 x     4 x     4              8756384       0.0%    100.0%      0.0%
 flops     4 x     4 x     4            415176064       0.0%    100.0%      0.0%
 flops inhomo. stacks                           0       0.0%      0.0%      0.0%
 flops total                       459.089712E+06       0.0%    100.0%      0.0%
 flops max/rank                    459.089712E+06       0.0%    100.0%      0.0%
 matmuls inhomo. stacks                         0       0.0%      0.0%      0.0%
 matmuls total                            3380924       0.0%    100.0%      0.0%
 number of processed stacks                 27010       0.0%    100.0%      0.0%
 average stack size                                     0.0     125.2       0.0
 marketing flops                   745.197312E+06
 -------------------------------------------------------------------------------
 # multiplications                          22458
 max memory usage/rank             505.671680E+06
 # max total images/rank                        1
 # max 3D layers                                1
 # MPI messages exchanged                       0
 -------------------------------------------------------------------------------

 -------------------------------------------------------------------------------
 -                                                                             -
 -                                DBM STATISTICS                               -
 -                                                                             -
 -------------------------------------------------------------------------------
    M  x    N  x    K                                          COUNT     PERCENT
 -------------------------------------------------------------------------------

 -------------------------------------------------------------------------------
 -                                                                             -
 -                                GRID STATISTICS                              -
 -                                                                             -
 -------------------------------------------------------------------------------
 LP    KERNEL             BACKEND                              COUNT     PERCENT
 2     collocate ortho    REF                                  38030      30.74%
 2     integrate ortho    REF                                  38030      30.74%
 3     collocate ortho    REF                                  19580      15.83%
 3     integrate ortho    REF                                  19580      15.83%
 4     collocate ortho    REF                                   4250       3.44%
 4     integrate ortho    REF                                   4250       3.44%
 0     collocate general  REF                                      6       0.00%
 -------------------------------------------------------------------------------

 MEMORY| Estimated peak process memory [MiB]                                 483

 -------------------------------------------------------------------------------
 -                                                                             -
 -                           R E F E R E N C E S                               -
 -                                                                             -
 -------------------------------------------------------------------------------
 
 CP2K version 2023.1 (Development Version), the CP2K developers group (2023).
 CP2K is freely available from https://www.cp2k.org/ .

 Kuehne,Thomas D.; Iannuzzi,Marcella; Del Ben,Mauro;
 Rybkin,Vladimir V.; Seewald,Patrick; Stein,Frederick; Laino,Teodoro;
 Khaliullin,Rustam Z.; Schuett,Ole; Schiffmann,Florian; Golze,Dorothea;
 Wilhelm,Jan; Chulkov,Sergey; Bani-Hashemian,Mohammad Hossein;
 Weber,Valery; Borstnik,Urban; Taillefumier,Mathieu;
 Jakobovits,Alice Shoshana; Lazzaro,Alfio; Pabst,Hans; Mueller,Tiziano;
 Schade,Robert; Guidon,Manuel; Andermatt,Samuel; Holmberg,Nico;
 Schenter,Gregory K.; Hehn,Anna; Bussy,Augustin; Belleflamme,Fabian;
 Tabacchi,Gloria; Gloess,Andreas; Lass,Michael; Bethune,Iain;
 Mundy,Christopher J.; Plessl,Christian; Watkins,Matt;
 VandeVondele,Joost; Krack,Matthias; Hutter,Juerg. 
 The Journal of Chemical Physics, 152 (19), (2020). 
 CP2K: An electronic structure and molecular dynamics software package -
 Quickstep: Efficient and accurate electronic structure calculations.
 https://doi.org/10.1063/5.0007045

 Schuett, O; VandeVondele, J. 
 Journal of Chemical Theory and Computation, 14, (2018). 
 Machine Learning Adaptive Basis Sets for Efficient Large Scale
 Density Functional Theory Simulation.
 https://doi.org/10.1021/acs.jctc.8b00378

 Schuett, Ole; Messmer, Peter; Hutter, Juerg; VandeVondele, Joost. 
 Electronic Structure Calculations on Graphics Processing Units, John
 Wiley & Sons, Ltd, 173-190 (2016). 
 GPU-Accelerated Sparse Matrix-Matrix Multiplication for
 Linear Scaling Density Functional Theory.
 https://doi.org/10.1002/9781118670712.ch8

 Heinecke, A; Henry, G; Hutchinson, M; Pabst, H. 
 Proceedings of Intl. Supercomputing Conference, 981-991 (2016). 
 LIBXSMM: Accelerating Small Matrix Multiplications
 by Runtime Code Generation.
 https://doi.org/10.1109/SC.2016.83

 Borstnik, U; VandeVondele, J; Weber, V; Hutter, J. 
 PARALLEL COMPUTING, 40 (5-6), 47-58 (2014). 
 Sparse matrix multiplication: The distributed block-compressed sparse
 row library.
 https://doi.org/10.1016/j.parco.2014.03.012

 Hutter, J; Iannuzzi, M; Schiffmann, F; VandeVondele, J. 
 WIREs Comput Mol Sci., 4 (1), 15-25 (2014). 
 CP2K: atomistic simulations of condensed matter systems.
 https://doi.org/10.1002/wcms.1159

 VandeVondele, J; Borstnik, U; Hutter, J. 
 JOURNAL OF CHEMICAL THEORY AND COMPUTATION, 8 (10), 3565-3573 (2012). 
 Linear Scaling Self-Consistent Field Calculations with Millions of Atoms
 in the Condensed Phase.
 https://doi.org/10.1021/ct200897x

 VandeVondele, J; Hutter, J. 
 JOURNAL OF CHEMICAL PHYSICS, 127 (11), 114105 (2007). 
 Gaussian basis sets for accurate calculations on molecular systems in
 gas and condensed phases.
 https://doi.org/10.1063/1.2770708

 Krack, M. 
 THEORETICAL CHEMISTRY ACCOUNTS, 114 (1-3), 145-152 (2005). 
 Pseudopotentials for H to Kr optimized for gradient-corrected
 exchange-correlation functionals.
 https://doi.org/10.1007/s00214-005-0655-y

 VandeVondele, J; Krack, M; Mohamed, F; Parrinello, M; Chassaing, T;
 Hutter, J. COMPUTER PHYSICS COMMUNICATIONS, 167 (2), 103-128 (2005). 
 QUICKSTEP: Fast and accurate density functional calculations using a
 mixed Gaussian and plane waves approach.
 https://doi.org/10.1016/j.cpc.2004.12.014

 Frigo, M; Johnson, SG. 
 PROCEEDINGS OF THE IEEE, 93 (2), 216-231 (2005). 
 The design and implementation of FFTW3.
 https://doi.org/10.1109/JPROC.2004.840301

 Niklasson, AMN; Tymczak, CJ; Challacombe, M. 
 JOURNAL OF CHEMICAL PHYSICS, 118 (19), 8611-8620 (2003). 
 Trace resetting density matrix purification in O(N)
 self-consistent-field theory.
 https://doi.org/10.1063/1.1559913

 Hartwigsen, C; Goedecker, S; Hutter, J. 
 PHYSICAL REVIEW B, 58 (7), 3641-3662 (1998). 
 Relativistic separable dual-space Gaussian pseudopotentials from H to Rn.
 https://doi.org/10.1103/PhysRevB.58.3641

 Lippert, G; Hutter, J; Parrinello, M. 
 MOLECULAR PHYSICS, 92 (3), 477-487 (1997). 
 A hybrid Gaussian and plane wave density functional scheme.
 https://doi.org/10.1080/002689797170220

 Perdew, JP; Burke, K; Ernzerhof, M. 
 PHYSICAL REVIEW LETTERS, 77 (18), 3865-3868 (1996). 
 Generalized gradient approximation made simple.
 https://doi.org/10.1103/PhysRevLett.77.3865

 Goedecker, S; Teter, M; Hutter, J. 
 PHYSICAL REVIEW B, 54 (3), 1703-1710 (1996). 
 Separable dual-space Gaussian pseudopotentials.
 https://doi.org/10.1103/PhysRevB.54.1703


 -------------------------------------------------------------------------------
 -                                                                             -
 -                                T I M I N G                                  -
 -                                                                             -
 -------------------------------------------------------------------------------
 SUBROUTINE                       CALLS  ASD         SELF TIME        TOTAL TIME
                                MAXIMUM       AVERAGE  MAXIMUM  AVERAGE  MAXIMUM
 CP2K                                 1  1.0    0.010    0.010   23.835   23.835
 qs_energies                          1  2.0    0.000    0.000   23.448   23.448
 ls_scf                               1  3.0    0.000    0.000   23.323   23.323
 ls_scf_main                          4  4.0    0.001    0.001   15.910   15.910
 ls_scf_dm_to_ks                      9  5.0    0.000    0.000   15.850   15.850
 qs_ks_update_qs_env                 10  6.0    0.000    0.000   14.381   14.381
 rebuild_ks_matrix                   10  7.0    0.000    0.000   14.381   14.381
 qs_ks_build_kohn_sham_matrix        10  8.0    0.002    0.002   14.381   14.381
 qs_vxc_create                       10  9.0    0.000    0.000    9.289    9.289
 xc_vxc_pw_create                    10 10.0    0.175    0.175    9.288    9.288
 pw_transfer                        191 11.1    0.020    0.020    7.479    7.479
 fft_wrap_pw1pw2                    171 12.3    0.003    0.003    7.282    7.282
 fft_wrap_pw1pw2_200                111 13.7    0.862    0.862    7.074    7.074
 xc_pw_derive                        60 12.0    0.001    0.001    5.537    5.537
 pao_update                           4  4.0    0.005    0.005    5.071    5.071
 xc_rho_set_and_dset_create          10 11.0    0.203    0.203    4.988    4.988
 pao_calc_energy                    418  5.0    0.002    0.002    4.591    4.591
 xc_pw_divergence                    10 11.0    0.001    0.001    3.985    3.985
 sum_up_and_integrate                10  9.0    0.155    0.155    3.808    3.808
 qs_rho_update_rho_low               10  6.0    0.000    0.000    3.775    3.775
 calculate_rho_elec                  10  7.0    0.034    0.034    3.775    3.775
 integrate_v_rspace                  10 10.0    0.001    0.001    3.652    3.652
 dbcsr_multiply_generic           22458  8.4    0.230    0.230    3.636    3.636
 fft3d_s                            172 14.2    2.751    2.751    2.764    2.764
 grid_integrate_task_list            10 11.0    2.646    2.646    2.646    2.646
 pao_dm_trs4                        418  6.0    0.001    0.001    2.370    2.370
 grid_collocate_task_list            10  8.0    2.324    2.324    2.324    2.324
 pao_guess_initial_P                  1  4.0    0.000    0.000    2.310    2.310
 pao_read_preopt_dm                   1  5.0    0.000    0.000    2.310    2.310
 density_matrix_trs4                427  7.0    0.081    0.081    2.286    2.286
 ls_scf_init_matrix_S               422  7.0    0.002    0.002    2.212    2.212
 pao_rebuild_S                      418  6.0    0.001    0.001    2.189    2.189
 matrix_sqrt_Newton_Schulz          422  8.0    0.050    0.050    1.996    1.996
 xc_functional_eval                  10 12.0    0.000    0.000    1.935    1.935
 pbe_lda_eval                        10 13.0    1.935    1.935    1.935    1.935
 pw_gather_s                         81 13.8    1.838    1.838    1.838    1.838
 pw_scatter_s                        90 14.7    1.790    1.790    1.790    1.790
 density_rs2pw                       10  8.0    0.001    0.001    1.417    1.417
 make_m2s                         44916  9.4    0.086    0.086    1.373    1.373
 multiply_cannon                  22458  9.4    0.552    0.552    1.350    1.350
 pw_derive                           60 13.0    1.276    1.276    1.276    1.276
 make_images                      44916 10.4    0.352    0.352    1.221    1.221
 potential_pw2rs                     10 11.0    0.002    0.002    1.006    1.006
 pw_copy                            120 11.8    0.816    0.816    0.816    0.816
 arnoldi_extremal                   849  8.5    0.002    0.002    0.729    0.729
 arnoldi_normal_ev                  849  9.5    0.006    0.006    0.728    0.728
 pw_axpy                             90 10.3    0.622    0.622    0.622    0.622
 build_subspace                     849 10.5    0.031    0.031    0.572    0.572
 dbcsr_matrix_vector_mult         20368 11.5    0.064    0.064    0.530    0.530
 pw_poisson_solve                    10  9.0    0.087    0.087    0.487    0.487
 -------------------------------------------------------------------------------

 The number of warnings for this run is : 0
 
 -------------------------------------------------------------------------------
  **** **** ******  **  PROGRAM ENDED AT                 2023-02-01 10:45:43.663
 ***** ** ***  *** **   PROGRAM RAN ON                                    moritz
 **    ****   ******    PROGRAM RAN BY                                       ole
 ***** **    ** ** **   PROGRAM PROCESS ID                                148563
  **** **  *******  **  PROGRAM STOPPED IN /home/ole/git/pao_ml_equivar/2H2O_rot
                                           ations/phi_06
