 DBCSR| CPU Multiplication driver                                           XSMM (U)
 DBCSR| Multrec recursion limit                                              512 (U)
 DBCSR| Multiplication stack size                                           1000 (D)
 DBCSR| Maximum elements for images                                    UNLIMITED (U)
 DBCSR| Multiplicative factor virtual images                                   1 (U)
 DBCSR| Use multiplication densification                                       T (D)
 DBCSR| Multiplication size stacks                                             3 (U)
 DBCSR| Use memory pool for CPU allocation                                     F (U)
 DBCSR| Number of 3D layers                                               SINGLE (U)
 DBCSR| Use MPI memory allocation                                              F (U)
 DBCSR| Use RMA algorithm                                                      F (U)
 DBCSR| Use Communication thread                                               T (U)
 DBCSR| Communication thread load                                             87 (D)
 DBCSR| MPI: My process id                                                     0
 DBCSR| MPI: Number of processes                                              32
 DBCSR| OMP: Current number of threads                                         1
 DBCSR| OMP: Max number of threads                                             1
 DBCSR| Split modifier for TAS multiplication algorithm                  1.0E+00 (U)


  **** **** ******  **  PROGRAM STARTED AT               2024-09-23 17:29:26.159
 ***** ** ***  *** **   PROGRAM STARTED ON                                moritz
 **    ****   ******    PROGRAM STARTED BY                                   ole
 ***** **    ** ** **   PROGRAM PROCESS ID                                154739
  **** **  *******  **  PROGRAM STARTED IN /home/ole/git/pao_ml_equivar/64H2O_MD
                                           /Frame0100

 CP2K| version string:                 CP2K version 2024.3 (Development Version)
 CP2K| source code revision number:                                  git:3f890bb
 CP2K| cp2kflags: omp libint fftw3 libxc libgrpp pexsi elpa parallel scalapack c
 CP2K|            osma quip deepmd xsmm plumed2 spglib libdftd4 sirius libvori l
 CP2K|            libbqb libvdwxc hdf5
 CP2K| is freely available from                            https://www.cp2k.org/
 CP2K| Program compiled at                          Mo 23 Sep 2024 17:17:04 CEST
 CP2K| Program compiled on                                                moritz
 CP2K| Program compiled for                                                local
 CP2K| Data directory path                               /home/ole/git/cp2k/data
 CP2K| Input file name                                             64H2O_ref.inp

 GLOBAL| Force Environment number                                              1
 GLOBAL| Basis set file name                                        BASIS_MOLOPT
 GLOBAL| Potential file name                                      GTH_POTENTIALS
 GLOBAL| MM Potential file name                                     MM_POTENTIAL
 GLOBAL| Coordinate file name                                         coords.xyz
 GLOBAL| Method name                                                        CP2K
 GLOBAL| Project name                                                  64H2O_ref
 GLOBAL| Run type                                                         ENERGY
 GLOBAL| FFT library                                                       FFTW3
 GLOBAL| Diagonalization library                                            ELPA
 GLOBAL| DGEMM library                                                      BLAS
 GLOBAL| Minimum number of eigenvectors for ELPA usage                        16
 GLOBAL| Orthonormality check for eigenvectors                          DISABLED
 GLOBAL| Matrix multiplication library                                     COSMA
 GLOBAL| All-to-all communication in single precision                          F
 GLOBAL| FFTs using library dependent lengths                                  F
 GLOBAL| Grid backend                                                       AUTO
 GLOBAL| Global print level                                                  LOW
 GLOBAL| MPI I/O enabled                                                       T
 GLOBAL| Total number of message passing processes                            32
 GLOBAL| Number of threads for this process                                    1
 GLOBAL| This output is from process                                           0
 GLOBAL| Stack size for threads created by OpenMP (OMP_STACKSIZE)        default
 GLOBAL| CPU model name           AMD Ryzen Threadripper 3970X 32-Core Processor
 GLOBAL| CPUID                                                              1002

 MEMORY| system memory details [Kb]
 MEMORY|                        rank 0           min           max       average
 MEMORY| MemTotal            131752136     131752136     131752136     131752136
 MEMORY| MemFree             118904476     118904476     118904476     118904476
 MEMORY| Buffers                259068        259068        259068        259068
 MEMORY| Cached                6717080       6717080       6717080       6717080
 MEMORY| Slab                   682440        682440        682440        682440
 MEMORY| SReclaimable           257492        257492        257492        257492
 MEMORY| MemLikelyFree       126138116     126138116     126138116     126138116


 GENERATE|  Preliminary Number of Bonds generated:                             0
 GENERATE|  Achieved consistency in connectivity generation.

 *******************************************************************************
 *******************************************************************************
 **                                                                           **
 **     #####                         ##              ##                      **
 **    ##   ##            ##          ##              ##                      **
 **   ##     ##                       ##            ######                    **
 **   ##     ##  ##   ##  ##   #####  ##  ##   ####   ##    #####    #####    **
 **   ##     ##  ##   ##  ##  ##      ## ##   ##      ##   ##   ##  ##   ##   **
 **   ##  ## ##  ##   ##  ##  ##      ####     ###    ##   ######   ######    **
 **    ##  ###   ##   ##  ##  ##      ## ##      ##   ##   ##       ##        **
 **     #######   #####   ##   #####  ##  ##  ####    ##    #####   ##        **
 **           ##                                                    ##        **
 **                                                                           **
 **                                                ... make the atoms dance   **
 **                                                                           **
 **            Copyright (C) by CP2K developers group (2000-2024)             **
 **                      J. Chem. Phys. 152, 194103 (2020)                    **
 **                                                                           **
 *******************************************************************************


 TOTAL NUMBERS AND MAXIMUM NUMBERS

  Total number of            - Atomic kinds:                                   2
                             - Atoms:                                        192
                             - Shell sets:                                   192
                             - Shells:                                       704
                             - Primitive Cartesian functions:               1344
                             - Cartesian basis functions:                   1536
                             - Spherical basis functions:                   1472

  Maximum angular momentum of- Orbital basis functions:                        2
                             - Local part of the GTH pseudopotential:          2
                             - Non-local part of the GTH pseudopotential:      0

 ------------------------------ Linear scaling SCF -----------------------------
 eps_scf:                                                              0.100E-07
 eps_filter:                                                           0.100E-11
 mixing_fraction:                                                      0.450E+00
 max_scf:                                                                     25
 fixed chemical potential (mu)                                                 F
 has unit metric:                                                              F
 Computing inv(S):                                                             T
 Computing sqrt(S):                                                            T
 Computing S preconditioner                                                    F
 S sqrt method:                                                     NEWTONSCHULZ
 S sqrt order:                                                                 3
 Extrapolation order:                                                          1
 S preconditioner type                                                      NONE
 Polarized Atomic Orbitals (PAO)                                               F
 Purification method                                   Trace resetting 4th order
 Cluster type                                                             ATOMIC
 Computing Chebyshev                                                       FALSE
 Using PAO                                                                     F
 -------------------------------------------------------------------------------


     Lanczos converged:  F threshold:   0.100E-02
     Est. extremal eigenvalues:    0.833E+01   0.587E-02
     Est. condition number :    0.142E+04

 Order=           3
     NS sqrt iter    1 1.00000000   0.215E+01       0.064     6282.327
     NS sqrt iter    2 1.00000000   0.113E+01       0.098     8126.327
     NS sqrt iter    3 1.00000000   0.565E+00       0.098     8123.800
     NS sqrt iter    4 1.00000000   0.326E+00       0.099     8089.910
     NS sqrt iter    5 1.00000000   0.222E+00       0.098     8119.860
     NS sqrt iter    6 1.00000000   0.101E+00       0.098     8126.298
     NS sqrt iter    7 1.00000000   0.116E-01       0.098     8168.039
     NS sqrt iter    8 1.00000000   0.496E-04       0.098     8176.998
     NS sqrt iter    9 1.00000000   0.145E-10       0.050     5518.292
     Symmetrizing Results
     Final NS sqrt iter    9 1.00000000   0.686E-11



 Guess for atomic kind: O

 Electronic structure
    Total number of core electrons                                          2.00
    Total number of valence electrons                                       6.00
    Total number of electrons                                               8.00
    Multiplicity                                                   not specified
    S   [  2.00] 2.00
    P      4.00


 *******************************************************************************
                  Iteration          Convergence                     Energy [au]
 *******************************************************************************
                          1        0.708315                     -15.576645311500
                          2        0.608879                     -15.587933561584
                          3        0.102828E-01                 -15.656849565404
                          4        0.113889E-02                 -15.656866888140
                          5        0.434197E-03                 -15.656867072159
                          6        0.263771E-03                 -15.656867091904
                          7        0.478536E-06                 -15.656867103452

 Energy components [Hartree]           Total Energy ::          -15.656867103452
                                        Band Energy ::           -3.000198112285
                                     Kinetic Energy ::           11.759971203220
                                   Potential Energy ::          -27.416838306672
                                      Virial (-V/T) ::            2.331369510426
                                        Core Energy ::          -26.140716385623
                                          XC Energy ::           -3.154051012914
                                     Coulomb Energy ::           13.637900295084
                       Total Pseudopotential Energy ::          -37.935781716540
                       Local Pseudopotential Energy ::          -39.218907440693
                    Nonlocal Pseudopotential Energy ::            1.283125724153
                                        Confinement ::            0.350941276976

 Orbital energies  State     L     Occupation   Energy[a.u.]          Energy[eV]

                       1     0          2.000      -0.864471          -23.523463

                       1     1          4.000      -0.317814           -8.648154


 Total Electron Density at R=0:                                         0.000068

 Guess for atomic kind: H

 Electronic structure
    Total number of core electrons                                          0.00
    Total number of valence electrons                                       1.00
    Total number of electrons                                               1.00
    Multiplicity                                                   not specified
    S      1.00


 *******************************************************************************
                  Iteration          Convergence                     Energy [au]
 *******************************************************************************
                          1        0.437545E-02                  -0.424159432110
                          2        0.531356E-03                  -0.424178438213
                          3        0.259176E-06                  -0.424178722480

 Energy components [Hartree]           Total Energy ::           -0.424178722480
                                        Band Energy ::           -0.199015229016
                                     Kinetic Energy ::            0.464007633961
                                   Potential Energy ::           -0.888186356441
                                      Virial (-V/T) ::            1.914163240935
                                        Core Energy ::           -0.479160803564
                                          XC Energy ::           -0.244352904054
                                     Coulomb Energy ::            0.299334985138
                       Total Pseudopotential Energy ::           -0.962295316385
                       Local Pseudopotential Energy ::           -0.962295316385
                    Nonlocal Pseudopotential Energy ::            0.000000000000
                                        Confinement ::            0.191268788606

 Orbital energies  State     L     Occupation   Energy[a.u.]          Energy[eV]

                       1     0          1.000      -0.199015           -5.415480


 Total Electron Density at R=0:                                         0.242907
 Re-scaling the density matrix to get the right number of electrons
                  # Electrons              Trace(P)               Scaling factor
                          512               512.001                        1.000
 Energy with the initial guess:     -1095.380752358

     Est. extremal eigenvalues     -0.94532     5.17522  converged:  T
     TRS4 it   1 1.00000000   0.567E+02       0.019     5283.648   0.100E-11
     TRS4 it   2 1.00000000   0.538E+02       0.019     5341.292   0.100E-11
     TRS4 it   3 1.00000000   0.335E+02       0.036     5575.669   0.100E-11
     TRS4 it   4 1.00000000   0.178E+02       0.035     5671.827   0.100E-11
     TRS4 it   5 1.00000000   0.108E+02       0.036     5521.870   0.100E-11
     TRS4 it   6 1.00000000   0.495E+01       0.036     5557.290   0.100E-11
     TRS4 it   7 1.00000000   0.149E+01       0.036     5541.322   0.100E-11
     TRS4 it   8 1.00000000   0.231E+00       0.036     5514.892   0.100E-11
     TRS4 it   9 1.00000000   0.104E-01       0.036     5507.585   0.100E-11
     TRS4 it  10 1.00000000   0.330E-04       0.035     5690.543   0.100E-11
     TRS4 it  11 1.00000000   0.122E-09       0.036     5538.734   0.100E-11
     Final TRS4 iteration   11 1.00000000   0.122E-09
     Chemical potential (mu):      -0.10669

 SCF     1     -1097.867969673     -1097.867969673    2.030181

*********************************************************
 Using MIXING_FRACTION=0.450 to mix KS matrix:  iscf=  2
 KS_nw=0.450*KS + 0.550*KS_old
*********************************************************
     Est. extremal eigenvalues     -0.83189     5.26383  converged:  T
     TRS4 it   1 1.00000000   0.559E+02       0.019     5267.106   0.100E-11
     TRS4 it   2 1.00000000   0.540E+02       0.019     5422.401   0.100E-11
     TRS4 it   3 1.00000000   0.348E+02       0.037     5474.067   0.100E-11
     TRS4 it   4 1.00000000   0.184E+02       0.037     5488.031   0.100E-11
     TRS4 it   5 1.00000000   0.119E+02       0.036     5588.117   0.100E-11
     TRS4 it   6 1.00000000   0.630E+01       0.036     5521.225   0.100E-11
     TRS4 it   7 1.00000000   0.254E+01       0.036     5644.813   0.100E-11
     TRS4 it   8 1.00000000   0.706E+00       0.037     5457.096   0.100E-11
     TRS4 it   9 1.00000000   0.106E+00       0.036     5555.182   0.100E-11
     TRS4 it  10 1.00000000   0.587E-02       0.036     5606.287   0.100E-11
     TRS4 it  11 1.00000000   0.871E-05       0.036     5548.395   0.100E-11
     TRS4 it  12 1.00000000   0.122E-10       0.036     5574.569   0.100E-11
     Final TRS4 iteration   12 1.00000000   0.122E-10
     Chemical potential (mu):      -0.01906

 SCF     2     -1102.957633950        -5.089664277    2.219715

*********************************************************
 Using MIXING_FRACTION=0.450 to mix KS matrix:  iscf=  3
 KS_nw=0.450*KS + 0.550*KS_old
*********************************************************
     Est. extremal eigenvalues     -0.84262     5.25522  converged:  T
     TRS4 it   1 1.00000000   0.560E+02       0.019     5377.890   0.100E-11
     TRS4 it   2 1.00000000   0.539E+02       0.019     5321.930   0.100E-11
     TRS4 it   3 1.00000000   0.346E+02       0.037     5357.614   0.100E-11
     TRS4 it   4 1.00000000   0.183E+02       0.036     5630.348   0.100E-11
     TRS4 it   5 1.00000000   0.118E+02       0.036     5571.873   0.100E-11
     TRS4 it   6 1.00000000   0.609E+01       0.036     5586.672   0.100E-11
     TRS4 it   7 1.00000000   0.237E+01       0.036     5506.835   0.100E-11
     TRS4 it   8 1.00000000   0.615E+00       0.036     5615.647   0.100E-11
     TRS4 it   9 1.00000000   0.815E-01       0.036     5535.615   0.100E-11
     TRS4 it  10 1.00000000   0.325E-02       0.036     5520.918   0.100E-11
     TRS4 it  11 1.00000000   0.245E-05       0.036     5504.051   0.100E-11
     TRS4 it  12 1.00000000   0.959E-12       0.036     5515.545   0.100E-11
     Final TRS4 iteration   12 1.00000000   0.959E-12
     Chemical potential (mu):      -0.02854

 SCF     3     -1103.129141853        -0.171507903    2.081469

*********************************************************
 Using MIXING_FRACTION=0.450 to mix KS matrix:  iscf=  4
 KS_nw=0.450*KS + 0.550*KS_old
*********************************************************
     Est. extremal eigenvalues     -0.83740     5.26055  converged:  T
     TRS4 it   1 1.00000000   0.560E+02       0.019     5267.546   0.100E-11
     TRS4 it   2 1.00000000   0.540E+02       0.018     5442.030   0.100E-11
     TRS4 it   3 1.00000000   0.347E+02       0.037     5475.594   0.100E-11
     TRS4 it   4 1.00000000   0.184E+02       0.036     5509.027   0.100E-11
     TRS4 it   5 1.00000000   0.119E+02       0.037     5476.879   0.100E-11
     TRS4 it   6 1.00000000   0.617E+01       0.036     5590.816   0.100E-11
     TRS4 it   7 1.00000000   0.243E+01       0.036     5529.772   0.100E-11
     TRS4 it   8 1.00000000   0.651E+00       0.036     5590.532   0.100E-11
     TRS4 it   9 1.00000000   0.918E-01       0.036     5595.106   0.100E-11
     TRS4 it  10 1.00000000   0.429E-02       0.035     5688.430   0.100E-11
     TRS4 it  11 1.00000000   0.502E-05       0.036     5583.045   0.100E-11
     TRS4 it  12 1.00000000   0.487E-11       0.036     5544.660   0.100E-11
     Final TRS4 iteration   12 1.00000000   0.487E-11
     Chemical potential (mu):      -0.02221

 SCF     4     -1103.138148304        -0.009006451    2.080814

*********************************************************
 Using MIXING_FRACTION=0.450 to mix KS matrix:  iscf=  5
 KS_nw=0.450*KS + 0.550*KS_old
*********************************************************
     Est. extremal eigenvalues     -0.83634     5.26131  converged:  T
     TRS4 it   1 1.00000000   0.560E+02       0.019     5400.689   0.100E-11
     TRS4 it   2 1.00000000   0.539E+02       0.019     5399.120   0.100E-11
     TRS4 it   3 1.00000000   0.347E+02       0.037     5443.819   0.100E-11
     TRS4 it   4 1.00000000   0.184E+02       0.036     5577.951   0.100E-11
     TRS4 it   5 1.00000000   0.118E+02       0.037     5485.608   0.100E-11
     TRS4 it   6 1.00000000   0.617E+01       0.036     5538.534   0.100E-11
     TRS4 it   7 1.00000000   0.243E+01       0.036     5622.502   0.100E-11
     TRS4 it   8 1.00000000   0.649E+00       0.035     5671.521   0.100E-11
     TRS4 it   9 1.00000000   0.916E-01       0.036     5518.295   0.100E-11
     TRS4 it  10 1.00000000   0.428E-02       0.036     5557.421   0.100E-11
     TRS4 it  11 1.00000000   0.505E-05       0.036     5503.374   0.100E-11
     TRS4 it  12 1.00000000   0.507E-11       0.036     5602.141   0.100E-11
     Final TRS4 iteration   12 1.00000000   0.507E-11
     Chemical potential (mu):      -0.02147

 SCF     5     -1103.138851892        -0.000703588    2.087475

*********************************************************
 Using MIXING_FRACTION=0.450 to mix KS matrix:  iscf=  6
 KS_nw=0.450*KS + 0.550*KS_old
*********************************************************
     Est. extremal eigenvalues     -0.83556     5.26205  converged:  T
     TRS4 it   1 1.00000000   0.560E+02       0.019     5302.813   0.100E-11
     TRS4 it   2 1.00000000   0.539E+02       0.019     5387.198   0.100E-11
     TRS4 it   3 1.00000000   0.347E+02       0.037     5421.650   0.100E-11
     TRS4 it   4 1.00000000   0.184E+02       0.036     5574.727   0.100E-11
     TRS4 it   5 1.00000000   0.119E+02       0.037     5488.924   0.100E-11
     TRS4 it   6 1.00000000   0.617E+01       0.036     5643.819   0.100E-11
     TRS4 it   7 1.00000000   0.244E+01       0.037     5403.419   0.100E-11
     TRS4 it   8 1.00000000   0.653E+00       0.037     5468.970   0.100E-11
     TRS4 it   9 1.00000000   0.929E-01       0.036     5505.478   0.100E-11
     TRS4 it  10 1.00000000   0.443E-02       0.036     5535.114   0.100E-11
     TRS4 it  11 1.00000000   0.557E-05       0.037     5415.496   0.100E-11
     TRS4 it  12 1.00000000   0.645E-11       0.036     5594.395   0.100E-11
     Final TRS4 iteration   12 1.00000000   0.645E-11
     Chemical potential (mu):      -0.02047

 SCF     6     -1103.138951106        -0.000099214    2.085633

*********************************************************
 Using MIXING_FRACTION=0.450 to mix KS matrix:  iscf=  7
 KS_nw=0.450*KS + 0.550*KS_old
*********************************************************
     Est. extremal eigenvalues     -0.83511     5.26237  converged:  T
     TRS4 it   1 1.00000000   0.560E+02       0.019     5326.652   0.100E-11
     TRS4 it   2 1.00000000   0.539E+02       0.019     5417.631   0.100E-11
     TRS4 it   3 1.00000000   0.347E+02       0.037     5455.268   0.100E-11
     TRS4 it   4 1.00000000   0.184E+02       0.036     5537.490   0.100E-11
     TRS4 it   5 1.00000000   0.119E+02       0.036     5525.578   0.100E-11
     TRS4 it   6 1.00000000   0.617E+01       0.036     5642.643   0.100E-11
     TRS4 it   7 1.00000000   0.244E+01       0.036     5559.351   0.100E-11
     TRS4 it   8 1.00000000   0.654E+00       0.036     5595.755   0.100E-11
     TRS4 it   9 1.00000000   0.931E-01       0.035     5653.244   0.100E-11
     TRS4 it  10 1.00000000   0.446E-02       0.036     5607.119   0.100E-11
     TRS4 it  11 1.00000000   0.568E-05       0.036     5536.345   0.100E-11
     TRS4 it  12 1.00000000   0.678E-11       0.036     5536.118   0.100E-11
     Final TRS4 iteration   12 1.00000000   0.678E-11
     Chemical potential (mu):      -0.02011

 SCF     7     -1103.138971450        -0.000020344    2.080931

*********************************************************
 Using MIXING_FRACTION=0.450 to mix KS matrix:  iscf=  8
 KS_nw=0.450*KS + 0.550*KS_old
*********************************************************
     Est. extremal eigenvalues     -0.83490     5.26254  converged:  T
     TRS4 it   1 1.00000000   0.560E+02       0.022     4559.852   0.100E-11
     TRS4 it   2 1.00000000   0.539E+02       0.022     4478.986   0.100E-11
     TRS4 it   3 1.00000000   0.347E+02       0.043     4636.377   0.100E-11
     TRS4 it   4 1.00000000   0.184E+02       0.038     5307.331   0.100E-11
     TRS4 it   5 1.00000000   0.119E+02       0.037     5477.605   0.100E-11
     TRS4 it   6 1.00000000   0.618E+01       0.036     5594.390   0.100E-11
     TRS4 it   7 1.00000000   0.244E+01       0.036     5538.934   0.100E-11
     TRS4 it   8 1.00000000   0.655E+00       0.036     5609.910   0.100E-11
     TRS4 it   9 1.00000000   0.933E-01       0.036     5609.584   0.100E-11
     TRS4 it  10 1.00000000   0.449E-02       0.036     5555.075   0.100E-11
     TRS4 it  11 1.00000000   0.578E-05       0.036     5588.699   0.100E-11
     TRS4 it  12 1.00000000   0.708E-11       0.036     5618.518   0.100E-11
     Final TRS4 iteration   12 1.00000000   0.708E-11
     Chemical potential (mu):      -0.01988

 SCF     8     -1103.138976310        -0.000004860    2.129007


 SCF run converged in     8 steps.

 Writing restart DM 64H2O_ref_LS_DM_SPIN_1_RESTART.dm with checksum:       0.63023803E+04

 ENERGY| Total FORCE_EVAL ( QS ) energy [a.u.]:            -1103.138976309897771

 -------------------------------------------------------------------------------
 -                                                                             -
 -                                DBCSR STATISTICS                             -
 -                                                                             -
 -------------------------------------------------------------------------------
 COUNTER                                    TOTAL       BLAS       SMM       ACC
 flops     5 x     5 x     5          79128486000       0.0%    100.0%      0.0%     
 flops     5 x    13 x     5         102427084500       0.0%    100.0%      0.0%     
 flops    13 x     5 x     5         102436430200       0.0%    100.0%      0.0%     
 flops     5 x     5 x    13         102925910100       0.0%    100.0%      0.0%     
 flops     5 x    13 x    13         133284268390       0.0%    100.0%      0.0%     
 flops    13 x     5 x    13         133318010930       0.0%    100.0%      0.0%     
 flops    13 x    13 x     5         134466166510       0.0%    100.0%      0.0%     
 flops    13 x    13 x    13         175073090374       0.0%    100.0%      0.0%     
 flops inhomo. stacks                           0       0.0%      0.0%      0.0%
 flops total                       963.059447E+09       0.0%    100.0%      0.0%
 flops max/rank                     30.901422E+09       0.0%    100.0%      0.0%
 matmuls inhomo. stacks                         0       0.0%      0.0%      0.0%
 matmuls total                         1067198414       0.0%    100.0%      0.0%
 number of processed stacks               1512055       0.0%    100.0%      0.0%
 average stack size                                     0.0     705.8       0.0
 marketing flops                     1.569237E+12
 -------------------------------------------------------------------------------
 # multiplications                            246
 max memory usage/rank             618.553344E+06
 # max total images/rank                        2
 # max 3D layers                                1
 # MPI messages exchanged                  102336
 MPI messages size (bytes):
  total size                        42.238181E+09
  min size                           0.000000E+00
  max size                         541.696000E+03
  average size                     412.740188E+03
 MPI breakdown and total messages size (bytes):
             size <=      128                 312                        0
       128 < size <=     8192                  42                   279312
      8192 < size <=    32768                  62                   841968
     32768 < size <=   131072                 384                 34434528
    131072 < size <=  4194304              101536              42202628192
   4194304 < size <= 16777216                   0                        0
  16777216 < size                               0                        0
 -------------------------------------------------------------------------------

 *** WARNING in dbcsr_mm.F:301 :: Using a non-square number of MPI ranks ***
 *** might lead to poor performance. Used ranks: 32 Suggested: 36 64     ***

 -------------------------------------------------------------------------------
 -                                                                             -
 -                      DBCSR MESSAGE PASSING PERFORMANCE                      -
 -                                                                             -
 -------------------------------------------------------------------------------
 ROUTINE             CALLS      AVE VOLUME [Bytes]
 MP_Bcast                9                     12.
 MP_Allreduce         1762                     34.
 MP_Alltoall           546                  34827.
 MP_ISend             8604                 170228.
 MP_IRecv             8238                 178422.
 -------------------------------------------------------------------------------

 -------------------------------------------------------------------------------
 -                                                                             -
 -                                DBM STATISTICS                               -
 -                                                                             -
 -------------------------------------------------------------------------------
    M  x    N  x    K                                          COUNT     PERCENT
 -------------------------------------------------------------------------------

 -------------------------------------------------------------------------------
 -                                                                             -
 -                                GRID STATISTICS                              -
 -                                                                             -
 -------------------------------------------------------------------------------
 LP    KERNEL             BACKEND                              COUNT     PERCENT
 2     collocate ortho    CPU                                7371549      28.82%
 2     integrate ortho    CPU                                7371549      28.82%
 3     collocate ortho    CPU                                4740561      18.53%
 3     integrate ortho    CPU                                4740561      18.53%
 4     collocate ortho    CPU                                 673182       2.63%
 4     integrate ortho    CPU                                 673182       2.63%
 0     collocate general  CPU                                   6144       0.02%
 -------------------------------------------------------------------------------

 MEMORY| Estimated peak process memory [MiB]                                 591

 -------------------------------------------------------------------------------
 -                                                                             -
 -                         MESSAGE PASSING PERFORMANCE                         -
 -                                                                             -
 -------------------------------------------------------------------------------

 ROUTINE             CALLS      AVE VOLUME [Bytes]
 MP_Group                5
 MP_Bcast             2784                 140270.
 MP_Allreduce         7388                    939.
 MP_Sync                 5
 MP_Alltoall           244
 MP_SendRecv           837                  18832.
 MP_ISendRecv          837                  18832.
 MP_Wait              2391
 MP_ISend             1406                 108579.
 MP_IRecv             1406                 108603.
 -------------------------------------------------------------------------------


 -------------------------------------------------------------------------------
 -                                                                             -
 -                           R E F E R E N C E S                               -
 -                                                                             -
 -------------------------------------------------------------------------------
 
 CP2K version 2024.3 (Development Version), the CP2K developers group (2024).
 CP2K is freely available from https://www.cp2k.org/ .
 
 T. D. Kuehne, M. Iannuzzi, M. Del Ben, V. V. Rybkin, P. Seewald, F. Stein, T. 
 Laino, R. Z. Khaliullin, O. Schuett, F. Schiffmann, D. Golze, J. Wilhelm, S. 
 Chulkov, M. H. Bani-Hashemian, V. Weber, U. Borstnik, M. Taillefumier, A. S. 
 Jakobovits, A. Lazzaro, H. Pabst, T. Mueller, R. Schade, M. Guidon, S. 
 Andermatt, N. Holmberg, G. K. Schenter, A. Hehn, A. Bussy, F. Belleflamme, G. 
 Tabacchi, A. Gloess, M. Lass, I. Bethune, C. J. Mundy, C. Plessl, M. Watkins, 
 J. VandeVondele, M. Krack, J. Hutter.
 J. Chem. Phys. 152, 194103 (2020).
 CP2K: An electronic structure and molecular dynamics software package - 
 Quickstep: Efficient and accurate electronic structure calculations.
 https://doi.org/10.1063/5.0007045

 O. Schuett, P. Messmer, J. Hutter, J. VandeVondele.
 Electronic Structure Calculations on Graphics Processing Units, 173-190 (2016).
 GPU-Accelerated Sparse Matrix-Matrix Multiplication for Linear Scaling Density 
 Functional Theory.
 https://doi.org/10.1002/9781118670712.ch8

 A. Heinecke, G. Henry, M. Hutchinson, H. Pabst.
 Proceedings of Intl. Supercomputing Conference, 981-991 (2016).
 LIBXSMM: Accelerating Small Matrix Multiplications by Runtime Code Generation.
 https://doi.org/10.1109/SC.2016.83

 J. Hutter, M. Iannuzzi, F. Schiffmann, J. VandeVondele.
 WIREs Comput Mol Sci. 4, 15-25 (2014).
 CP2K: atomistic simulations of condensed matter systems.
 https://doi.org/10.1002/wcms.1159

 U. Borstnik, J. VandeVondele, V. Weber, J. Hutter.
 Parallel Comput. 40, 47-58 (2014).
 Sparse matrix multiplication: The distributed block-compressed sparse row 
 library.
 https://doi.org/10.1016/j.parco.2014.03.012

 A. Marek, V. Blum, R. Johanni, V. Havu, B. Lang, T. Auckenthaler, A. Heinecke, 
 H. Bungartz, H. Lederer.
 J. Phys. Condens. Matter 26, 213201 (2014).
 The ELPA library: scalable parallel eigenvalue solutions for electronic 
 structure theory and computational science.
 https://doi.org/10.1088/0953-8984/26/21/213201

 J. VandeVondele, U. Borstnik, J. Hutter.
 J. Chem. Theory Comput. 8, 3565-3573 (2012).
 Linear Scaling Self-Consistent Field Calculations with Millions of Atoms in the 
 Condensed Phase.
 https://doi.org/10.1021/ct200897x

 J. VandeVondele, J. Hutter.
 J. Chem. Phys. 127, 114105 (2007).
 Gaussian basis sets for accurate calculations on molecular systems in gas and 
 condensed phases.
 https://doi.org/10.1063/1.2770708

 J. VandeVondele, M. Krack, F. Mohamed, M. Parrinello, T. Chassaing, J. Hutter.
 Comput. Phys. Commun. 167, 103-128 (2005).
 QUICKSTEP: Fast and accurate density functional calculations using a mixed 
 Gaussian and plane waves approach.
 https://doi.org/10.1016/j.cpc.2004.12.014

 M. Krack.
 Theor. Chem. Acc. 114, 145-152 (2005).
 Pseudopotentials for H to Kr optimized for gradient-corrected 
 exchange-correlation functionals.
 https://doi.org/10.1007/s00214-005-0655-y

 M. Frigo, S. G. Johnson.
 Proc. IEEE 93, 216-231 (2005).
 The design and implementation of FFTW3.
 https://doi.org/10.1109/JPROC.2004.840301

 A. M. N. Niklasson, C. J. Tymczak, M. Challacombe.
 J. Chem. Phys. 118, 8611-8620 (2003).
 Trace resetting density matrix purification in O(N) self-consistent-field 
 theory.
 https://doi.org/10.1063/1.1559913

 C. Hartwigsen, S. Goedecker, J. Hutter.
 Phys. Rev. B 58, 3641-3662 (1998).
 Relativistic separable dual-space Gaussian pseudopotentials from H to Rn.
 https://doi.org/10.1103/PhysRevB.58.3641

 G. Lippert, J. Hutter, M. Parrinello.
 Mol. Phys. 92, 477-487 (1997).
 A hybrid Gaussian and plane wave density functional scheme.
 https://doi.org/10.1080/002689797170220

 S. Goedecker, M. Teter, J. Hutter.
 Phys. Rev. B 54, 1703-1710 (1996).
 Separable dual-space Gaussian pseudopotentials.
 https://doi.org/10.1103/PhysRevB.54.1703

 J. P. Perdew, K. Burke, M. Ernzerhof.
 Phys. Rev. Lett. 77, 3865-3868 (1996).
 Generalized gradient approximation made simple.
 https://doi.org/10.1103/PhysRevLett.77.3865


 -------------------------------------------------------------------------------
 -                                                                             -
 -                                T I M I N G                                  -
 -                                                                             -
 -------------------------------------------------------------------------------
 SUBROUTINE                       CALLS  ASD         SELF TIME        TOTAL TIME
                                MAXIMUM       AVERAGE  MAXIMUM  AVERAGE  MAXIMUM
 CP2K                                 1  1.0    0.012    0.018   20.683   20.683
 qs_energies                          1  2.0    0.000    0.000   20.511   20.512
 ls_scf                               1  3.0    0.000    0.000   19.304   19.305
 ls_scf_main                          1  4.0    0.000    0.000   16.796   16.796
 ls_scf_dm_to_ks                      8  5.0    0.000    0.000   12.414   12.416
 qs_ks_update_qs_env                  9  6.1    0.000    0.000    7.746    7.748
 rebuild_ks_matrix                    9  7.1    0.000    0.000    7.739    7.741
 qs_ks_build_kohn_sham_matrix         9  8.1    0.002    0.002    7.739    7.741
 qs_rho_update_rho_low                9  6.1    0.000    0.000    6.207    6.209
 calculate_rho_elec                   9  7.1    0.003    0.003    6.207    6.209
 sum_up_and_integrate                 9  9.1    0.000    0.000    5.853    5.856
 integrate_v_rspace                   9 10.1    0.000    0.000    5.845    5.849
 grid_collocate_task_list             9  8.1    5.393    5.589    5.393    5.589
 grid_integrate_task_list             9 11.1    5.150    5.235    5.150    5.235
 dbcsr_multiply_generic             246  6.2    0.012    0.013    4.644    4.648
 density_matrix_trs4                  8  5.0    0.004    0.006    4.376    4.379
 multiply_cannon                    246  7.2    0.018    0.024    3.756    3.845
 multiply_cannon_loop               246  8.2    0.019    0.021    3.682    3.752
 ls_scf_init_scf                      1  4.0    0.000    0.000    2.446    2.447
 multiply_cannon_multrec           1968  9.2    2.080    2.138    2.087    2.144
 mp_waitall_1                     16729 10.5    1.736    1.880    1.736    1.880
 fft_wrap_pw1pw2                    172 11.3    0.003    0.003    1.760    1.796
 fft_wrap_pw1pw2_200                100 12.8    0.102    0.110    1.687    1.745
 qs_vxc_create                        9  9.1    0.000    0.000    1.543    1.570
 xc_vxc_pw_create                     9 10.1    0.013    0.018    1.543    1.570
 ls_scf_initial_guess                 1  5.0    0.000    0.000    1.543    1.544
 ls_scf_qs_atomic_guess               1  6.0    0.000    0.000    1.543    1.544
 multiply_cannon_metrocomm3        1968  9.2    0.005    0.006    1.359    1.478
 fft3d_ps                           172 13.3    0.725    0.819    1.326    1.376
 qs_energies_init_hamiltonians        1  3.0    0.000    0.000    1.207    1.207
 xc_pw_derive                        54 12.1    0.001    0.001    1.094    1.172
 build_core_hamiltonian_matrix        1  4.0    0.000    0.000    0.759    1.016
 mp_waitany                        1406 12.5    0.740    0.952    0.740    0.952
 density_rs2pw                        9  8.1    0.000    0.000    0.781    0.905
 ls_scf_init_matrix_S                 1  5.0    0.000    0.000    0.903    0.904
 transfer_rs2pw                      46  9.0    0.001    0.001    0.674    0.883
 matrix_sqrt_Newton_Schulz            1  6.0    0.001    0.001    0.879    0.879
 xc_rho_set_and_dset_create           9 11.1    0.020    0.026    0.777    0.796
 transfer_rs2pw_200                  10  9.8    0.032    0.041    0.569    0.779
 xc_pw_divergence                     9 11.1    0.000    0.000    0.734    0.777
 build_core_ppl                       1  5.0    0.527    0.689    0.527    0.689
 make_m2s                           492  7.2    0.005    0.007    0.674    0.687
 make_images                        492  8.2    0.038    0.040    0.664    0.677
 mp_alltoall_z22v                   172 15.3    0.425    0.622    0.425    0.622
 potential_pw2rs                      9 11.1    0.001    0.001    0.598    0.599
 qs_env_update_s_mstruct              1  4.0    0.000    0.000    0.427    0.556
 arnoldi_extremal                     9  6.1    0.000    0.000    0.522    0.523
 arnoldi_normal_ev                    9  7.1    0.000    0.001    0.521    0.522
 build_subspace                      44  8.1    0.003    0.004    0.464    0.465
 calculate_rho_core                   1  5.0    0.001    0.001    0.289    0.419
 -------------------------------------------------------------------------------

 The number of warnings for this run is : 1
 
 -------------------------------------------------------------------------------
  **** **** ******  **  PROGRAM ENDED AT                 2024-09-23 17:29:47.483
 ***** ** ***  *** **   PROGRAM RAN ON                                    moritz
 **    ****   ******    PROGRAM RAN BY                                       ole
 ***** **    ** ** **   PROGRAM PROCESS ID                                154739
  **** **  *******  **  PROGRAM STOPPED IN /home/ole/git/pao_ml_equivar/64H2O_MD
                                           /Frame0100
