 DBCSR| CPU Multiplication driver                                           XSMM (U)
 DBCSR| Multrec recursion limit                                              512 (U)
 DBCSR| Multiplication stack size                                           1000 (D)
 DBCSR| Maximum elements for images                                    UNLIMITED (U)
 DBCSR| Multiplicative factor virtual images                                   1 (U)
 DBCSR| Use multiplication densification                                       T (D)
 DBCSR| Multiplication size stacks                                             3 (U)
 DBCSR| Use memory pool for CPU allocation                                     F (U)
 DBCSR| OMP: Current number of threads                                         1
 DBCSR| OMP: Max number of threads                                             1
 DBCSR| Split modifier for TAS multiplication algorithm                  1.0E+00 (U)


  **** **** ******  **  PROGRAM STARTED AT               2023-02-01 10:47:55.389
 ***** ** ***  *** **   PROGRAM STARTED ON                                moritz
 **    ****   ******    PROGRAM STARTED BY                                   ole
 ***** **    ** ** **   PROGRAM PROCESS ID                                148766
  **** **  *******  **  PROGRAM STARTED IN /home/ole/git/pao_ml_equivar/2H2O_MD/
                                           frame_1200

 CP2K| version string:                 CP2K version 2023.1 (Development Version)
 CP2K| source code revision number:                                  git:03b4147
 CP2K| cp2kflags: omp libint fftw3 libxc quip xsmm spglib libvori libbqb libtorc
 CP2K|            h
 CP2K| is freely available from                            https://www.cp2k.org/
 CP2K| Program compiled at                           Mi 01 Feb 2023 10:36:52 CET
 CP2K| Program compiled on                                                moritz
 CP2K| Program compiled for                                                local
 CP2K| Data directory path                               /home/ole/git/cp2k/data
 CP2K| Input file name                                            2H2O_pao44.inp

 GLOBAL| Force Environment number                                              1
 GLOBAL| Basis set file name                                        BASIS_MOLOPT
 GLOBAL| Potential file name                                      GTH_POTENTIALS
 GLOBAL| MM Potential file name                                     MM_POTENTIAL
 GLOBAL| Coordinate file name                                         coords.xyz
 GLOBAL| Method name                                                        CP2K
 GLOBAL| Project name                                                 2H2O_pao44
 GLOBAL| Run type                                                         ENERGY
 GLOBAL| FFT library                                                       FFTW3
 GLOBAL| Diagonalization library                                       ScaLAPACK
 GLOBAL| DGEMM library                                                      BLAS
 GLOBAL| Orthonormality check for eigenvectors                          DISABLED
 GLOBAL| Matrix multiplication library                                 ScaLAPACK
 GLOBAL| All-to-all communication in single precision                          F
 GLOBAL| FFTs using library dependent lengths                                  F
 GLOBAL| Grid backend                                                       AUTO
 GLOBAL| Global print level                                                  LOW
 GLOBAL| MPI I/O enabled                                                       T
 GLOBAL| Total number of message passing processes                             1
 GLOBAL| Number of threads for this process                                    1
 GLOBAL| This output is from process                                           0
 GLOBAL| Stack size for threads created by OpenMP (OMP_STACKSIZE)        default
 GLOBAL| CPU model name           AMD Ryzen Threadripper 3970X 32-Core Processor
 GLOBAL| CPUID                                                              1002
 GLOBAL| Compiled for CPUID                                                    0

 *** HINT in environment.F:884 :: The compiler target flags (generic) used ***
 *** to build this binary cannot exploit all extensions of this CPU model  ***
 *** (x86_avx2). Consider compiler target flags as part of FCFLAGS and     ***
 *** CFLAGS (ARCH file).                                                   ***


 MEMORY| system memory details [Kb]
 MEMORY|                        rank 0           min           max       average
 MEMORY| MemTotal            131773860     131773860     131773860     131773860
 MEMORY| MemFree             115284840     115284840     115284840     115284840
 MEMORY| Buffers                302624        302624        302624        302624
 MEMORY| Cached                7056636       7056636       7056636       7056636
 MEMORY| Slab                   780228        780228        780228        780228
 MEMORY| SReclaimable           332704        332704        332704        332704
 MEMORY| MemLikelyFree       122976804     122976804     122976804     122976804


 GENERATE|  Preliminary Number of Bonds generated:                             0
 GENERATE|  Achieved consistency in connectivity generation.

 *******************************************************************************
 *******************************************************************************
 **                                                                           **
 **     #####                         ##              ##                      **
 **    ##   ##            ##          ##              ##                      **
 **   ##     ##                       ##            ######                    **
 **   ##     ##  ##   ##  ##   #####  ##  ##   ####   ##    #####    #####    **
 **   ##     ##  ##   ##  ##  ##      ## ##   ##      ##   ##   ##  ##   ##   **
 **   ##  ## ##  ##   ##  ##  ##      ####     ###    ##   ######   ######    **
 **    ##  ###   ##   ##  ##  ##      ## ##      ##   ##   ##       ##        **
 **     #######   #####   ##   #####  ##  ##  ####    ##    #####   ##        **
 **           ##                                                    ##        **
 **                                                                           **
 **                                                ... make the atoms dance   **
 **                                                                           **
 **            Copyright (C) by CP2K developers group (2000-2023)             **
 **                      J. Chem. Phys. 152, 194103 (2020)                    **
 **                                                                           **
 *******************************************************************************


 TOTAL NUMBERS AND MAXIMUM NUMBERS

  Total number of            - Atomic kinds:                                   2
                             - Atoms:                                          6
                             - Shell sets:                                     6
                             - Shells:                                        22
                             - Primitive Cartesian functions:                 42
                             - Cartesian basis functions:                     48
                             - Spherical basis functions:                     46

  Maximum angular momentum of- Orbital basis functions:                        2
                             - Local part of the GTH pseudopotential:          2
                             - Non-local part of the GTH pseudopotential:      0

 ------------------------------ Linear scaling SCF -----------------------------
 eps_scf:                                                              0.100E-07
 eps_filter:                                                           0.100E-07
 mixing_fraction:                                                      0.450E+00
 max_scf:                                                                     25
 fixed chemical potential (mu)                                                 F
 has unit metric:                                                              F
 Computing inv(S):                                                             T
 Computing sqrt(S):                                                            T
 Computing S preconditioner                                                    F
 S sqrt method:                                                     NEWTONSCHULZ
 S sqrt order:                                                                 3
 Extrapolation order:                                                          1
 Use single precision matrices                                                 F
 S preconditioner type                                                      NONE
 Polarized Atomic Orbitals (PAO)                                               T
 Purification method                                   Trace resetting 4th order
 Cluster type                                                             ATOMIC
 Computing Chebyshev                                                       FALSE
 Using PAO                                                                     T
 -------------------------------------------------------------------------------

 
 PAO|                                  EPS_PAO                           0.5E-06
 PAO|                                  MIXING                            0.5E+00
 PAO|                                  MAX_PAO                              1500
 PAO|                                  MAX_CYCLES                           1000
 PAO|                                  PARAMETERIZATION              EQUIVARIANT
 PAO|                                  PRECONDITION                            F
 PAO|                                  REGULARIZATION                    0.0E+00
 PAO|                                  EPS_PGF                           0.1E-09
 PAO|                                  PENALTY_DISTANCE                  0.1E+00
 PAO|                                  PENALTY_STRENGTH                  0.5E-02
 PAO|                                  LINPOT_PRECONDITION_DELTA         0.0E+00
 PAO|                                  LINPOT_INITGUESS_DELT             0.0E+00
 PAO|                                  LINPOT_REGULARIZATION_DELTA       0.0E+00
 PAO|                                  LINPOT_REGULARIZATION_STRENGTH    0.0E+00
 PAO|                                  OPTIMIZER                              CG
 PAO|                                  CG_INIT_STEPS                           2
 PAO|                                  CG_RESET_LIMIT                    0.1E+00
 PAO|                                  CHECK_UNITARY_TOL                -0.1E+01
 PAO|                                  CHECK_GRADIENT_TOL               -0.1E+01
 PAO|                                  NUM_GRADIENT_ORDER                      2
 PAO|                                  NUM_GRADIENT_EPS                  0.1E-07
 PAO|                                  PRINT%RESTART%WRITE_CYCLES            100
 PAO|                                  RESTART_FILE 
 PAO|                                  PREOPT_DM_FILE 2H2O_ref_LS_DM_SPIN_1_RESTART.dm
 PAO|                                  MACHINE_LEARNING%METHOD       GAUSSIAN_PR
 PAO|                                  MACHINE_LEARNING%PRIOR               ZERO
 PAO|                                  MACHINE_LEARNING%DESCRIPTOR     POTENTIAL
 PAO|                                  MACHINE_LEARNING%TOLERANCE        0.1E-01
 PAO|                                  MACHINE_LEARNING%GP_NOISE_VAR     0.1E+00
 PAO|                                  MACHINE_LEARNING%GP_SCALE         0.5E-01
 

 Calculating atomic Fock matrix for atomic kind: O

 Electronic structure
    Total number of core electrons                                          2.00
    Total number of valence electrons                                       6.00
    Total number of electrons                                               8.00
    Multiplicity                                                   not specified
    S   [  2.00] 2.00
    P      4.00


 *******************************************************************************
                  Iteration          Convergence                     Energy [au]
 *******************************************************************************
                          1        0.708315                     -15.576645311500
                          2        0.608879                     -15.587933561584
                          3        0.102828E-01                 -15.656849565404
                          4        0.113889E-02                 -15.656866888140
                          5        0.434197E-03                 -15.656867072159
                          6        0.263771E-03                 -15.656867091904
                          7        0.478536E-06                 -15.656867103452

 Energy components [Hartree]           Total Energy ::          -15.656867103452
                                        Band Energy ::           -3.000198112285
                                     Kinetic Energy ::           11.759971203220
                                   Potential Energy ::          -27.416838306672
                                      Virial (-V/T) ::            2.331369510426
                                        Core Energy ::          -26.140716385623
                                          XC Energy ::           -3.154051012914
                                     Coulomb Energy ::           13.637900295084
                       Total Pseudopotential Energy ::          -37.935781716540
                       Local Pseudopotential Energy ::          -39.218907440693
                    Nonlocal Pseudopotential Energy ::            1.283125724153
                                        Confinement ::            0.350941276976

 Orbital energies  State     L     Occupation   Energy[a.u.]          Energy[eV]

                       1     0          2.000      -0.864471          -23.523463

                       1     1          4.000      -0.317814           -8.648154


 Total Electron Density at R=0:                                         0.000068

 Calculating atomic Fock matrix for atomic kind: H

 Electronic structure
    Total number of core electrons                                          0.00
    Total number of valence electrons                                       1.00
    Total number of electrons                                               1.00
    Multiplicity                                                   not specified
    S      1.00


 *******************************************************************************
                  Iteration          Convergence                     Energy [au]
 *******************************************************************************
                          1        0.437545E-02                  -0.424159432110
                          2        0.531356E-03                  -0.424178438213
                          3        0.259176E-06                  -0.424178722480

 Energy components [Hartree]           Total Energy ::           -0.424178722480
                                        Band Energy ::           -0.199015229016
                                     Kinetic Energy ::            0.464007633961
                                   Potential Energy ::           -0.888186356441
                                      Virial (-V/T) ::            1.914163240935
                                        Core Energy ::           -0.479160803564
                                          XC Energy ::           -0.244352904054
                                     Coulomb Energy ::            0.299334985138
                       Total Pseudopotential Energy ::           -0.962295316385
                       Local Pseudopotential Energy ::           -0.962295316385
                    Nonlocal Pseudopotential Energy ::            0.000000000000
                                        Confinement ::            0.191268788606

 Orbital energies  State     L     Occupation   Energy[a.u.]          Energy[eV]

                       1     0          1.000      -0.199015           -5.415480


 Total Electron Density at R=0:                                         0.242907
 PAO| Made initial guess for matrix_X with norm:   4.8989794855663567     

     Lanczos converged:  T threshold:   0.100E-02
     Est. extremal eigenvalues:    0.312E+01   0.120E+00
     Est. condition number :    0.260E+02

 Order=           3
     NS sqrt iter    1 1.00000000   0.760E+00       0.001       62.802
     NS sqrt iter    2 1.00000000   0.403E+00       0.001      107.337
     NS sqrt iter    3 1.00000000   0.150E+00       0.001      110.592
     NS sqrt iter    4 1.00000000   0.150E-01       0.001      110.592
     NS sqrt iter    5 1.00000000   0.219E-04       0.001       82.944
     Symmetrizing Results
     Final NS sqrt iter    5 1.00000000   0.727E-09

 PAO| Read restart DM 2H2O_ref_LS_DM_SPIN_1_RESTART.dm with checksum:    55.534531875864154     
 PAO| Quickstep energy from restart density:  -34.446636909593252     
 PAO| ======================= Iteration:         1 =============================

     Lanczos converged:  T threshold:   0.100E-02
     Est. extremal eigenvalues:    0.312E+01   0.120E+00
     Est. condition number :    0.260E+02

 Order=           3
     NS sqrt iter    1 1.00000000   0.760E+00       0.001       64.512
     NS sqrt iter    2 1.00000000   0.403E+00       0.001      110.592
     NS sqrt iter    3 1.00000000   0.150E+00       0.001      110.592
     NS sqrt iter    4 1.00000000   0.150E-01       0.001      110.592
     NS sqrt iter    5 1.00000000   0.219E-04       0.001       82.944
     Symmetrizing Results
     Final NS sqrt iter    5 1.00000000   0.727E-09

     Est. extremal eigenvalues     -0.90096     1.75127  converged:  T
     TRS4 it   1 1.00000000   0.875E+00       0.000       16.128   0.100E-07
     TRS4 it   2 1.00000000   0.670E+00       0.001       32.256   0.100E-07
     TRS4 it   3 1.00000000   0.488E+00       0.001       32.256   0.100E-07
     TRS4 it   4 1.00000000   0.308E+00       0.001       32.256   0.100E-07
     TRS4 it   5 1.00000000   0.152E+00       0.001       32.256   0.100E-07
     TRS4 it   6 1.00000000   0.443E-01       0.001       32.256   0.100E-07
     TRS4 it   7 1.00000000   0.473E-02       0.001       32.256   0.100E-07
     TRS4 it   8 1.00000000   0.689E-04       0.001       32.256   0.100E-07
     TRS4 it   9 1.00000000   0.181E-07       0.001       32.256   0.100E-07
     Final TRS4 iteration    9 1.00000000   0.181E-07
     Chemical potential (mu):      -0.06729
 
 PAO| energy:  -7.5257714269143055      penalty:   3.8210450096642766E-033
 PAO|CG| warming up with steepest descent
 PAO|CG| beta:    0.0000000000000000     
 PAO| norm of gradient:  0.78764179678285651     
 PAO|LS| adapt:  T F F
 PAO|LS| adapt: scan_steps:    0.0000000000000000        0.0000000000000000        0.0000000000000000     
 PAO|LS| adapt: energies:   -7.5257714269143055        0.0000000000000000        0.0000000000000000     
 PAO| ======================= Iteration:         2 =============================

     Lanczos converged:  T threshold:   0.100E-02
     Est. extremal eigenvalues:    0.305E+01   0.134E+00
     Est. condition number :    0.227E+02

 Order=           3
     NS sqrt iter    1 1.00000000   0.750E+00       0.001       64.512
     NS sqrt iter    2 1.00000000   0.390E+00       0.001      110.592
     NS sqrt iter    3 1.00000000   0.133E+00       0.001      110.592
     NS sqrt iter    4 1.00000000   0.101E-01       0.001      110.592
     NS sqrt iter    5 1.00000000   0.638E-05       0.001       82.944
     Symmetrizing Results
     Final NS sqrt iter    5 1.00000000   0.586E-10

     Est. extremal eigenvalues     -0.90467     1.70361  converged:  T
     TRS4 it   1 1.00000000   0.871E+00       0.000       16.128   0.100E-07
     TRS4 it   2 1.00000000   0.652E+00       0.001       32.256   0.100E-07
     TRS4 it   3 1.00000000   0.470E+00       0.001       32.256   0.100E-07
     TRS4 it   4 1.00000000   0.285E+00       0.001       32.256   0.100E-07
     TRS4 it   5 1.00000000   0.131E+00       0.001       32.256   0.100E-07
     TRS4 it   6 1.00000000   0.328E-01       0.001       32.256   0.100E-07
     TRS4 it   7 1.00000000   0.260E-02       0.001       32.256   0.100E-07
     TRS4 it   8 1.00000000   0.209E-04       0.001       32.256   0.100E-07
     TRS4 it   9 1.00000000   0.168E-08       0.001       32.256   0.100E-07
     Final TRS4 iteration    9 1.00000000   0.168E-08
     Chemical potential (mu):      -0.05521
 
 PAO| energy:  -7.5817571207382404      penalty:   2.3036273884979040E-008
 PAO|LS| adapt:  T T F
 PAO|LS| adapt: scan_steps:    0.0000000000000000       0.10000000000000001        0.0000000000000000     
 PAO|LS| adapt: energies:   -7.5257714269143055       -7.5817571207382404        0.0000000000000000     
 PAO| ======================= Iteration:         3 =============================

     Lanczos converged:  T threshold:   0.100E-02
     Est. extremal eigenvalues:    0.299E+01   0.146E+00
     Est. condition number :    0.204E+02

 Order=           3
     NS sqrt iter    1 1.00000000   0.737E+00       0.001       64.512
     NS sqrt iter    2 1.00000000   0.375E+00       0.001      110.592
     NS sqrt iter    3 1.00000000   0.118E+00       0.001      110.592
     NS sqrt iter    4 1.00000000   0.683E-02       0.001      110.592
     NS sqrt iter    5 1.00000000   0.196E-05       0.001       82.944
     Symmetrizing Results
     Final NS sqrt iter    5 1.00000000   0.560E-11

     Est. extremal eigenvalues     -0.90810     1.66855  converged:  T
     TRS4 it   1 1.00000000   0.868E+00       0.000       16.128   0.100E-07
     TRS4 it   2 1.00000000   0.636E+00       0.001       32.256   0.100E-07
     TRS4 it   3 1.00000000   0.453E+00       0.001       32.256   0.100E-07
     TRS4 it   4 1.00000000   0.264E+00       0.001       32.256   0.100E-07
     TRS4 it   5 1.00000000   0.111E+00       0.001       32.256   0.100E-07
     TRS4 it   6 1.00000000   0.235E-01       0.001       32.256   0.100E-07
     TRS4 it   7 1.00000000   0.132E-02       0.001       32.256   0.100E-07
     TRS4 it   8 1.00000000   0.532E-05       0.001       32.256   0.100E-07
     TRS4 it   9 1.00000000   0.111E-09       0.001       32.256   0.100E-07
     Final TRS4 iteration    9 1.00000000   0.111E-09
     Chemical potential (mu):      -0.04186
 
 PAO| energy:  -7.6249475652861269      penalty:   3.6858038464746643E-007
 PAO|LS| adapt:  T T F
 PAO|LS| adapt: scan_steps:    0.0000000000000000       0.20000000000000001        0.0000000000000000     
 PAO|LS| adapt: energies:   -7.5257714269143055       -7.6249475652861269        0.0000000000000000     
 PAO| ======================= Iteration:         4 =============================

     Lanczos converged:  T threshold:   0.100E-02
     Est. extremal eigenvalues:    0.284E+01   0.164E+00
     Est. condition number :    0.173E+02

 Order=           3
     NS sqrt iter    1 1.00000000   0.710E+00       0.001       62.218
     NS sqrt iter    2 1.00000000   0.345E+00       0.001      110.592
     NS sqrt iter    3 1.00000000   0.918E-01       0.001      110.592
     NS sqrt iter    4 1.00000000   0.327E-02       0.001      110.592
     NS sqrt iter    5 1.00000000   0.275E-06       0.001       79.616
     Symmetrizing Results
     Final NS sqrt iter    5 1.00000000   0.682E-09

     Est. extremal eigenvalues     -0.91329     1.62457  converged:  T
     TRS4 it   1 1.00000000   0.868E+00       0.000       16.128   0.100E-07
     TRS4 it   2 1.00000000   0.612E+00       0.001       32.256   0.100E-07
     TRS4 it   3 1.00000000   0.422E+00       0.001       32.256   0.100E-07
     TRS4 it   4 1.00000000   0.226E+00       0.001       32.256   0.100E-07
     TRS4 it   5 1.00000000   0.792E-01       0.001       32.256   0.100E-07
     TRS4 it   6 1.00000000   0.113E-01       0.001       32.256   0.100E-07
     TRS4 it   7 1.00000000   0.278E-03       0.001       32.256   0.100E-07
     TRS4 it   8 1.00000000   0.226E-06       0.001       32.256   0.100E-07
     TRS4 it   9 1.00000000   0.200E-12       0.001       32.256   0.100E-07
     Final TRS4 iteration    9 1.00000000   0.200E-12
     Chemical potential (mu):      -0.01220
 
 PAO| energy:  -7.6712501044739598      penalty:   5.8972861742618572E-006
 PAO|LS| Need extra step
 PAO|LS| adapt:  T T F
 PAO|LS| adapt: scan_steps:    0.0000000000000000       0.40000000000000002        0.0000000000000000     
 PAO|LS| adapt: energies:   -7.5257714269143055       -7.6712501044739598        0.0000000000000000     
 PAO| ======================= Iteration:         5 =============================

     Lanczos converged:  T threshold:   0.100E-02
     Est. extremal eigenvalues:    0.253E+01   0.190E+00
     Est. condition number :    0.133E+02

 Order=           3
     NS sqrt iter    1 1.00000000   0.656E+00       0.001       64.512
     NS sqrt iter    2 1.00000000   0.288E+00       0.001      109.706
     NS sqrt iter    3 1.00000000   0.558E-01       0.001      110.592
     NS sqrt iter    4 1.00000000   0.892E-03       0.001      110.592
     NS sqrt iter    5 1.00000000   0.527E-08       0.001       37.888
     Symmetrizing Results
     Final NS sqrt iter    5 1.00000000   0.315E-08

     Est. extremal eigenvalues     -0.91366     1.58576  converged:  T
     TRS4 it   1 1.00000000   0.872E+00       0.000       16.128   0.100E-07
     TRS4 it   2 1.00000000   0.582E+00       0.001       32.256   0.100E-07
     TRS4 it   3 1.00000000   0.376E+00       0.001       32.256   0.100E-07
     TRS4 it   4 1.00000000   0.169E+00       0.001       32.256   0.100E-07
     TRS4 it   5 1.00000000   0.409E-01       0.001       32.256   0.100E-07
     TRS4 it   6 1.00000000   0.263E-02       0.001       32.256   0.100E-07
     TRS4 it   7 1.00000000   0.122E-04       0.001       32.256   0.100E-07
     TRS4 it   8 1.00000000   0.316E-09       0.001       32.256   0.100E-07
     Final TRS4 iteration    8 1.00000000   0.316E-09
     Chemical potential (mu):       0.03779
 
 PAO| energy:  -7.6102020723541646      penalty:   9.4356578947410780E-005
 PAO|LS| Need extra step
 PAO|LS| adapt:  T T T
 PAO|LS| adapt: scan_steps:    0.0000000000000000       0.40000000000000002       0.80000000000000004     
 PAO|LS| adapt: energies:   -7.5257714269143055       -7.6712501044739598       -7.6102020723541646     
 PAO|LS| adapt: suggested step_size:   0.48176244667908003     
 PAO|LS| adapt: predicted energy  -7.6755646395651205     
 PAO| ======================= Iteration:         6 =============================

     Lanczos converged:  T threshold:   0.100E-02
     Est. extremal eigenvalues:    0.277E+01   0.170E+00
     Est. condition number :    0.164E+02

 Order=           3
     NS sqrt iter    1 1.00000000   0.698E+00       0.001       64.512
     NS sqrt iter    2 1.00000000   0.333E+00       0.001      107.360
     NS sqrt iter    3 1.00000000   0.828E-01       0.001      109.868
     NS sqrt iter    4 1.00000000   0.248E-02       0.001      110.266
     NS sqrt iter    5 1.00000000   0.134E-06       0.001       74.880
     Symmetrizing Results
     Final NS sqrt iter    5 1.00000000   0.888E-09

     Est. extremal eigenvalues     -0.91453     1.61306  converged:  T
     TRS4 it   1 1.00000000   0.869E+00       0.000       16.128   0.100E-07
     TRS4 it   2 1.00000000   0.605E+00       0.001       32.256   0.100E-07
     TRS4 it   3 1.00000000   0.411E+00       0.001       32.256   0.100E-07
     TRS4 it   4 1.00000000   0.212E+00       0.001       32.256   0.100E-07
     TRS4 it   5 1.00000000   0.687E-01       0.001       32.256   0.100E-07
     TRS4 it   6 1.00000000   0.822E-02       0.001       32.256   0.100E-07
     TRS4 it   7 1.00000000   0.140E-03       0.001       32.256   0.100E-07
     TRS4 it   8 1.00000000   0.542E-07       0.001       32.256   0.100E-07
     Final TRS4 iteration    8 1.00000000   0.542E-07
     Chemical potential (mu):      -0.00024
 
 PAO| energy:  -7.6748810791490216      penalty:   1.2409206541644110E-005
 PAO|CG| warming up with steepest descent
 PAO|CG| beta:    0.0000000000000000     
 PAO| norm of gradient:  0.41151888705978051     
 PAO| energy improvement: -0.14910965223471617     
 PAO| step      6                   -7.674881079  0.257E-01  0.482E+00     0.083
 PAO|LS| adapt:  T F F
 PAO|LS| adapt: scan_steps:    0.0000000000000000        0.0000000000000000        0.0000000000000000     
 PAO|LS| adapt: energies:   -7.6748810791490216        0.0000000000000000        0.0000000000000000     
 PAO| ======================= Iteration:         7 =============================

     Lanczos converged:  T threshold:   0.100E-02
     Est. extremal eigenvalues:    0.270E+01   0.184E+00
     Est. condition number :    0.147E+02

 Order=           3
     NS sqrt iter    1 1.00000000   0.684E+00       0.001       64.512
     NS sqrt iter    2 1.00000000   0.313E+00       0.001      108.621
     NS sqrt iter    3 1.00000000   0.690E-01       0.001      110.592
     NS sqrt iter    4 1.00000000   0.150E-02       0.001      110.592
     NS sqrt iter    5 1.00000000   0.329E-07       0.001       59.904
     Symmetrizing Results
     Final NS sqrt iter    5 1.00000000   0.416E-08

     Est. extremal eigenvalues     -0.91618     1.62057  converged:  T
     TRS4 it   1 1.00000000   0.874E+00       0.000       16.128   0.100E-07
     TRS4 it   2 1.00000000   0.609E+00       0.001       32.256   0.100E-07
     TRS4 it   3 1.00000000   0.416E+00       0.001       32.256   0.100E-07
     TRS4 it   4 1.00000000   0.217E+00       0.001       32.256   0.100E-07
     TRS4 it   5 1.00000000   0.718E-01       0.001       32.256   0.100E-07
     TRS4 it   6 1.00000000   0.884E-02       0.001       32.256   0.100E-07
     TRS4 it   7 1.00000000   0.156E-03       0.001       32.256   0.100E-07
     TRS4 it   8 1.00000000   0.615E-07       0.001       32.256   0.100E-07
     Final TRS4 iteration    8 1.00000000   0.615E-07
     Chemical potential (mu):      -0.00077
 
 PAO| energy:  -7.6722588957693594      penalty:   1.8352836544731798E-005
 PAO|LS| adapt:  T F T
 PAO|LS| adapt: scan_steps:    0.0000000000000000        0.0000000000000000       0.48176244667908003     
 PAO|LS| adapt: energies:   -7.6748810791490216        0.0000000000000000       -7.6722588957693594     
 PAO| ======================= Iteration:         8 =============================

     Lanczos converged:  T threshold:   0.100E-02
     Est. extremal eigenvalues:    0.274E+01   0.176E+00
     Est. condition number :    0.155E+02

 Order=           3
     NS sqrt iter    1 1.00000000   0.691E+00       0.001       64.512
     NS sqrt iter    2 1.00000000   0.323E+00       0.001      110.142
     NS sqrt iter    3 1.00000000   0.757E-01       0.001      110.454
     NS sqrt iter    4 1.00000000   0.194E-02       0.001      110.592
     NS sqrt iter    5 1.00000000   0.683E-07       0.001       70.016
     Symmetrizing Results
     Final NS sqrt iter    5 1.00000000   0.463E-09

     Est. extremal eigenvalues     -0.91639     1.61651  converged:  T
     TRS4 it   1 1.00000000   0.871E+00       0.000       16.128   0.100E-07
     TRS4 it   2 1.00000000   0.606E+00       0.001       32.256   0.100E-07
     TRS4 it   3 1.00000000   0.413E+00       0.001       32.256   0.100E-07
     TRS4 it   4 1.00000000   0.214E+00       0.001       32.256   0.100E-07
     TRS4 it   5 1.00000000   0.703E-01       0.001       32.256   0.100E-07
     TRS4 it   6 1.00000000   0.865E-02       0.001       32.256   0.100E-07
     TRS4 it   7 1.00000000   0.154E-03       0.001       32.256   0.100E-07
     TRS4 it   8 1.00000000   0.626E-07       0.001       32.256   0.100E-07
     Final TRS4 iteration    8 1.00000000   0.626E-07
     Chemical potential (mu):      -0.00095
 
 PAO| energy:  -7.6944312917950528      penalty:   1.3388228480086047E-005
 PAO|LS| adapt:  T T T
 PAO|LS| adapt: scan_steps:    0.0000000000000000       0.24088122333954001       0.48176244667908003     
 PAO|LS| adapt: energies:   -7.6748810791490216       -7.6944312917950528       -7.6722588957693594     
 PAO|LS| adapt: suggested step_size:   0.23331176926628944     
 PAO|LS| adapt: predicted energy  -7.6944518916745173     
 PAO| ======================= Iteration:         9 =============================

     Lanczos converged:  T threshold:   0.100E-02
     Est. extremal eigenvalues:    0.274E+01   0.176E+00
     Est. condition number :    0.156E+02

 Order=           3
     NS sqrt iter    1 1.00000000   0.691E+00       0.001       64.512
     NS sqrt iter    2 1.00000000   0.323E+00       0.001      110.367
     NS sqrt iter    3 1.00000000   0.760E-01       0.001      109.474
     NS sqrt iter    4 1.00000000   0.196E-02       0.001      110.592
     NS sqrt iter    5 1.00000000   0.698E-07       0.001       70.016
     Symmetrizing Results
     Final NS sqrt iter    5 1.00000000   0.473E-09

     Est. extremal eigenvalues     -0.91637     1.61639  converged:  T
     TRS4 it   1 1.00000000   0.871E+00       0.000       16.128   0.100E-07
     TRS4 it   2 1.00000000   0.606E+00       0.001       32.256   0.100E-07
     TRS4 it   3 1.00000000   0.413E+00       0.001       32.256   0.100E-07
     TRS4 it   4 1.00000000   0.214E+00       0.001       32.256   0.100E-07
     TRS4 it   5 1.00000000   0.702E-01       0.001       32.256   0.100E-07
     TRS4 it   6 1.00000000   0.864E-02       0.001       32.256   0.100E-07
     TRS4 it   7 1.00000000   0.153E-03       0.001       32.256   0.100E-07
     TRS4 it   8 1.00000000   0.625E-07       0.001       32.256   0.100E-07
     Final TRS4 iteration    8 1.00000000   0.625E-07
     Chemical potential (mu):      -0.00094
 
 PAO| energy:  -7.6944616632445966      penalty:   1.3312904833787978E-005
 PAO|CG| trace_G_new    3.5631328466768447E-002
 PAO|CG| trace_G_prev   0.16934779440692038     
 PAO|CG| trace_G_mix   -1.2729135448352209E-003
 PAO|CG| trace_D   0.16934779440692038     
 PAO|CG| trace_D_Gnew   1.2729135448352209E-003
 PAO|CG| beta:   0.21791982671429216     
 PAO| norm of gradient:  0.18876262465532853     
 PAO| energy improvement:  -1.9580584095574949E-002
 PAO| step      9                   -7.694461663  0.118E-01  0.233E+00     0.050
 PAO|LS| adapt:  T F F
 PAO|LS| adapt: scan_steps:    0.0000000000000000        0.0000000000000000        0.0000000000000000     
 PAO|LS| adapt: energies:   -7.6944616632445966        0.0000000000000000        0.0000000000000000     
 PAO| ======================= Iteration:        10 =============================

     Lanczos converged:  T threshold:   0.100E-02
     Est. extremal eigenvalues:    0.271E+01   0.182E+00
     Est. condition number :    0.149E+02

 Order=           3
     NS sqrt iter    1 1.00000000   0.684E+00       0.001       64.512
     NS sqrt iter    2 1.00000000   0.316E+00       0.001      110.461
     NS sqrt iter    3 1.00000000   0.708E-01       0.001      108.698
     NS sqrt iter    4 1.00000000   0.160E-02       0.001      110.592
     NS sqrt iter    5 1.00000000   0.390E-07       0.001       63.360
     Symmetrizing Results
     Final NS sqrt iter    5 1.00000000   0.246E-08

     Est. extremal eigenvalues     -0.91724     1.62035  converged:  T
     TRS4 it   1 1.00000000   0.872E+00       0.000       16.128   0.100E-07
     TRS4 it   2 1.00000000   0.607E+00       0.001       32.256   0.100E-07
     TRS4 it   3 1.00000000   0.413E+00       0.001       32.256   0.100E-07
     TRS4 it   4 1.00000000   0.213E+00       0.001       32.256   0.100E-07
     TRS4 it   5 1.00000000   0.691E-01       0.001       32.256   0.100E-07
     TRS4 it   6 1.00000000   0.829E-02       0.001       32.256   0.100E-07
     TRS4 it   7 1.00000000   0.139E-03       0.001       32.256   0.100E-07
     TRS4 it   8 1.00000000   0.488E-07       0.001       32.256   0.100E-07
     Final TRS4 iteration    8 1.00000000   0.488E-07
     Chemical potential (mu):       0.00181
 
 PAO| energy:  -7.6992279918657660      penalty:   1.3830247317604352E-005
 PAO|LS| adapt:  T T F
 PAO|LS| adapt: scan_steps:    0.0000000000000000       0.23331176926628944        0.0000000000000000     
 PAO|LS| adapt: energies:   -7.6944616632445966       -7.6992279918657660        0.0000000000000000     
 PAO| ======================= Iteration:        11 =============================

     Lanczos converged:  T threshold:   0.100E-02
     Est. extremal eigenvalues:    0.267E+01   0.187E+00
     Est. condition number :    0.143E+02

 Order=           3
     NS sqrt iter    1 1.00000000   0.677E+00       0.001       59.067
     NS sqrt iter    2 1.00000000   0.308E+00       0.001       97.112
     NS sqrt iter    3 1.00000000   0.659E-01       0.001       98.185
     NS sqrt iter    4 1.00000000   0.130E-02       0.001       96.568
     NS sqrt iter    5 1.00000000   0.207E-07       0.001       48.229
     Symmetrizing Results
     Final NS sqrt iter    5 1.00000000   0.478E-08

     Est. extremal eigenvalues     -0.91702     1.62526  converged:  T
     TRS4 it   1 1.00000000   0.873E+00       0.000       16.128   0.100E-07
     TRS4 it   2 1.00000000   0.608E+00       0.001       32.256   0.100E-07
     TRS4 it   3 1.00000000   0.413E+00       0.001       32.256   0.100E-07
     TRS4 it   4 1.00000000   0.212E+00       0.001       32.256   0.100E-07
     TRS4 it   5 1.00000000   0.680E-01       0.001       32.256   0.100E-07
     TRS4 it   6 1.00000000   0.796E-02       0.001       32.256   0.100E-07
     TRS4 it   7 1.00000000   0.125E-03       0.001       32.256   0.100E-07
     TRS4 it   8 1.00000000   0.379E-07       0.001       32.256   0.100E-07
     Final TRS4 iteration    8 1.00000000   0.379E-07
     Chemical potential (mu):       0.00459
 
 PAO| energy:  -7.6972835408231282      penalty:   1.4994007831800837E-005
 PAO|LS| adapt:  T T T
 PAO|LS| adapt: scan_steps:    0.0000000000000000       0.23331176926628944       0.46662353853257887     
 PAO|LS| adapt: energies:   -7.6944616632445966       -7.6992279918657660       -7.6972835408231282     
 PAO|LS| adapt: suggested step_size:   0.28236547714250321     
 PAO|LS| adapt: predicted energy  -7.6993763165289781     
 PAO| ======================= Iteration:        12 =============================

     Lanczos converged:  T threshold:   0.100E-02
     Est. extremal eigenvalues:    0.270E+01   0.183E+00
     Est. condition number :    0.148E+02

 Order=           3
     NS sqrt iter    1 1.00000000   0.683E+00       0.001       59.040
     NS sqrt iter    2 1.00000000   0.314E+00       0.001       98.980
     NS sqrt iter    3 1.00000000   0.698E-01       0.001       97.840
     NS sqrt iter    4 1.00000000   0.153E-02       0.001       98.657
     NS sqrt iter    5 1.00000000   0.342E-07       0.001       55.355
     Symmetrizing Results
     Final NS sqrt iter    5 1.00000000   0.485E-08

     Est. extremal eigenvalues     -0.91728     1.62131  converged:  T
     TRS4 it   1 1.00000000   0.872E+00       0.000       16.128   0.100E-07
     TRS4 it   2 1.00000000   0.607E+00       0.001       32.256   0.100E-07
     TRS4 it   3 1.00000000   0.413E+00       0.001       32.256   0.100E-07
     TRS4 it   4 1.00000000   0.213E+00       0.001       32.256   0.100E-07
     TRS4 it   5 1.00000000   0.688E-01       0.001       32.256   0.100E-07
     TRS4 it   6 1.00000000   0.822E-02       0.001       32.256   0.100E-07
     TRS4 it   7 1.00000000   0.136E-03       0.001       32.256   0.100E-07
     TRS4 it   8 1.00000000   0.463E-07       0.001       32.256   0.100E-07
     Final TRS4 iteration    8 1.00000000   0.463E-07
     Chemical potential (mu):       0.00239
 
 PAO| energy:  -7.6993632784428776      penalty:   1.4015355920726391E-005
 PAO|CG| trace_G_new    1.1395362686238511E-002
 PAO|CG| trace_G_prev    3.5631328466768447E-002
 PAO|CG| trace_G_mix   -4.7129596202288393E-004
 PAO|CG| trace_D    4.3118708292733884E-002
 PAO|CG| trace_D_Gnew   2.4213197794602887E-004
 PAO|CG| beta:   0.33304002850549991     
 PAO| norm of gradient:  0.10674906410005904     
 PAO| energy improvement:  -4.9016151982810285E-003
 PAO| step     12                   -7.699363278  0.667E-02  0.282E+00     0.054
 PAO|LS| adapt:  T F F
 PAO|LS| adapt: scan_steps:    0.0000000000000000        0.0000000000000000        0.0000000000000000     
 PAO|LS| adapt: energies:   -7.6993632784428776        0.0000000000000000        0.0000000000000000     
 PAO| ======================= Iteration:        13 =============================

     Lanczos converged:  T threshold:   0.100E-02
     Est. extremal eigenvalues:    0.267E+01   0.188E+00
     Est. condition number :    0.142E+02

 Order=           3
     NS sqrt iter    1 1.00000000   0.677E+00       0.001       58.234
     NS sqrt iter    2 1.00000000   0.307E+00       0.001      101.829
     NS sqrt iter    3 1.00000000   0.658E-01       0.001      100.579
     NS sqrt iter    4 1.00000000   0.130E-02       0.001       98.685
     NS sqrt iter    5 1.00000000   0.203E-07       0.001       49.570
     Symmetrizing Results
     Final NS sqrt iter    5 1.00000000   0.473E-08

     Est. extremal eigenvalues     -0.91772     1.61523  converged:  T
     TRS4 it   1 1.00000000   0.872E+00       0.000       16.128   0.100E-07
     TRS4 it   2 1.00000000   0.604E+00       0.001       32.256   0.100E-07
     TRS4 it   3 1.00000000   0.409E+00       0.001       32.256   0.100E-07
     TRS4 it   4 1.00000000   0.207E+00       0.001       32.256   0.100E-07
     TRS4 it   5 1.00000000   0.652E-01       0.001       32.256   0.100E-07
     TRS4 it   6 1.00000000   0.730E-02       0.001       32.256   0.100E-07
     TRS4 it   7 1.00000000   0.105E-03       0.001       32.256   0.100E-07
     TRS4 it   8 1.00000000   0.263E-07       0.001       32.256   0.100E-07
     Final TRS4 iteration    8 1.00000000   0.263E-07
     Chemical potential (mu):       0.00670
 
 PAO| energy:  -7.7012842923545675      penalty:   1.4263010523679696E-005
 PAO|LS| adapt:  T T F
 PAO|LS| adapt: scan_steps:    0.0000000000000000       0.28236547714250321        0.0000000000000000     
 PAO|LS| adapt: energies:   -7.6993632784428776       -7.7012842923545675        0.0000000000000000     
 PAO| ======================= Iteration:        14 =============================

     Lanczos converged:  T threshold:   0.100E-02
     Est. extremal eigenvalues:    0.264E+01   0.192E+00
     Est. condition number :    0.138E+02

 Order=           3
     NS sqrt iter    1 1.00000000   0.671E+00       0.001       59.106
     NS sqrt iter    2 1.00000000   0.301E+00       0.001       98.971
     NS sqrt iter    3 1.00000000   0.621E-01       0.001      100.799
     NS sqrt iter    4 1.00000000   0.109E-02       0.001       95.550
     NS sqrt iter    5 1.00000000   0.113E-07       0.001       42.657
     Symmetrizing Results
     Final NS sqrt iter    5 1.00000000   0.508E-08

     Est. extremal eigenvalues     -0.91771     1.60943  converged:  T
     TRS4 it   1 1.00000000   0.871E+00       0.000       16.128   0.100E-07
     TRS4 it   2 1.00000000   0.601E+00       0.001       32.256   0.100E-07
     TRS4 it   3 1.00000000   0.405E+00       0.001       32.256   0.100E-07
     TRS4 it   4 1.00000000   0.202E+00       0.001       32.256   0.100E-07
     TRS4 it   5 1.00000000   0.617E-01       0.001       32.256   0.100E-07
     TRS4 it   6 1.00000000   0.649E-02       0.001       32.256   0.100E-07
     TRS4 it   7 1.00000000   0.807E-04       0.001       32.256   0.100E-07
     TRS4 it   8 1.00000000   0.150E-07       0.001       32.256   0.100E-07
     Final TRS4 iteration    8 1.00000000   0.150E-07
     Chemical potential (mu):       0.01087
 
 PAO| energy:  -7.7006997744031001      penalty:   1.4919566801313459E-005
 PAO|LS| adapt:  T T T
 PAO|LS| adapt: scan_steps:    0.0000000000000000       0.28236547714250321       0.56473095428500641     
 PAO|LS| adapt: energies:   -7.6993632784428776       -7.7012842923545675       -7.7006997744031001     
 PAO|LS| adapt: suggested step_size:   0.35767490047422162     
 PAO|LS| adapt: predicted energy  -7.7013734062408226     
 PAO| ======================= Iteration:        15 =============================

     Lanczos converged:  T threshold:   0.100E-02
     Est. extremal eigenvalues:    0.266E+01   0.189E+00
     Est. condition number :    0.141E+02

 Order=           3
     NS sqrt iter    1 1.00000000   0.675E+00       0.001       59.420
     NS sqrt iter    2 1.00000000   0.306E+00       0.001       99.534
     NS sqrt iter    3 1.00000000   0.648E-01       0.001       98.962
     NS sqrt iter    4 1.00000000   0.124E-02       0.001      101.890
     NS sqrt iter    5 1.00000000   0.178E-07       0.001       48.007
     Symmetrizing Results
     Final NS sqrt iter    5 1.00000000   0.357E-08

     Est. extremal eigenvalues     -0.91776     1.61365  converged:  T
     TRS4 it   1 1.00000000   0.872E+00       0.000       16.128   0.100E-07
     TRS4 it   2 1.00000000   0.603E+00       0.001       32.256   0.100E-07
     TRS4 it   3 1.00000000   0.408E+00       0.001       32.256   0.100E-07
     TRS4 it   4 1.00000000   0.206E+00       0.001       32.256   0.100E-07
     TRS4 it   5 1.00000000   0.642E-01       0.001       32.256   0.100E-07
     TRS4 it   6 1.00000000   0.708E-02       0.001       32.256   0.100E-07
     TRS4 it   7 1.00000000   0.976E-04       0.001       32.256   0.100E-07
     TRS4 it   8 1.00000000   0.226E-07       0.001       32.256   0.100E-07
     Final TRS4 iteration    8 1.00000000   0.226E-07
     Chemical potential (mu):       0.00783
 
 PAO| energy:  -7.7013707579044199      penalty:   1.4395636812571610E-005
 PAO|CG| trace_G_new    2.3180755688716201E-003
 PAO|CG| trace_G_prev    1.1395362686238511E-002
 PAO|CG| trace_G_mix    9.3927658653374785E-005
 PAO|CG| trace_D    1.6016623418508361E-002
 PAO|CG| trace_D_Gnew   2.9872158800496070E-005
 PAO|CG| beta:   0.19518008960822406     
 PAO| norm of gradient:   4.8146397257444094E-002
 PAO| energy improvement:  -2.0074794615423386E-003
 PAO| step     15                   -7.701370758  0.301E-02  0.358E+00     0.056
 PAO|LS| adapt:  T F F
 PAO|LS| adapt: scan_steps:    0.0000000000000000        0.0000000000000000        0.0000000000000000     
 PAO|LS| adapt: energies:   -7.7013707579044199        0.0000000000000000        0.0000000000000000     
 PAO| ======================= Iteration:        16 =============================

     Lanczos converged:  T threshold:   0.100E-02
     Est. extremal eigenvalues:    0.266E+01   0.189E+00
     Est. condition number :    0.140E+02

 Order=           3
     NS sqrt iter    1 1.00000000   0.674E+00       0.001       58.116
     NS sqrt iter    2 1.00000000   0.305E+00       0.001       98.694
     NS sqrt iter    3 1.00000000   0.643E-01       0.001       98.650
     NS sqrt iter    4 1.00000000   0.120E-02       0.001       99.694
     NS sqrt iter    5 1.00000000   0.160E-07       0.001       46.802
     Symmetrizing Results
     Final NS sqrt iter    5 1.00000000   0.411E-08

     Est. extremal eigenvalues     -0.91779     1.61331  converged:  T
     TRS4 it   1 1.00000000   0.872E+00       0.000       16.128   0.100E-07
     TRS4 it   2 1.00000000   0.603E+00       0.001       32.256   0.100E-07
     TRS4 it   3 1.00000000   0.407E+00       0.001       32.256   0.100E-07
     TRS4 it   4 1.00000000   0.204E+00       0.001       32.256   0.100E-07
     TRS4 it   5 1.00000000   0.632E-01       0.001       32.256   0.100E-07
     TRS4 it   6 1.00000000   0.685E-02       0.001       32.256   0.100E-07
     TRS4 it   7 1.00000000   0.917E-04       0.001       32.256   0.100E-07
     TRS4 it   8 1.00000000   0.200E-07       0.001       32.256   0.100E-07
     Final TRS4 iteration    8 1.00000000   0.200E-07
     Chemical potential (mu):       0.00879
 
 PAO| energy:  -7.7015142579390954      penalty:   1.4158899122326330E-005
 PAO|LS| adapt:  T T F
 PAO|LS| adapt: scan_steps:    0.0000000000000000       0.35767490047422162        0.0000000000000000     
 PAO|LS| adapt: energies:   -7.7013707579044199       -7.7015142579390954        0.0000000000000000     
 PAO| ======================= Iteration:        17 =============================

     Lanczos converged:  T threshold:   0.100E-02
     Est. extremal eigenvalues:    0.265E+01   0.190E+00
     Est. condition number :    0.139E+02

 Order=           3
     NS sqrt iter    1 1.00000000   0.672E+00       0.001       59.152
     NS sqrt iter    2 1.00000000   0.303E+00       0.001       99.240
     NS sqrt iter    3 1.00000000   0.638E-01       0.001       99.391
     NS sqrt iter    4 1.00000000   0.117E-02       0.001      100.349
     NS sqrt iter    5 1.00000000   0.143E-07       0.001       45.249
     Symmetrizing Results
     Final NS sqrt iter    5 1.00000000   0.473E-08

     Est. extremal eigenvalues     -0.91767     1.61308  converged:  T
     TRS4 it   1 1.00000000   0.872E+00       0.000       16.128   0.100E-07
     TRS4 it   2 1.00000000   0.602E+00       0.001       32.256   0.100E-07
     TRS4 it   3 1.00000000   0.405E+00       0.001       32.256   0.100E-07
     TRS4 it   4 1.00000000   0.203E+00       0.001       32.256   0.100E-07
     TRS4 it   5 1.00000000   0.622E-01       0.001       32.256   0.100E-07
     TRS4 it   6 1.00000000   0.663E-02       0.001       32.256   0.100E-07
     TRS4 it   7 1.00000000   0.861E-04       0.001       32.256   0.100E-07
     TRS4 it   8 1.00000000   0.177E-07       0.001       32.256   0.100E-07
     Final TRS4 iteration    8 1.00000000   0.177E-07
     Chemical potential (mu):       0.00973
 
 PAO| energy:  -7.7002868869758618      penalty:   1.4017184079693730E-005
 PAO|LS| adapt:  T T T
 PAO|LS| adapt: scan_steps:    0.0000000000000000       0.35767490047422162       0.71534980094844325     
 PAO|LS| adapt: energies:   -7.7013707579044199       -7.7015142579390954       -7.7002868869758618     
 PAO|LS| adapt: suggested step_size:   0.21627814356192154     
 PAO|LS| adapt: predicted energy  -7.7016213774448286     
 PAO| ======================= Iteration:        18 =============================

     Lanczos converged:  T threshold:   0.100E-02
     Est. extremal eigenvalues:    0.266E+01   0.189E+00
     Est. condition number :    0.141E+02

 Order=           3
     NS sqrt iter    1 1.00000000   0.674E+00       0.001       58.864
     NS sqrt iter    2 1.00000000   0.305E+00       0.001      100.477
     NS sqrt iter    3 1.00000000   0.645E-01       0.001       98.584
     NS sqrt iter    4 1.00000000   0.122E-02       0.001      102.514
     NS sqrt iter    5 1.00000000   0.166E-07       0.001       47.263
     Symmetrizing Results
     Final NS sqrt iter    5 1.00000000   0.427E-08

     Est. extremal eigenvalues     -0.91779     1.61343  converged:  T
     TRS4 it   1 1.00000000   0.872E+00       0.000       16.128   0.100E-07
     TRS4 it   2 1.00000000   0.603E+00       0.001       32.256   0.100E-07
     TRS4 it   3 1.00000000   0.407E+00       0.001       32.256   0.100E-07
     TRS4 it   4 1.00000000   0.205E+00       0.001       32.256   0.100E-07
     TRS4 it   5 1.00000000   0.636E-01       0.001       32.256   0.100E-07
     TRS4 it   6 1.00000000   0.694E-02       0.001       32.256   0.100E-07
     TRS4 it   7 1.00000000   0.940E-04       0.001       32.256   0.100E-07
     TRS4 it   8 1.00000000   0.210E-07       0.001       32.256   0.100E-07
     Final TRS4 iteration    8 1.00000000   0.210E-07
     Chemical potential (mu):       0.00841
 
 PAO| energy:  -7.7016210771052602      penalty:   1.4241300825407671E-005
 PAO|CG| trace_G_new    6.9580729689107412E-004
 PAO|CG| trace_G_prev    2.3180755688716201E-003
 PAO|CG| trace_G_mix    1.2861917574070071E-006
 PAO|CG| trace_D    2.9165722192531032E-003
 PAO|CG| trace_D_Gnew  -1.4185903658268494E-006
 PAO|CG| beta:   0.29961107155438516     
 PAO| norm of gradient:   2.6378159467466151E-002
 PAO| energy improvement:  -2.5031920084028769E-004
 PAO| step     18                   -7.701621077  0.165E-02  0.216E+00     0.056
 PAO|LS| adapt:  T F F
 PAO|LS| adapt: scan_steps:    0.0000000000000000        0.0000000000000000        0.0000000000000000     
 PAO|LS| adapt: energies:   -7.7016210771052602        0.0000000000000000        0.0000000000000000     
 PAO| ======================= Iteration:        19 =============================

     Lanczos converged:  T threshold:   0.100E-02
     Est. extremal eigenvalues:    0.266E+01   0.189E+00
     Est. condition number :    0.141E+02

 Order=           3
     NS sqrt iter    1 1.00000000   0.674E+00       0.001       58.566
     NS sqrt iter    2 1.00000000   0.305E+00       0.001       98.900
     NS sqrt iter    3 1.00000000   0.647E-01       0.001       98.498
     NS sqrt iter    4 1.00000000   0.122E-02       0.001       99.287
     NS sqrt iter    5 1.00000000   0.166E-07       0.001       46.667
     Symmetrizing Results
     Final NS sqrt iter    5 1.00000000   0.428E-08

     Est. extremal eigenvalues     -0.91779     1.61353  converged:  T
     TRS4 it   1 1.00000000   0.872E+00       0.000       16.128   0.100E-07
     TRS4 it   2 1.00000000   0.603E+00       0.001       32.256   0.100E-07
     TRS4 it   3 1.00000000   0.407E+00       0.001       32.256   0.100E-07
     TRS4 it   4 1.00000000   0.205E+00       0.001       32.256   0.100E-07
     TRS4 it   5 1.00000000   0.635E-01       0.001       32.256   0.100E-07
     TRS4 it   6 1.00000000   0.693E-02       0.001       32.256   0.100E-07
     TRS4 it   7 1.00000000   0.941E-04       0.001       32.256   0.100E-07
     TRS4 it   8 1.00000000   0.212E-07       0.001       32.256   0.100E-07
     Final TRS4 iteration    8 1.00000000   0.212E-07
     Chemical potential (mu):       0.00830
 
 PAO| energy:  -7.7017336246873338      penalty:   1.3955159414272535E-005
 PAO|LS| adapt:  T T F
 PAO|LS| adapt: scan_steps:    0.0000000000000000       0.21627814356192154        0.0000000000000000     
 PAO|LS| adapt: energies:   -7.7016210771052602       -7.7017336246873338        0.0000000000000000     
 PAO| ======================= Iteration:        20 =============================

     Lanczos converged:  T threshold:   0.100E-02
     Est. extremal eigenvalues:    0.266E+01   0.189E+00
     Est. condition number :    0.141E+02

 Order=           3
     NS sqrt iter    1 1.00000000   0.674E+00       0.001       58.362
     NS sqrt iter    2 1.00000000   0.305E+00       0.001       98.610
     NS sqrt iter    3 1.00000000   0.648E-01       0.001       98.973
     NS sqrt iter    4 1.00000000   0.123E-02       0.001      100.311
     NS sqrt iter    5 1.00000000   0.167E-07       0.001       47.462
     Symmetrizing Results
     Final NS sqrt iter    5 1.00000000   0.429E-08

     Est. extremal eigenvalues     -0.91779     1.61362  converged:  T
     TRS4 it   1 1.00000000   0.872E+00       0.000       16.128   0.100E-07
     TRS4 it   2 1.00000000   0.603E+00       0.001       32.256   0.100E-07
     TRS4 it   3 1.00000000   0.407E+00       0.001       32.256   0.100E-07
     TRS4 it   4 1.00000000   0.205E+00       0.001       32.256   0.100E-07
     TRS4 it   5 1.00000000   0.634E-01       0.001       32.256   0.100E-07
     TRS4 it   6 1.00000000   0.691E-02       0.001       32.256   0.100E-07
     TRS4 it   7 1.00000000   0.942E-04       0.001       32.256   0.100E-07
     TRS4 it   8 1.00000000   0.215E-07       0.001       32.256   0.100E-07
     Final TRS4 iteration    8 1.00000000   0.215E-07
     Chemical potential (mu):       0.00819
 
 PAO| energy:  -7.7017697256822180      penalty:   1.3681319391361545E-005
 PAO|LS| adapt:  T T F
 PAO|LS| adapt: scan_steps:    0.0000000000000000       0.43255628712384309        0.0000000000000000     
 PAO|LS| adapt: energies:   -7.7016210771052602       -7.7017697256822180        0.0000000000000000     
 PAO| ======================= Iteration:        21 =============================

     Lanczos converged:  T threshold:   0.100E-02
     Est. extremal eigenvalues:    0.266E+01   0.189E+00
     Est. condition number :    0.141E+02

 Order=           3
     NS sqrt iter    1 1.00000000   0.674E+00       0.001       58.818
     NS sqrt iter    2 1.00000000   0.306E+00       0.001       98.723
     NS sqrt iter    3 1.00000000   0.652E-01       0.001       99.088
     NS sqrt iter    4 1.00000000   0.124E-02       0.001      100.713
     NS sqrt iter    5 1.00000000   0.169E-07       0.001       46.980
     Symmetrizing Results
     Final NS sqrt iter    5 1.00000000   0.432E-08

     Est. extremal eigenvalues     -0.91778     1.61382  converged:  T
     TRS4 it   1 1.00000000   0.872E+00       0.000       16.128   0.100E-07
     TRS4 it   2 1.00000000   0.602E+00       0.001       32.256   0.100E-07
     TRS4 it   3 1.00000000   0.406E+00       0.001       32.256   0.100E-07
     TRS4 it   4 1.00000000   0.204E+00       0.001       32.256   0.100E-07
     TRS4 it   5 1.00000000   0.631E-01       0.001       32.256   0.100E-07
     TRS4 it   6 1.00000000   0.689E-02       0.001       32.256   0.100E-07
     TRS4 it   7 1.00000000   0.945E-04       0.001       32.256   0.100E-07
     TRS4 it   8 1.00000000   0.219E-07       0.001       32.256   0.100E-07
     Final TRS4 iteration    8 1.00000000   0.219E-07
     Chemical potential (mu):       0.00794
 
 PAO| energy:  -7.7016102920508098      penalty:   1.3169945610141958E-005
 PAO|LS| Need extra step
 PAO|LS| adapt:  T T T
 PAO|LS| adapt: scan_steps:    0.0000000000000000       0.43255628712384309       0.86511257424768617     
 PAO|LS| adapt: energies:   -7.7016210771052602       -7.7017697256822180       -7.7016102920508098     
 PAO|LS| adapt: suggested step_size:   0.42498502370321395     
 PAO|LS| adapt: predicted energy  -7.7017697728763581     
 PAO| ======================= Iteration:        22 =============================

     Lanczos converged:  T threshold:   0.100E-02
     Est. extremal eigenvalues:    0.266E+01   0.189E+00
     Est. condition number :    0.141E+02

 Order=           3
     NS sqrt iter    1 1.00000000   0.674E+00       0.001       59.133
     NS sqrt iter    2 1.00000000   0.305E+00       0.001       98.961
     NS sqrt iter    3 1.00000000   0.648E-01       0.001       98.505
     NS sqrt iter    4 1.00000000   0.123E-02       0.001      101.229
     NS sqrt iter    5 1.00000000   0.167E-07       0.001       47.462
     Symmetrizing Results
     Final NS sqrt iter    5 1.00000000   0.429E-08

     Est. extremal eigenvalues     -0.91779     1.61362  converged:  T
     TRS4 it   1 1.00000000   0.872E+00       0.000       16.128   0.100E-07
     TRS4 it   2 1.00000000   0.603E+00       0.001       32.256   0.100E-07
     TRS4 it   3 1.00000000   0.407E+00       0.001       32.256   0.100E-07
     TRS4 it   4 1.00000000   0.205E+00       0.001       32.256   0.100E-07
     TRS4 it   5 1.00000000   0.634E-01       0.001       32.256   0.100E-07
     TRS4 it   6 1.00000000   0.691E-02       0.001       32.256   0.100E-07
     TRS4 it   7 1.00000000   0.942E-04       0.001       32.256   0.100E-07
     TRS4 it   8 1.00000000   0.214E-07       0.001       32.256   0.100E-07
     Final TRS4 iteration    8 1.00000000   0.214E-07
     Chemical potential (mu):       0.00819
 
 PAO| energy:  -7.7017697594847956      penalty:   1.3690699971850940E-005
 PAO|CG| trace_G_new    2.0594303395500140E-004
 PAO|CG| trace_G_prev    6.9580729689107412E-004
 PAO|CG| trace_G_mix    2.8000449606625559E-006
 PAO|CG| trace_D    9.5846868581947920E-004
 PAO|CG| trace_D_Gnew  -1.7686382415596245E-006
 PAO|CG| beta:   0.29195294430224994     
 PAO| norm of gradient:   1.4350715450980184E-002
 PAO| energy improvement:  -1.4868237953535868E-004
 PAO| step     22                   -7.701769759  0.897E-03  0.425E+00     0.072
 PAO|LS| adapt:  T F F
 PAO|LS| adapt: scan_steps:    0.0000000000000000        0.0000000000000000        0.0000000000000000     
 PAO|LS| adapt: energies:   -7.7017697594847956        0.0000000000000000        0.0000000000000000     
 PAO| ======================= Iteration:        23 =============================

     Lanczos converged:  T threshold:   0.100E-02
     Est. extremal eigenvalues:    0.266E+01   0.189E+00
     Est. condition number :    0.141E+02

 Order=           3
     NS sqrt iter    1 1.00000000   0.674E+00       0.001       57.939
     NS sqrt iter    2 1.00000000   0.305E+00       0.001       98.531
     NS sqrt iter    3 1.00000000   0.649E-01       0.001       98.652
     NS sqrt iter    4 1.00000000   0.123E-02       0.001       99.794
     NS sqrt iter    5 1.00000000   0.166E-07       0.001       47.095
     Symmetrizing Results
     Final NS sqrt iter    5 1.00000000   0.423E-08

     Est. extremal eigenvalues     -0.91779     1.61349  converged:  T
     TRS4 it   1 1.00000000   0.872E+00       0.000       16.128   0.100E-07
     TRS4 it   2 1.00000000   0.603E+00       0.001       32.256   0.100E-07
     TRS4 it   3 1.00000000   0.407E+00       0.001       32.256   0.100E-07
     TRS4 it   4 1.00000000   0.205E+00       0.001       32.256   0.100E-07
     TRS4 it   5 1.00000000   0.635E-01       0.001       32.256   0.100E-07
     TRS4 it   6 1.00000000   0.694E-02       0.001       32.256   0.100E-07
     TRS4 it   7 1.00000000   0.952E-04       0.001       32.256   0.100E-07
     TRS4 it   8 1.00000000   0.220E-07       0.001       32.256   0.100E-07
     Final TRS4 iteration    8 1.00000000   0.220E-07
     Chemical potential (mu):       0.00794
 
 PAO| energy:  -7.7018117669241555      penalty:   1.3074553521815804E-005
 PAO|LS| adapt:  T T F
 PAO|LS| adapt: scan_steps:    0.0000000000000000       0.42498502370321395        0.0000000000000000     
 PAO|LS| adapt: energies:   -7.7017697594847956       -7.7018117669241555        0.0000000000000000     
 PAO| ======================= Iteration:        24 =============================

     Lanczos converged:  T threshold:   0.100E-02
     Est. extremal eigenvalues:    0.266E+01   0.189E+00
     Est. condition number :    0.140E+02

 Order=           3
     NS sqrt iter    1 1.00000000   0.674E+00       0.001       58.048
     NS sqrt iter    2 1.00000000   0.305E+00       0.001       98.687
     NS sqrt iter    3 1.00000000   0.649E-01       0.001       98.901
     NS sqrt iter    4 1.00000000   0.123E-02       0.001       99.040
     NS sqrt iter    5 1.00000000   0.164E-07       0.001       47.281
     Symmetrizing Results
     Final NS sqrt iter    5 1.00000000   0.418E-08

     Est. extremal eigenvalues     -0.91779     1.61335  converged:  T
     TRS4 it   1 1.00000000   0.872E+00       0.000       16.128   0.100E-07
     TRS4 it   2 1.00000000   0.603E+00       0.001       32.256   0.100E-07
     TRS4 it   3 1.00000000   0.407E+00       0.001       32.256   0.100E-07
     TRS4 it   4 1.00000000   0.205E+00       0.001       32.256   0.100E-07
     TRS4 it   5 1.00000000   0.636E-01       0.001       32.256   0.100E-07
     TRS4 it   6 1.00000000   0.697E-02       0.001       32.256   0.100E-07
     TRS4 it   7 1.00000000   0.963E-04       0.001       32.256   0.100E-07
     TRS4 it   8 1.00000000   0.226E-07       0.001       32.256   0.100E-07
     Final TRS4 iteration    8 1.00000000   0.226E-07
     Chemical potential (mu):       0.00768
 
 PAO| energy:  -7.7017618352927748      penalty:   1.2482235166204024E-005
 PAO|LS| adapt:  T T T
 PAO|LS| adapt: scan_steps:    0.0000000000000000       0.42498502370321395       0.84997004740642790     
 PAO|LS| adapt: energies:   -7.7017697594847956       -7.7018117669241555       -7.7017618352927748     
 PAO|LS| adapt: suggested step_size:   0.40667037843513637     
 PAO|LS| adapt: predicted energy  -7.7018118522970260     
 PAO| ======================= Iteration:        25 =============================

     Lanczos converged:  T threshold:   0.100E-02
     Est. extremal eigenvalues:    0.266E+01   0.189E+00
     Est. condition number :    0.141E+02

 Order=           3
     NS sqrt iter    1 1.00000000   0.674E+00       0.001       59.149
     NS sqrt iter    2 1.00000000   0.305E+00       0.001       98.913
     NS sqrt iter    3 1.00000000   0.649E-01       0.001       99.600
     NS sqrt iter    4 1.00000000   0.123E-02       0.001       97.370
     NS sqrt iter    5 1.00000000   0.166E-07       0.001       47.724
     Symmetrizing Results
     Final NS sqrt iter    5 1.00000000   0.424E-08

     Est. extremal eigenvalues     -0.91779     1.61349  converged:  T
     TRS4 it   1 1.00000000   0.872E+00       0.000       16.128   0.100E-07
     TRS4 it   2 1.00000000   0.603E+00       0.001       32.256   0.100E-07
     TRS4 it   3 1.00000000   0.407E+00       0.001       32.256   0.100E-07
     TRS4 it   4 1.00000000   0.205E+00       0.001       32.256   0.100E-07
     TRS4 it   5 1.00000000   0.635E-01       0.001       32.256   0.100E-07
     TRS4 it   6 1.00000000   0.694E-02       0.001       32.256   0.100E-07
     TRS4 it   7 1.00000000   0.952E-04       0.001       32.256   0.100E-07
     TRS4 it   8 1.00000000   0.220E-07       0.001       32.256   0.100E-07
     Final TRS4 iteration    8 1.00000000   0.220E-07
     Chemical potential (mu):       0.00795
 
 PAO| energy:  -7.7018118472362707      penalty:   1.3100611422649267E-005
 PAO|CG| trace_G_new    7.9259912460006649E-005
 PAO|CG| trace_G_prev    2.0594303395500140E-004
 PAO|CG| trace_G_mix    4.2503020147730511E-007
 PAO|CG| trace_D    2.8867228916398450E-004
 PAO|CG| trace_D_Gnew  -2.7698739477338837E-007
 PAO|CG| beta:   0.38279946033889539     
 PAO| norm of gradient:   8.9028036291949435E-003
 PAO| energy improvement:  -4.2087751475072821E-005
 PAO| step     25                   -7.701811847  0.556E-03  0.407E+00     0.056
 PAO|LS| adapt:  T F F
 PAO|LS| adapt: scan_steps:    0.0000000000000000        0.0000000000000000        0.0000000000000000     
 PAO|LS| adapt: energies:   -7.7018118472362707        0.0000000000000000        0.0000000000000000     
 PAO| ======================= Iteration:        26 =============================

     Lanczos converged:  T threshold:   0.100E-02
     Est. extremal eigenvalues:    0.266E+01   0.189E+00
     Est. condition number :    0.140E+02

 Order=           3
     NS sqrt iter    1 1.00000000   0.674E+00       0.001       58.644
     NS sqrt iter    2 1.00000000   0.305E+00       0.001       99.286
     NS sqrt iter    3 1.00000000   0.648E-01       0.001       98.901
     NS sqrt iter    4 1.00000000   0.122E-02       0.001      100.013
     NS sqrt iter    5 1.00000000   0.164E-07       0.001       47.668
     Symmetrizing Results
     Final NS sqrt iter    5 1.00000000   0.417E-08

     Est. extremal eigenvalues     -0.91779     1.61351  converged:  T
     TRS4 it   1 1.00000000   0.872E+00       0.000       16.128   0.100E-07
     TRS4 it   2 1.00000000   0.603E+00       0.001       32.256   0.100E-07
     TRS4 it   3 1.00000000   0.407E+00       0.001       32.256   0.100E-07
     TRS4 it   4 1.00000000   0.205E+00       0.001       32.256   0.100E-07
     TRS4 it   5 1.00000000   0.635E-01       0.001       32.256   0.100E-07
     TRS4 it   6 1.00000000   0.694E-02       0.001       32.256   0.100E-07
     TRS4 it   7 1.00000000   0.950E-04       0.001       32.256   0.100E-07
     TRS4 it   8 1.00000000   0.219E-07       0.001       32.256   0.100E-07
     Final TRS4 iteration    8 1.00000000   0.219E-07
     Chemical potential (mu):       0.00799
 
 PAO| energy:  -7.7018153010822177      penalty:   1.2454833659590804E-005
 PAO|LS| adapt:  T T F
 PAO|LS| adapt: scan_steps:    0.0000000000000000       0.40667037843513637        0.0000000000000000     
 PAO|LS| adapt: energies:   -7.7018118472362707       -7.7018153010822177        0.0000000000000000     
 PAO| ======================= Iteration:        27 =============================

     Lanczos converged:  T threshold:   0.100E-02
     Est. extremal eigenvalues:    0.266E+01   0.189E+00
     Est. condition number :    0.140E+02

 Order=           3
     NS sqrt iter    1 1.00000000   0.674E+00       0.001       58.483
     NS sqrt iter    2 1.00000000   0.305E+00       0.001       99.433
     NS sqrt iter    3 1.00000000   0.647E-01       0.001       99.515
     NS sqrt iter    4 1.00000000   0.122E-02       0.001       99.475
     NS sqrt iter    5 1.00000000   0.163E-07       0.001       48.018
     Symmetrizing Results
     Final NS sqrt iter    5 1.00000000   0.411E-08

     Est. extremal eigenvalues     -0.91779     1.61353  converged:  T
     TRS4 it   1 1.00000000   0.872E+00       0.000       16.128   0.100E-07
     TRS4 it   2 1.00000000   0.603E+00       0.001       32.256   0.100E-07
     TRS4 it   3 1.00000000   0.407E+00       0.001       32.256   0.100E-07
     TRS4 it   4 1.00000000   0.205E+00       0.001       32.256   0.100E-07
     TRS4 it   5 1.00000000   0.634E-01       0.001       32.256   0.100E-07
     TRS4 it   6 1.00000000   0.693E-02       0.001       32.256   0.100E-07
     TRS4 it   7 1.00000000   0.949E-04       0.001       32.256   0.100E-07
     TRS4 it   8 1.00000000   0.217E-07       0.001       32.256   0.100E-07
     Final TRS4 iteration    8 1.00000000   0.217E-07
     Chemical potential (mu):       0.00804
 
 PAO| energy:  -7.7017610041762952      penalty:   1.1829054837659968E-005
 PAO|LS| adapt:  T T T
 PAO|LS| adapt: scan_steps:    0.0000000000000000       0.40667037843513637       0.81334075687027274     
 PAO|LS| adapt: energies:   -7.7018118472362707       -7.7018153010822177       -7.7017610041762952     
 PAO|LS| adapt: suggested step_size:   0.22765654942262487     
 PAO|LS| adapt: predicted energy  -7.7018208962837162     
 PAO| ======================= Iteration:        28 =============================

     Lanczos converged:  T threshold:   0.100E-02
     Est. extremal eigenvalues:    0.266E+01   0.189E+00
     Est. condition number :    0.140E+02

 Order=           3
     NS sqrt iter    1 1.00000000   0.674E+00       0.001       58.993
     NS sqrt iter    2 1.00000000   0.305E+00       0.001       99.932
     NS sqrt iter    3 1.00000000   0.648E-01       0.001      100.928
     NS sqrt iter    4 1.00000000   0.122E-02       0.001       98.888
     NS sqrt iter    5 1.00000000   0.165E-07       0.001       48.446
     Symmetrizing Results
     Final NS sqrt iter    5 1.00000000   0.420E-08

     Est. extremal eigenvalues     -0.91779     1.61350  converged:  T
     TRS4 it   1 1.00000000   0.872E+00       0.000       16.128   0.100E-07
     TRS4 it   2 1.00000000   0.603E+00       0.001       32.256   0.100E-07
     TRS4 it   3 1.00000000   0.407E+00       0.001       32.256   0.100E-07
     TRS4 it   4 1.00000000   0.205E+00       0.001       32.256   0.100E-07
     TRS4 it   5 1.00000000   0.635E-01       0.001       32.256   0.100E-07
     TRS4 it   6 1.00000000   0.694E-02       0.001       32.256   0.100E-07
     TRS4 it   7 1.00000000   0.951E-04       0.001       32.256   0.100E-07
     TRS4 it   8 1.00000000   0.219E-07       0.001       32.256   0.100E-07
     Final TRS4 iteration    8 1.00000000   0.219E-07
     Chemical potential (mu):       0.00797
 
 PAO| energy:  -7.7018208868599878      penalty:   1.2736621616774639E-005
 PAO|CG| trace_G_new    2.0349284666893252E-005
 PAO|CG| trace_G_prev    7.9259912460006649E-005
 PAO|CG| trace_G_mix    5.8757519493607528E-008
 PAO|CG| trace_D    1.2177269081878389E-004
 PAO|CG| trace_D_Gnew  -2.7067239387020769E-008
 PAO|CG| beta:   0.25599986825165799     
 PAO| norm of gradient:   4.5110181408295463E-003
 PAO| energy improvement:  -9.0396237171219695E-006
 PAO| step     28                   -7.701820887  0.282E-03  0.228E+00     0.056
 PAO|LS| adapt:  T F F
 PAO|LS| adapt: scan_steps:    0.0000000000000000        0.0000000000000000        0.0000000000000000     
 PAO|LS| adapt: energies:   -7.7018208868599878        0.0000000000000000        0.0000000000000000     
 PAO| ======================= Iteration:        29 =============================

     Lanczos converged:  T threshold:   0.100E-02
     Est. extremal eigenvalues:    0.266E+01   0.189E+00
     Est. condition number :    0.140E+02

 Order=           3
     NS sqrt iter    1 1.00000000   0.674E+00       0.001       59.157
     NS sqrt iter    2 1.00000000   0.305E+00       0.001       98.324
     NS sqrt iter    3 1.00000000   0.648E-01       0.001       98.312
     NS sqrt iter    4 1.00000000   0.122E-02       0.001       98.623
     NS sqrt iter    5 1.00000000   0.164E-07       0.001       47.900
     Symmetrizing Results
     Final NS sqrt iter    5 1.00000000   0.418E-08

     Est. extremal eigenvalues     -0.91779     1.61351  converged:  T
     TRS4 it   1 1.00000000   0.872E+00       0.000       16.128   0.100E-07
     TRS4 it   2 1.00000000   0.603E+00       0.001       32.256   0.100E-07
     TRS4 it   3 1.00000000   0.407E+00       0.001       32.256   0.100E-07
     TRS4 it   4 1.00000000   0.205E+00       0.001       32.256   0.100E-07
     TRS4 it   5 1.00000000   0.634E-01       0.001       32.256   0.100E-07
     TRS4 it   6 1.00000000   0.693E-02       0.001       32.256   0.100E-07
     TRS4 it   7 1.00000000   0.947E-04       0.001       32.256   0.100E-07
     TRS4 it   8 1.00000000   0.217E-07       0.001       32.256   0.100E-07
     Final TRS4 iteration    8 1.00000000   0.217E-07
     Chemical potential (mu):       0.00806
 
 PAO| energy:  -7.7018250254815852      penalty:   1.2410286597534989E-005
 PAO|LS| adapt:  T T F
 PAO|LS| adapt: scan_steps:    0.0000000000000000       0.22765654942262487        0.0000000000000000     
 PAO|LS| adapt: energies:   -7.7018208868599878       -7.7018250254815852        0.0000000000000000     
 PAO| ======================= Iteration:        30 =============================

     Lanczos converged:  T threshold:   0.100E-02
     Est. extremal eigenvalues:    0.266E+01   0.189E+00
     Est. condition number :    0.140E+02

 Order=           3
     NS sqrt iter    1 1.00000000   0.674E+00       0.001       57.966
     NS sqrt iter    2 1.00000000   0.305E+00       0.001       97.917
     NS sqrt iter    3 1.00000000   0.647E-01       0.001       97.997
     NS sqrt iter    4 1.00000000   0.122E-02       0.001       97.896
     NS sqrt iter    5 1.00000000   0.164E-07       0.001       47.060
     Symmetrizing Results
     Final NS sqrt iter    5 1.00000000   0.416E-08

     Est. extremal eigenvalues     -0.91780     1.61351  converged:  T
     TRS4 it   1 1.00000000   0.872E+00       0.000       16.128   0.100E-07
     TRS4 it   2 1.00000000   0.603E+00       0.001       32.256   0.100E-07
     TRS4 it   3 1.00000000   0.407E+00       0.001       32.256   0.100E-07
     TRS4 it   4 1.00000000   0.205E+00       0.001       32.256   0.100E-07
     TRS4 it   5 1.00000000   0.633E-01       0.001       32.256   0.100E-07
     TRS4 it   6 1.00000000   0.691E-02       0.001       32.256   0.100E-07
     TRS4 it   7 1.00000000   0.942E-04       0.001       32.256   0.100E-07
     TRS4 it   8 1.00000000   0.215E-07       0.001       32.256   0.100E-07
     Final TRS4 iteration    8 1.00000000   0.215E-07
     Chemical potential (mu):       0.00815
 
 PAO| energy:  -7.7018281724206581      penalty:   1.2088506963741088E-005
 PAO|LS| adapt:  T T F
 PAO|LS| adapt: scan_steps:    0.0000000000000000       0.45531309884524973        0.0000000000000000     
 PAO|LS| adapt: energies:   -7.7018208868599878       -7.7018281724206581        0.0000000000000000     
 PAO| ======================= Iteration:        31 =============================

     Lanczos converged:  T threshold:   0.100E-02
     Est. extremal eigenvalues:    0.266E+01   0.189E+00
     Est. condition number :    0.140E+02

 Order=           3
     NS sqrt iter    1 1.00000000   0.673E+00       0.001       58.775
     NS sqrt iter    2 1.00000000   0.305E+00       0.001       99.480
     NS sqrt iter    3 1.00000000   0.646E-01       0.001       99.149
     NS sqrt iter    4 1.00000000   0.122E-02       0.001       98.820
     NS sqrt iter    5 1.00000000   0.163E-07       0.001       48.205
     Symmetrizing Results
     Final NS sqrt iter    5 1.00000000   0.413E-08

     Est. extremal eigenvalues     -0.91780     1.61352  converged:  T
     TRS4 it   1 1.00000000   0.872E+00       0.000       16.128   0.100E-07
     TRS4 it   2 1.00000000   0.603E+00       0.001       32.256   0.100E-07
     TRS4 it   3 1.00000000   0.407E+00       0.001       32.256   0.100E-07
     TRS4 it   4 1.00000000   0.204E+00       0.001       32.256   0.100E-07
     TRS4 it   5 1.00000000   0.632E-01       0.001       32.256   0.100E-07
     TRS4 it   6 1.00000000   0.688E-02       0.001       32.256   0.100E-07
     TRS4 it   7 1.00000000   0.934E-04       0.001       32.256   0.100E-07
     TRS4 it   8 1.00000000   0.210E-07       0.001       32.256   0.100E-07
     Final TRS4 iteration    8 1.00000000   0.210E-07
     Chemical potential (mu):       0.00833
 
 PAO| energy:  -7.7018314918221940      penalty:   1.1458563485247572E-005
 PAO|LS| Need extra step
 PAO|LS| adapt:  T T F
 PAO|LS| adapt: scan_steps:    0.0000000000000000       0.91062619769049946        0.0000000000000000     
 PAO|LS| adapt: energies:   -7.7018208868599878       -7.7018314918221940        0.0000000000000000     
 PAO| ======================= Iteration:        32 =============================

     Lanczos converged:  T threshold:   0.100E-02
     Est. extremal eigenvalues:    0.266E+01   0.189E+00
     Est. condition number :    0.140E+02

 Order=           3
     NS sqrt iter    1 1.00000000   0.673E+00       0.001       58.479
     NS sqrt iter    2 1.00000000   0.304E+00       0.001       99.878
     NS sqrt iter    3 1.00000000   0.644E-01       0.001       97.664
     NS sqrt iter    4 1.00000000   0.121E-02       0.001       98.235
     NS sqrt iter    5 1.00000000   0.162E-07       0.001       47.823
     Symmetrizing Results
     Final NS sqrt iter    5 1.00000000   0.406E-08

     Est. extremal eigenvalues     -0.91780     1.61352  converged:  T
     TRS4 it   1 1.00000000   0.872E+00       0.000       16.128   0.100E-07
     TRS4 it   2 1.00000000   0.603E+00       0.001       32.256   0.100E-07
     TRS4 it   3 1.00000000   0.406E+00       0.001       32.256   0.100E-07
     TRS4 it   4 1.00000000   0.204E+00       0.001       32.256   0.100E-07
     TRS4 it   5 1.00000000   0.630E-01       0.001       32.256   0.100E-07
     TRS4 it   6 1.00000000   0.683E-02       0.001       32.256   0.100E-07
     TRS4 it   7 1.00000000   0.917E-04       0.001       32.256   0.100E-07
     TRS4 it   8 1.00000000   0.202E-07       0.001       32.256   0.100E-07
     Final TRS4 iteration    8 1.00000000   0.202E-07
     Chemical potential (mu):       0.00868
 
 PAO| energy:  -7.7018262362097909      penalty:   1.0252788481345441E-005
 PAO|LS| Need extra step
 PAO|LS| adapt:  T T T
 PAO|LS| adapt: scan_steps:    0.0000000000000000       0.91062619769049946        1.8212523953809989     
 PAO|LS| adapt: energies:   -7.7018208868599878       -7.7018314918221940       -7.7018262362097909     
 PAO|LS| adapt: suggested step_size:    1.0641911911206974     
 PAO|LS| adapt: predicted energy  -7.7018317173463631     
 PAO| ======================= Iteration:        33 =============================

     Lanczos converged:  T threshold:   0.100E-02
     Est. extremal eigenvalues:    0.266E+01   0.189E+00
     Est. condition number :    0.140E+02

 Order=           3
     NS sqrt iter    1 1.00000000   0.673E+00       0.001       58.555
     NS sqrt iter    2 1.00000000   0.305E+00       0.001       98.233
[...]
     Symmetrizing Results
     Final NS sqrt iter    5 1.00000000   0.697E-10

     Est. extremal eigenvalues     -0.91774     1.32629  converged:  T
     TRS4 it   1 1.00000000   0.787E+00       0.000       16.128   0.100E-07
     TRS4 it   2 1.00000000   0.558E+00       0.001       32.256   0.100E-07
     TRS4 it   3 1.00000000   0.388E+00       0.001       32.256   0.100E-07
     TRS4 it   4 1.00000000   0.228E+00       0.001       32.256   0.100E-07
     TRS4 it   5 1.00000000   0.939E-01       0.001       32.256   0.100E-07
     TRS4 it   6 1.00000000   0.195E-01       0.001       32.256   0.100E-07
     TRS4 it   7 1.00000000   0.107E-02       0.001       32.256   0.100E-07
     TRS4 it   8 1.00000000   0.394E-05       0.001       32.256   0.100E-07
     TRS4 it   9 1.00000000   0.642E-10       0.001       32.256   0.100E-07
     Final TRS4 iteration    9 1.00000000   0.642E-10
     Chemical potential (mu):      -0.07340
 
 PAO| energy:  -7.7024083214214709      penalty:   1.1309404422078523E-011
 PAO|CG| warming up with steepest descent
 PAO|CG| beta:    0.0000000000000000     
 PAO| norm of gradient:   6.5773510171222798E-006
 PAO| energy improvement:  -1.2249756764504127E-011
 PAO| step    850                   -7.702408321  0.411E-06  0.259E+00     0.149
 PAO| converged after          850  steps :-)
 PAO| Recalculating energy after mixing.

     Lanczos converged:  T threshold:   0.100E-02
     Est. extremal eigenvalues:    0.243E+01   0.236E+00
     Est. condition number :    0.103E+02

 Order=           3
     NS sqrt iter    1 1.00000000   0.612E+00       0.005       12.536
     NS sqrt iter    2 1.00000000   0.253E+00       0.015        7.530
     NS sqrt iter    3 1.00000000   0.378E-01       0.001      110.592
     NS sqrt iter    4 1.00000000   0.231E-03       0.001      107.464
     NS sqrt iter    5 1.00000000   0.126E-09       0.002       21.762
     Symmetrizing Results
     Final NS sqrt iter    5 1.00000000   0.697E-10

     Est. extremal eigenvalues     -0.91774     1.32629  converged:  T
     TRS4 it   1 1.00000000   0.787E+00       0.002        7.332   0.100E-07
     TRS4 it   2 1.00000000   0.558E+00       0.002       13.567   0.100E-07
     TRS4 it   3 1.00000000   0.388E+00       0.018        1.842   0.100E-07
     TRS4 it   4 1.00000000   0.228E+00       0.001       32.256   0.100E-07
     TRS4 it   5 1.00000000   0.939E-01       0.001       32.256   0.100E-07
     TRS4 it   6 1.00000000   0.195E-01       0.001       32.256   0.100E-07
     TRS4 it   7 1.00000000   0.107E-02       0.001       32.256   0.100E-07
     TRS4 it   8 1.00000000   0.394E-05       0.001       32.256   0.100E-07
     TRS4 it   9 1.00000000   0.642E-10       0.001       32.256   0.100E-07
     Final TRS4 iteration    9 1.00000000   0.642E-10
     Chemical potential (mu):      -0.07340
 
 PAO| energy:  -7.7024083214184005      penalty:   1.1427795737863425E-011
 PAO| Writing restart file.
     Est. extremal eigenvalues     -0.91774     1.32629  converged:  T
     TRS4 it   1 1.00000000   0.787E+00       0.000       16.128   0.100E-07
     TRS4 it   2 1.00000000   0.558E+00       0.001       32.256   0.100E-07
     TRS4 it   3 1.00000000   0.388E+00       0.001       32.256   0.100E-07
     TRS4 it   4 1.00000000   0.228E+00       0.001       32.256   0.100E-07
     TRS4 it   5 1.00000000   0.939E-01       0.001       32.256   0.100E-07
     TRS4 it   6 1.00000000   0.195E-01       0.001       32.256   0.100E-07
     TRS4 it   7 1.00000000   0.107E-02       0.001       32.256   0.100E-07
     TRS4 it   8 1.00000000   0.394E-05       0.001       32.256   0.100E-07
     TRS4 it   9 1.00000000   0.642E-10       0.001       32.256   0.100E-07
     Final TRS4 iteration    9 1.00000000   0.642E-10
     Chemical potential (mu):      -0.07340

 SCF     1       -34.446473718       -34.446473718    3.664568

*********************************************************
 Using MIXING_FRACTION=0.450 to mix KS matrix:  iscf=  2
 KS_nw=0.450*KS + 0.550*KS_old
*********************************************************
     Est. extremal eigenvalues     -0.91774     1.32629  converged:  T
     TRS4 it   1 1.00000000   0.787E+00       0.002        9.290   0.100E-07
     TRS4 it   2 1.00000000   0.558E+00       0.002       14.088   0.100E-07
     TRS4 it   3 1.00000000   0.388E+00       0.002       17.799   0.100E-07
     TRS4 it   4 1.00000000   0.228E+00       0.002       20.457   0.100E-07
     TRS4 it   5 1.00000000   0.939E-01       0.001       21.855   0.100E-07
     TRS4 it   6 1.00000000   0.195E-01       0.003       12.423   0.100E-07
     TRS4 it   7 1.00000000   0.107E-02       0.004        8.244   0.100E-07
     TRS4 it   8 1.00000000   0.394E-05       0.002       21.253   0.100E-07
     TRS4 it   9 1.00000000   0.642E-10       0.001       32.256   0.100E-07
     Final TRS4 iteration    9 1.00000000   0.642E-10
     Chemical potential (mu):      -0.07340

 SCF     2       -34.446473718        -0.000000000    4.163670


 SCF run converged in     2 steps.

 PAO| Storing density matrix for ASPC guess in slot:           1

 ENERGY| Total FORCE_EVAL ( QS ) energy [a.u.]:              -34.446473717508489

 -------------------------------------------------------------------------------
 -                                                                             -
 -                                DBCSR STATISTICS                             -
 -                                                                             -
 -------------------------------------------------------------------------------
 COUNTER                                    TOTAL       BLAS       SMM       ACC
 flops     5 x     5 x     4                26000       0.0%    100.0%      0.0%
 flops    13 x     5 x     4                27040       0.0%    100.0%      0.0%
 flops     5 x    13 x     4                27040       0.0%    100.0%      0.0%
 flops    13 x    13 x     4                52728       0.0%    100.0%      0.0%
 flops     4 x     4 x     5              6635520       0.0%    100.0%      0.0%
 flops     5 x     4 x     5              8092800       0.0%    100.0%      0.0%
 flops     4 x     4 x    13              8626176       0.0%    100.0%      0.0%
 flops    13 x     4 x     5             10520640       0.0%    100.0%      0.0%
 flops     5 x     4 x    13             10520640       0.0%    100.0%      0.0%
 flops     5 x     4 x     4             12495360       0.0%    100.0%      0.0%
 flops    13 x     4 x    13             13676832       0.0%    100.0%      0.0%
 flops    13 x     4 x     4             16320928       0.0%    100.0%      0.0%
 flops     4 x     4 x     4            838654080       0.0%    100.0%      0.0%
 flops inhomo. stacks                           0       0.0%      0.0%      0.0%
 flops total                       925.675784E+06       0.0%    100.0%      0.0%
 flops max/rank                    925.675784E+06       0.0%    100.0%      0.0%
 matmuls inhomo. stacks                         0       0.0%      0.0%      0.0%
 matmuls total                            6822839       0.0%    100.0%      0.0%
 number of processed stacks                 54437       0.0%    100.0%      0.0%
 average stack size                                     0.0     125.3       0.0
 marketing flops                     1.513347E+09
 -------------------------------------------------------------------------------
 # multiplications                          45608
 max memory usage/rank             506.490880E+06
 # max total images/rank                        1
 # max 3D layers                                1
 # MPI messages exchanged                       0
 -------------------------------------------------------------------------------

 -------------------------------------------------------------------------------
 -                                                                             -
 -                                DBM STATISTICS                               -
 -                                                                             -
 -------------------------------------------------------------------------------
    M  x    N  x    K                                          COUNT     PERCENT
 -------------------------------------------------------------------------------

 -------------------------------------------------------------------------------
 -                                                                             -
 -                                GRID STATISTICS                              -
 -                                                                             -
 -------------------------------------------------------------------------------
 LP    KERNEL             BACKEND                              COUNT     PERCENT
 2     collocate ortho    REF                                  49426      30.71%
 2     integrate ortho    REF                                  49426      30.71%
 3     collocate ortho    REF                                  25441      15.81%
 3     integrate ortho    REF                                  25441      15.81%
 4     collocate ortho    REF                                   5590       3.47%
 4     integrate ortho    REF                                   5590       3.47%
 0     collocate general  REF                                      6       0.00%
 -------------------------------------------------------------------------------

 MEMORY| Estimated peak process memory [MiB]                                 484

 -------------------------------------------------------------------------------
 -                                                                             -
 -                           R E F E R E N C E S                               -
 -                                                                             -
 -------------------------------------------------------------------------------
 
 CP2K version 2023.1 (Development Version), the CP2K developers group (2023).
 CP2K is freely available from https://www.cp2k.org/ .

 Kuehne,Thomas D.; Iannuzzi,Marcella; Del Ben,Mauro;
 Rybkin,Vladimir V.; Seewald,Patrick; Stein,Frederick; Laino,Teodoro;
 Khaliullin,Rustam Z.; Schuett,Ole; Schiffmann,Florian; Golze,Dorothea;
 Wilhelm,Jan; Chulkov,Sergey; Bani-Hashemian,Mohammad Hossein;
 Weber,Valery; Borstnik,Urban; Taillefumier,Mathieu;
 Jakobovits,Alice Shoshana; Lazzaro,Alfio; Pabst,Hans; Mueller,Tiziano;
 Schade,Robert; Guidon,Manuel; Andermatt,Samuel; Holmberg,Nico;
 Schenter,Gregory K.; Hehn,Anna; Bussy,Augustin; Belleflamme,Fabian;
 Tabacchi,Gloria; Gloess,Andreas; Lass,Michael; Bethune,Iain;
 Mundy,Christopher J.; Plessl,Christian; Watkins,Matt;
 VandeVondele,Joost; Krack,Matthias; Hutter,Juerg. 
 The Journal of Chemical Physics, 152 (19), (2020). 
 CP2K: An electronic structure and molecular dynamics software package -
 Quickstep: Efficient and accurate electronic structure calculations.
 https://doi.org/10.1063/5.0007045

 Schuett, O; VandeVondele, J. 
 Journal of Chemical Theory and Computation, 14, (2018). 
 Machine Learning Adaptive Basis Sets for Efficient Large Scale
 Density Functional Theory Simulation.
 https://doi.org/10.1021/acs.jctc.8b00378

 Schuett, Ole; Messmer, Peter; Hutter, Juerg; VandeVondele, Joost. 
 Electronic Structure Calculations on Graphics Processing Units, John
 Wiley & Sons, Ltd, 173-190 (2016). 
 GPU-Accelerated Sparse Matrix-Matrix Multiplication for
 Linear Scaling Density Functional Theory.
 https://doi.org/10.1002/9781118670712.ch8

 Heinecke, A; Henry, G; Hutchinson, M; Pabst, H. 
 Proceedings of Intl. Supercomputing Conference, 981-991 (2016). 
 LIBXSMM: Accelerating Small Matrix Multiplications
 by Runtime Code Generation.
 https://doi.org/10.1109/SC.2016.83

 Borstnik, U; VandeVondele, J; Weber, V; Hutter, J. 
 PARALLEL COMPUTING, 40 (5-6), 47-58 (2014). 
 Sparse matrix multiplication: The distributed block-compressed sparse
 row library.
 https://doi.org/10.1016/j.parco.2014.03.012

 Hutter, J; Iannuzzi, M; Schiffmann, F; VandeVondele, J. 
 WIREs Comput Mol Sci., 4 (1), 15-25 (2014). 
 CP2K: atomistic simulations of condensed matter systems.
 https://doi.org/10.1002/wcms.1159

 VandeVondele, J; Borstnik, U; Hutter, J. 
 JOURNAL OF CHEMICAL THEORY AND COMPUTATION, 8 (10), 3565-3573 (2012). 
 Linear Scaling Self-Consistent Field Calculations with Millions of Atoms
 in the Condensed Phase.
 https://doi.org/10.1021/ct200897x

 VandeVondele, J; Hutter, J. 
 JOURNAL OF CHEMICAL PHYSICS, 127 (11), 114105 (2007). 
 Gaussian basis sets for accurate calculations on molecular systems in
 gas and condensed phases.
 https://doi.org/10.1063/1.2770708

 Krack, M. 
 THEORETICAL CHEMISTRY ACCOUNTS, 114 (1-3), 145-152 (2005). 
 Pseudopotentials for H to Kr optimized for gradient-corrected
 exchange-correlation functionals.
 https://doi.org/10.1007/s00214-005-0655-y

 VandeVondele, J; Krack, M; Mohamed, F; Parrinello, M; Chassaing, T;
 Hutter, J. COMPUTER PHYSICS COMMUNICATIONS, 167 (2), 103-128 (2005). 
 QUICKSTEP: Fast and accurate density functional calculations using a
 mixed Gaussian and plane waves approach.
 https://doi.org/10.1016/j.cpc.2004.12.014

 Frigo, M; Johnson, SG. 
 PROCEEDINGS OF THE IEEE, 93 (2), 216-231 (2005). 
 The design and implementation of FFTW3.
 https://doi.org/10.1109/JPROC.2004.840301

 Niklasson, AMN; Tymczak, CJ; Challacombe, M. 
 JOURNAL OF CHEMICAL PHYSICS, 118 (19), 8611-8620 (2003). 
 Trace resetting density matrix purification in O(N)
 self-consistent-field theory.
 https://doi.org/10.1063/1.1559913

 Hartwigsen, C; Goedecker, S; Hutter, J. 
 PHYSICAL REVIEW B, 58 (7), 3641-3662 (1998). 
 Relativistic separable dual-space Gaussian pseudopotentials from H to Rn.
 https://doi.org/10.1103/PhysRevB.58.3641

 Lippert, G; Hutter, J; Parrinello, M. 
 MOLECULAR PHYSICS, 92 (3), 477-487 (1997). 
 A hybrid Gaussian and plane wave density functional scheme.
 https://doi.org/10.1080/002689797170220

 Perdew, JP; Burke, K; Ernzerhof, M. 
 PHYSICAL REVIEW LETTERS, 77 (18), 3865-3868 (1996). 
 Generalized gradient approximation made simple.
 https://doi.org/10.1103/PhysRevLett.77.3865

 Goedecker, S; Teter, M; Hutter, J. 
 PHYSICAL REVIEW B, 54 (3), 1703-1710 (1996). 
 Separable dual-space Gaussian pseudopotentials.
 https://doi.org/10.1103/PhysRevB.54.1703


 -------------------------------------------------------------------------------
 -                                                                             -
 -                                T I M I N G                                  -
 -                                                                             -
 -------------------------------------------------------------------------------
 SUBROUTINE                       CALLS  ASD         SELF TIME        TOTAL TIME
                                MAXIMUM       AVERAGE  MAXIMUM  AVERAGE  MAXIMUM
 CP2K                                 1  1.0    0.017    0.017   77.081   77.081
 qs_energies                          1  2.0    0.000    0.000   76.180   76.180
 ls_scf                               1  3.0    0.000    0.000   75.972   75.972
 ls_scf_main                          6  4.0    0.002    0.002   49.495   49.495
 ls_scf_dm_to_ks                     12  5.0    0.000    0.000   49.299   49.299
 qs_ks_update_qs_env                 13  6.0    0.000    0.000   41.891   41.891
 rebuild_ks_matrix                   13  7.0    0.000    0.000   41.890   41.890
 qs_ks_build_kohn_sham_matrix        13  8.0    0.004    0.004   41.890   41.890
 qs_vxc_create                       13  9.0    0.001    0.001   25.460   25.460
 xc_vxc_pw_create                    13 10.0    0.506    0.506   25.460   25.460
 pw_transfer                        248 11.1    0.070    0.070   21.425   21.425
 pao_update                           6  4.0    0.017    0.017   21.392   21.392
 fft_wrap_pw1pw2                    222 12.3    0.005    0.005   20.800   20.800
 fft_wrap_pw1pw2_200                144 13.7    2.262    2.262   20.145   20.145
 pao_calc_energy                    855  5.0    0.007    0.007   19.407   19.407
 dbcsr_multiply_generic           45608  8.4    0.939    0.939   15.340   15.340
 xc_pw_derive                        78 12.0    0.002    0.002   14.801   14.801
 xc_rho_set_and_dset_create          13 11.0    0.632    0.632   13.849   13.849
 sum_up_and_integrate                13  9.0    0.453    0.453   12.632   12.632
 qs_rho_update_rho_low               13  6.0    0.000    0.000   12.396   12.396
 calculate_rho_elec                  13  7.0    0.075    0.075   12.396   12.396
 integrate_v_rspace                  13 10.0    0.002    0.002   12.179   12.179
 xc_pw_divergence                    13 11.0    0.001    0.001   10.725   10.725
 pao_dm_trs4                        855  6.0    0.005    0.005   10.058   10.058
 density_matrix_trs4                867  7.0    0.354    0.354    9.689    9.689
 grid_integrate_task_list            13 11.0    9.602    9.602    9.602    9.602
 ls_scf_init_matrix_S               861  7.0    0.012    0.012    9.276    9.276
 pao_rebuild_S                      855  6.0    0.003    0.003    9.205    9.205
 fft3d_s                            223 14.2    9.095    9.095    9.128    9.128
 matrix_sqrt_Newton_Schulz          861  8.0    0.212    0.212    8.470    8.470
 grid_collocate_task_list            13  8.0    7.981    7.981    7.981    7.981
 make_m2s                         91216  9.4    0.354    0.354    5.887    5.887
 xc_functional_eval                  13 12.0    0.000    0.000    5.728    5.728
 pbe_lda_eval                        13 13.0    5.728    5.728    5.728    5.728
 multiply_cannon                  45608  9.4    2.504    2.504    5.718    5.718
 make_images                      91216 10.4    1.388    1.388    5.206    5.206
 pao_guess_initial_P                  1  4.0    0.000    0.000    4.996    4.996
 pao_read_preopt_dm                   1  5.0    0.000    0.000    4.996    4.996
 pw_gather_s                        105 13.8    4.703    4.703    4.703    4.703
 pw_scatter_s                       117 14.7    4.641    4.641    4.641    4.641
 density_rs2pw                       13  8.0    0.001    0.001    4.339    4.339
 arnoldi_extremal                  1728  8.5    0.007    0.007    3.090    3.090
 arnoldi_normal_ev                 1728  9.5    0.021    0.021    3.083    3.083
 pw_derive                           78 13.0    2.978    2.978    2.978    2.978
 potential_pw2rs                     13 11.0    0.006    0.006    2.576    2.576
 build_subspace                    1728 10.5    0.116    0.116    2.410    2.410
 dbcsr_matrix_vector_mult         41407 11.5    0.223    0.223    2.256    2.256
 pao_calc_AB                       1123  5.8    0.002    0.002    1.991    1.991
 pao_calc_AB_equi                  1123  6.8    0.065    0.065    1.990    1.990
 pw_copy                            156 11.8    1.974    1.974    1.974    1.974
 pao_calc_grad_lnv_wrt_AB           267  7.0    0.012    0.012    1.776    1.776
 dbcsr_create_new                350241 10.7    1.106    1.106    1.765    1.765
 pw_axpy                            117 10.3    1.626    1.626    1.626    1.626
 dbcsr_finalize                  108994  9.6    0.316    0.316    1.547    1.547
 -------------------------------------------------------------------------------

 The number of warnings for this run is : 0
 
 -------------------------------------------------------------------------------
  **** **** ******  **  PROGRAM ENDED AT                 2023-02-01 10:49:12.726
 ***** ** ***  *** **   PROGRAM RAN ON                                    moritz
 **    ****   ******    PROGRAM RAN BY                                       ole
 ***** **    ** ** **   PROGRAM PROCESS ID                                148766
  **** **  *******  **  PROGRAM STOPPED IN /home/ole/git/pao_ml_equivar/2H2O_MD/
                                           frame_1200
