       6
 i =      200, time =       40.000, E =       -34.4462984830
  O         2.7691208856        4.3112684198        3.3321987103
  H         2.0014805326        4.8060220271        3.6622975798
  H         2.5880458341        4.0153845468        2.4373021941
  O         5.9504475078        4.2944034779        4.8626805941
  H         6.3928815968        3.4880739510        5.2216609088
  H         5.0397571134        3.9737965327        4.6073063160