 DBCSR| CPU Multiplication driver                                           BLAS
 DBCSR| Multrec recursion limit                                              512
 DBCSR| Multiplication stack size                                           1000
 DBCSR| Maximum elements for images                                    UNLIMITED
 DBCSR| Multiplicative factor virtual images                                   1
 DBCSR| Use multiplication densification                                       T
 DBCSR| Multiplication size stacks                                             3


  **** **** ******  **  PROGRAM STARTED AT               2019-03-28 17:33:25.936
 ***** ** ***  *** **   PROGRAM STARTED ON        oleschuett.zrh.corp.google.com
 **    ****   ******    PROGRAM STARTED BY                            oleschuett
 ***** **    ** ** **   PROGRAM PROCESS ID                                 34013
  **** **  *******  **  PROGRAM STARTED IN /usr/local/google/home/oleschuett/git
                                           /pao_ml_equivar/2H2O_rotations/phi_30

 CP2K| version string:                    CP2K version 7.0 (Development Version)
 CP2K| source code revision number:                                git:d9814d431
 CP2K| cp2kflags: libint fftw3 libxc libderiv_max_am1=5 libint_max_am=6         
 CP2K| is freely available from                            https://www.cp2k.org/
 CP2K| Program compiled at                          Mon Mar 25 16:50:07 CET 2019
 CP2K| Program compiled on                        oleschuett.zrh.corp.google.com
 CP2K| Program compiled for                                                local
 CP2K| Data directory path       /usr/local/google/home/oleschuett/git/cp2k/data
 CP2K| Input file name                                            2H2O_pao44.inp

 GLOBAL| Force Environment number                                              1
 GLOBAL| Basis set file name                                        BASIS_MOLOPT
 GLOBAL| Potential file name                                      GTH_POTENTIALS
 GLOBAL| MM Potential file name                                     MM_POTENTIAL
 GLOBAL| Coordinate file name                                         coords.xyz
 GLOBAL| Method name                                                        CP2K
 GLOBAL| Project name                                                 2H2O_pao44
 GLOBAL| Preferred FFT library                                             FFTW3
 GLOBAL| Preferred diagonalization lib.                                       SL
 GLOBAL| Run type                                                         ENERGY
 GLOBAL| All-to-all communication in single precision                          F
 GLOBAL| FFTs using library dependent lengths                                  F
 GLOBAL| Global print level                                                  LOW
 GLOBAL| MPI I/O enabled                                                       T
 GLOBAL| Total number of message passing processes                             1
 GLOBAL| Number of threads for this process                                    1
 GLOBAL| This output is from process                                           0
 GLOBAL| CPU model name :  Intel(R) Xeon(R) CPU E5-1650 v4 @ 3.60GHz

 MEMORY| system memory details [Kb]
 MEMORY|                        rank 0           min           max       average
 MEMORY| MemTotal             65953612      65953612      65953612      65953612
 MEMORY| MemFree               4224848       4224848       4224848       4224848
 MEMORY| Buffers               2543220       2543220       2543220       2543220
 MEMORY| Cached               25366316      25366316      25366316      25366316
 MEMORY| Slab                  3622444       3622444       3622444       3622444
 MEMORY| SReclaimable          2421472       2421472       2421472       2421472
 MEMORY| MemLikelyFree        34555856      34555856      34555856      34555856


 GENERATE|  Preliminary Number of Bonds generated:                             0
 GENERATE|  Achieved consistency in connectivity generation.

 *******************************************************************************
 *******************************************************************************
 **                                                                           **
 **     #####                         ##              ##                      **
 **    ##   ##            ##          ##              ##                      **
 **   ##     ##                       ##            ######                    **
 **   ##     ##  ##   ##  ##   #####  ##  ##   ####   ##    #####    #####    **
 **   ##     ##  ##   ##  ##  ##      ## ##   ##      ##   ##   ##  ##   ##   **
 **   ##  ## ##  ##   ##  ##  ##      ####     ###    ##   ######   ######    **
 **    ##  ###   ##   ##  ##  ##      ## ##      ##   ##   ##       ##        **
 **     #######   #####   ##   #####  ##  ##  ####    ##    #####   ##        **
 **           ##                                                    ##        **
 **                                                                           **
 **                                                ... make the atoms dance   **
 **                                                                           **
 **            Copyright (C) by CP2K developers group (2000 - 2018)           **
 **                                                                           **
 *******************************************************************************


 TOTAL NUMBERS AND MAXIMUM NUMBERS

  Total number of            - Atomic kinds:                                   2
                             - Atoms:                                          6
                             - Shell sets:                                     6
                             - Shells:                                        22
                             - Primitive Cartesian functions:                 42
                             - Cartesian basis functions:                     48
                             - Spherical basis functions:                     46

  Maximum angular momentum of- Orbital basis functions:                        2
                             - Local part of the GTH pseudopotential:          2
                             - Non-local part of the GTH pseudopotential:      0

 ------------------------------ Linear scaling SCF -----------------------------
 eps_scf:                                                              0.100E-07
 eps_filter:                                                           0.100E-07
 mixing_fraction:                                                      0.450E+00
 max_scf:                                                                     25
 fixed chemical potential (mu)                                                 F
 has unit metric:                                                              F
 Computing inv(S):                                                             T
 Computing sqrt(S):                                                            T
 Computing s preconditioner                                                    F
 sign sqrt order:                                                              3
 Extrapolation order:                                                          1
 Use single precision matrices                                                 F
 S preconditioner type                                                      NONE
 Polarized Atomic Orbitals (PAO)                                               T
 Purification method                                   Trace resetting 4th order
 Cluster type                                                             ATOMIC
 Computing Chebyshev                                                       FALSE
 Using PAO                                                                     T
 -------------------------------------------------------------------------------

 
 PAO|                                  EPS_PAO                           0.1E-04
 PAO|                                  MIXING                            0.5E+00
 PAO|                                  MAX_PAO                              1000
 PAO|                                  MAX_CYCLES                           1000
 PAO|                                  PARAMETERIZATION                   DIRECT
 PAO|                                  PRECONDITION                            F
 PAO|                                  REGULARIZATION                    0.0E+00
 PAO|                                  EPS_PGF                           0.1E-09
 PAO|                                  PENALTY_DISTANCE                  0.1E+00
 PAO|                                  PENALTY_STRENGTH                  0.5E-02
 PAO|                                  LINPOT_PRECONDITION_DELTA         0.0E+00
 PAO|                                  LINPOT_INITGUESS_DELT             0.0E+00
 PAO|                                  LINPOT_REGULARIZATION_DELTA       0.0E+00
 PAO|                                  LINPOT_REGULARIZATION_STRENGTH    0.0E+00
 PAO|                                  OPTIMIZER                              CG
 PAO|                                  CG_INIT_STEPS                           2
 PAO|                                  CG_RESET_LIMIT                    0.1E+00
 PAO|                                  CHECK_UNITARY_TOL                -0.1E+01
 PAO|                                  CHECK_GRADIENT_TOL               -0.1E+01
 PAO|                                  NUM_GRADIENT_ORDER                      2
 PAO|                                  NUM_GRADIENT_EPS                  0.1E-07
 PAO|                                  PRINT%RESTART%WRITE_CYCLES            100
 PAO|                                  RESTART_FILE 
 PAO|                                  PREOPT_DM_FILE 2H2O_ref_LS_DM_SPIN_1_RESTART.dm
 PAO|                                  MACHINE_LEARNING%METHOD        GAUSSIAN_P
 PAO|                                  MACHINE_LEARNING%PRIOR               ZERO
 PAO|                                  MACHINE_LEARNING%DESCRIPTOR     POTENTIAL
 PAO|                                  MACHINE_LEARNING%TOLERANCE        0.1E-01
 PAO|                                  MACHINE_LEARNING%GP_NOISE_VAR     0.1E+00
 PAO|                                  MACHINE_LEARNING%GP_SCALE         0.5E-01
 

 Calculating atomic Fock matrix for atomic kind: O

 Electronic structure
    Total number of core electrons                                          2.00
    Total number of valence electrons                                       6.00
    Total number of electrons                                               8.00
    Multiplicity                                                   not specified
    S   [  2.00] 2.00
    P      4.00


 *******************************************************************************
                  Iteration          Convergence                     Energy [au]
 *******************************************************************************
                          1        0.708315                     -15.576645311500
                          2        0.608879                     -15.587933561584
                          3        0.102828E-01                 -15.656849565404
                          4        0.113889E-02                 -15.656866888140
                          5        0.434197E-03                 -15.656867072159
                          6        0.263771E-03                 -15.656867091904
                          7        0.478536E-06                 -15.656867103452

 Energy components [Hartree]           Total Energy ::          -15.656867103452
                                        Band Energy ::           -3.000198112285
                                     Kinetic Energy ::           11.759971203220
                                   Potential Energy ::          -27.416838306672
                                      Virial (-V/T) ::            2.331369510426
                                        Core Energy ::          -26.140716385623
                                          XC Energy ::           -3.154051012914
                                     Coulomb Energy ::           13.637900295084
                       Total Pseudopotential Energy ::          -37.935781716540
                       Local Pseudopotential Energy ::          -39.218907440693
                    Nonlocal Pseudopotential Energy ::            1.283125724153
                                        Confinement ::            0.350941276976

 Orbital energies  State     L     Occupation   Energy[a.u.]          Energy[eV]

                       1     0          2.000      -0.864471          -23.523463

                       1     1          4.000      -0.317814           -8.648154


 Total Electron Density at R=0:                                         0.000068

 Calculating atomic Fock matrix for atomic kind: H

 Electronic structure
    Total number of core electrons                                          0.00
    Total number of valence electrons                                       1.00
    Total number of electrons                                               1.00
    Multiplicity                                                   not specified
    S      1.00


 *******************************************************************************
                  Iteration          Convergence                     Energy [au]
 *******************************************************************************
                          1        0.437545E-02                  -0.424159432110
                          2        0.531356E-03                  -0.424178438213
                          3        0.259176E-06                  -0.424178722480

 Energy components [Hartree]           Total Energy ::           -0.424178722480
                                        Band Energy ::           -0.199015229016
                                     Kinetic Energy ::            0.464007633961
                                   Potential Energy ::           -0.888186356441
                                      Virial (-V/T) ::            1.914163240935
                                        Core Energy ::           -0.479160803564
                                          XC Energy ::           -0.244352904054
                                     Coulomb Energy ::            0.299334985138
                       Total Pseudopotential Energy ::           -0.962295316385
                       Local Pseudopotential Energy ::           -0.962295316385
                    Nonlocal Pseudopotential Energy ::            0.000000000000
                                        Confinement ::            0.191268788606

 Orbital energies  State     L     Occupation   Energy[a.u.]          Energy[eV]

                       1     0          1.000      -0.199015           -5.415480


 Total Electron Density at R=0:                                         0.242907
 PAO| Made initial guess for matrix_X with norm:   4.8989794855663558     

     Lanczos converged:  T threshold:   0.100E-02
     Est. extremal eigenvalues:    0.336E+01   0.110E+00
     Est. condition number :    0.305E+02
     NS sqrt iter    1 1.00000000   0.821E+00       0.002       42.835
     NS sqrt iter    2 1.00000000   0.440E+00       0.002       68.064
     NS sqrt iter    3 1.00000000   0.171E+00       0.002       65.636
     NS sqrt iter    4 1.00000000   0.212E-01       0.002       70.582
     NS sqrt iter    5 1.00000000   0.629E-04       0.002       65.743
     Final NS sqrt iter    5 1.00000000   0.508E-08

 PAO| Read restart DM 2H2O_ref_LS_DM_SPIN_1_RESTART.dm with checksum:    46.846393829002125     
 PAO| Quickstep energy from restart density:  -34.450612082596685     
 PAO| ======================= Iteration:         1 =============================

     Lanczos converged:  T threshold:   0.100E-02
     Est. extremal eigenvalues:    0.336E+01   0.110E+00
     Est. condition number :    0.305E+02
     NS sqrt iter    1 1.00000000   0.821E+00       0.002       40.433
     NS sqrt iter    2 1.00000000   0.440E+00       0.002       63.826
     NS sqrt iter    3 1.00000000   0.171E+00       0.002       63.581
     NS sqrt iter    4 1.00000000   0.212E-01       0.002       64.142
     NS sqrt iter    5 1.00000000   0.629E-04       0.002       54.537
     Final NS sqrt iter    5 1.00000000   0.508E-08

     Est. extremal eigenvalues     -0.92013     1.95517  converged:  T
     TRS4 it   1 1.00000000   0.901E+00       0.001       16.128   0.100E-07
     TRS4 it   2 1.00000000   0.710E+00       0.001       32.256   0.100E-07
     TRS4 it   3 1.00000000   0.506E+00       0.001       32.256   0.100E-07
     TRS4 it   4 1.00000000   0.318E+00       0.001       32.256   0.100E-07
     TRS4 it   5 1.00000000   0.159E+00       0.001       32.256   0.100E-07
     TRS4 it   6 1.00000000   0.508E-01       0.001       28.861   0.100E-07
     TRS4 it   7 1.00000000   0.717E-02       0.001       32.256   0.100E-07
     TRS4 it   8 1.00000000   0.202E-03       0.001       32.256   0.100E-07
     TRS4 it   9 1.00000000   0.181E-06       0.001       32.256   0.100E-07
     TRS4 it  10 1.00000000   0.147E-12       0.001       32.256   0.100E-07
     Final TRS4 iteration   10 1.00000000   0.147E-12
     Chemical potential (mu):      -0.06531
 
 PAO| energy:  -7.6272806981593160      penalty:   2.5884498452564445E-033
 PAO|CG| warming up with steepest descent
 PAO|CG| beta:    0.0000000000000000     
 PAO| norm of gradient:  0.78357815585351098     
 PAO|LS| adapt:  T F F
 PAO|LS| adapt: scan_steps:    0.0000000000000000        0.0000000000000000        0.0000000000000000     
 PAO|LS| adapt: energies:   -7.6272806981593160        0.0000000000000000        0.0000000000000000     
 PAO| ======================= Iteration:         2 =============================

     Lanczos converged:  T threshold:   0.100E-02
     Est. extremal eigenvalues:    0.328E+01   0.123E+00
     Est. condition number :    0.267E+02
     NS sqrt iter    1 1.00000000   0.804E+00       0.002       41.679
     NS sqrt iter    2 1.00000000   0.425E+00       0.002       65.248
     NS sqrt iter    3 1.00000000   0.154E+00       0.002       61.066
     NS sqrt iter    4 1.00000000   0.148E-01       0.002       66.010
     NS sqrt iter    5 1.00000000   0.217E-04       0.002       53.073
     Final NS sqrt iter    5 1.00000000   0.734E-09

     Est. extremal eigenvalues     -0.92380     1.89983  converged:  T
     TRS4 it   1 1.00000000   0.899E+00       0.001       16.128   0.100E-07
     TRS4 it   2 1.00000000   0.692E+00       0.001       29.551   0.100E-07
     TRS4 it   3 1.00000000   0.492E+00       0.001       32.256   0.100E-07
     TRS4 it   4 1.00000000   0.300E+00       0.001       32.256   0.100E-07
     TRS4 it   5 1.00000000   0.141E+00       0.001       32.256   0.100E-07
     TRS4 it   6 1.00000000   0.398E-01       0.001       32.256   0.100E-07
     TRS4 it   7 1.00000000   0.445E-02       0.001       32.256   0.100E-07
     TRS4 it   8 1.00000000   0.784E-04       0.001       32.256   0.100E-07
     TRS4 it   9 1.00000000   0.273E-07       0.001       32.256   0.100E-07
     Final TRS4 iteration    9 1.00000000   0.273E-07
     Chemical potential (mu):      -0.05340
 
 PAO| energy:  -7.6827927678586274      penalty:   2.2516808098746513E-008
 PAO|LS| adapt:  T T F
 PAO|LS| adapt: scan_steps:    0.0000000000000000       0.10000000000000001        0.0000000000000000     
 PAO|LS| adapt: energies:   -7.6272806981593160       -7.6827927678586274        0.0000000000000000     
 PAO| ======================= Iteration:         3 =============================

     Lanczos converged:  T threshold:   0.100E-02
     Est. extremal eigenvalues:    0.319E+01   0.134E+00
     Est. condition number :    0.238E+02
     NS sqrt iter    1 1.00000000   0.787E+00       0.002       41.223
     NS sqrt iter    2 1.00000000   0.408E+00       0.002       65.403
     NS sqrt iter    3 1.00000000   0.137E+00       0.002       65.130
     NS sqrt iter    4 1.00000000   0.104E-01       0.002       66.288
     NS sqrt iter    5 1.00000000   0.779E-05       0.002       53.229
     Final NS sqrt iter    5 1.00000000   0.960E-10

     Est. extremal eigenvalues     -0.92723     1.85423  converged:  T
     TRS4 it   1 1.00000000   0.898E+00       0.001       16.128   0.100E-07
     TRS4 it   2 1.00000000   0.676E+00       0.001       32.256   0.100E-07
     TRS4 it   3 1.00000000   0.477E+00       0.001       32.256   0.100E-07
     TRS4 it   4 1.00000000   0.281E+00       0.001       32.256   0.100E-07
     TRS4 it   5 1.00000000   0.123E+00       0.001       32.256   0.100E-07
     TRS4 it   6 1.00000000   0.303E-01       0.001       32.256   0.100E-07
     TRS4 it   7 1.00000000   0.257E-02       0.001       30.409   0.100E-07
     TRS4 it   8 1.00000000   0.262E-04       0.001       32.256   0.100E-07
     TRS4 it   9 1.00000000   0.305E-08       0.001       32.256   0.100E-07
     Final TRS4 iteration    9 1.00000000   0.305E-08
     Chemical potential (mu):      -0.04053
 
 PAO| energy:  -7.7258697855157470      penalty:   3.6026918223305437E-007
 PAO|LS| adapt:  T T F
 PAO|LS| adapt: scan_steps:    0.0000000000000000       0.20000000000000001        0.0000000000000000     
 PAO|LS| adapt: energies:   -7.6272806981593160       -7.7258697855157470        0.0000000000000000     
 PAO| ======================= Iteration:         4 =============================

     Lanczos converged:  T threshold:   0.100E-02
     Est. extremal eigenvalues:    0.299E+01   0.152E+00
     Est. condition number :    0.197E+02
     NS sqrt iter    1 1.00000000   0.749E+00       0.002       40.512
     NS sqrt iter    2 1.00000000   0.374E+00       0.002       65.526
     NS sqrt iter    3 1.00000000   0.107E+00       0.002       60.765
     NS sqrt iter    4 1.00000000   0.518E-02       0.002       66.182
     NS sqrt iter    5 1.00000000   0.117E-05       0.002       53.731
     Final NS sqrt iter    5 1.00000000   0.231E-11

     Est. extremal eigenvalues     -0.93257     1.78544  converged:  T
     TRS4 it   1 1.00000000   0.894E+00       0.001       16.128   0.100E-07
     TRS4 it   2 1.00000000   0.648E+00       0.001       31.157   0.100E-07
     TRS4 it   3 1.00000000   0.450E+00       0.001       32.256   0.100E-07
     TRS4 it   4 1.00000000   0.246E+00       0.001       32.256   0.100E-07
     TRS4 it   5 1.00000000   0.920E-01       0.001       32.256   0.100E-07
     TRS4 it   6 1.00000000   0.164E-01       0.001       32.256   0.100E-07
     TRS4 it   7 1.00000000   0.712E-03       0.001       32.256   0.100E-07
     TRS4 it   8 1.00000000   0.194E-05       0.001       32.256   0.100E-07
     TRS4 it   9 1.00000000   0.167E-10       0.001       32.256   0.100E-07
     Final TRS4 iteration    9 1.00000000   0.167E-10
     Chemical potential (mu):      -0.01207
 
 PAO| energy:  -7.7731074354301617      penalty:   5.7643089369623034E-006
 PAO|LS| Need extra step
 PAO|LS| adapt:  T T F
 PAO|LS| adapt: scan_steps:    0.0000000000000000       0.40000000000000002        0.0000000000000000     
 PAO|LS| adapt: energies:   -7.6272806981593160       -7.7731074354301617        0.0000000000000000     
 PAO| ======================= Iteration:         5 =============================

     Lanczos converged:  T threshold:   0.100E-02
     Est. extremal eigenvalues:    0.263E+01   0.180E+00
     Est. condition number :    0.146E+02
     NS sqrt iter    1 1.00000000   0.685E+00       0.002       41.524
     NS sqrt iter    2 1.00000000   0.312E+00       0.002       65.315
     NS sqrt iter    3 1.00000000   0.666E-01       0.002       65.919
     NS sqrt iter    4 1.00000000   0.145E-02       0.002       65.662
     NS sqrt iter    5 1.00000000   0.307E-07       0.001       41.232
     Final NS sqrt iter    5 1.00000000   0.350E-08

     Est. extremal eigenvalues     -0.93380     1.70268  converged:  T
     TRS4 it   1 1.00000000   0.889E+00       0.001       16.128   0.100E-07
     TRS4 it   2 1.00000000   0.609E+00       0.001       32.256   0.100E-07
     TRS4 it   3 1.00000000   0.404E+00       0.002       19.296   0.100E-07
     TRS4 it   4 1.00000000   0.190E+00       0.001       32.256   0.100E-07
     TRS4 it   5 1.00000000   0.510E-01       0.002       20.274   0.100E-07
     TRS4 it   6 1.00000000   0.458E-02       0.001       32.256   0.100E-07
     TRS4 it   7 1.00000000   0.475E-04       0.001       31.058   0.100E-07
     TRS4 it   8 1.00000000   0.660E-08       0.001       32.256   0.100E-07
     Final TRS4 iteration    8 1.00000000   0.660E-08
     Chemical potential (mu):       0.03636
 
 PAO| energy:  -7.7183352354179826      penalty:   9.2228959161298372E-005
 PAO|LS| Need extra step
 PAO|LS| adapt:  T T T
 PAO|LS| adapt: scan_steps:    0.0000000000000000       0.40000000000000002       0.80000000000000004     
 PAO|LS| adapt: energies:   -7.6272806981593160       -7.7731074354301617       -7.7183352354179826     
 PAO|LS| adapt: suggested step_size:   0.49078267162522193     
 PAO|LS| adapt: predicted energy  -7.7782737942776246     
 PAO| ======================= Iteration:         6 =============================

     Lanczos converged:  T threshold:   0.100E-02
     Est. extremal eigenvalues:    0.290E+01   0.159E+00
     Est. condition number :    0.183E+02
     NS sqrt iter    1 1.00000000   0.733E+00       0.002       40.657
     NS sqrt iter    2 1.00000000   0.359E+00       0.002       65.424
     NS sqrt iter    3 1.00000000   0.959E-01       0.002       60.201
     NS sqrt iter    4 1.00000000   0.384E-02       0.002       66.930
     NS sqrt iter    5 1.00000000   0.508E-06       0.002       54.556
     Final NS sqrt iter    5 1.00000000   0.449E-12

     Est. extremal eigenvalues     -0.93405     1.76155  converged:  T
     TRS4 it   1 1.00000000   0.893E+00       0.001       16.128   0.100E-07
     TRS4 it   2 1.00000000   0.638E+00       0.001       30.428   0.100E-07
     TRS4 it   3 1.00000000   0.439E+00       0.001       32.256   0.100E-07
     TRS4 it   4 1.00000000   0.231E+00       0.001       32.256   0.100E-07
     TRS4 it   5 1.00000000   0.802E-01       0.001       32.256   0.100E-07
     TRS4 it   6 1.00000000   0.121E-01       0.001       32.256   0.100E-07
     TRS4 it   7 1.00000000   0.374E-03       0.001       32.256   0.100E-07
     TRS4 it   8 1.00000000   0.510E-06       0.001       32.256   0.100E-07
     TRS4 it   9 1.00000000   0.114E-11       0.001       32.256   0.100E-07
     Final TRS4 iteration    9 1.00000000   0.114E-11
     Chemical potential (mu):       0.00175
 
 PAO| energy:  -7.7775415372201655      penalty:   1.3063639679418678E-005
 PAO|CG| warming up with steepest descent
 PAO|CG| beta:    0.0000000000000000     
 PAO| norm of gradient:  0.41705492387620069     
 PAO| energy improvement: -0.15026083906084953     
 PAO| step      6                   -7.777541537  0.261E-01  0.491E+00     0.131
 PAO|LS| adapt:  T F F
 PAO|LS| adapt: scan_steps:    0.0000000000000000        0.0000000000000000        0.0000000000000000     
 PAO|LS| adapt: energies:   -7.7775415372201655        0.0000000000000000        0.0000000000000000     
 PAO| ======================= Iteration:         7 =============================

     Lanczos converged:  T threshold:   0.100E-02
     Est. extremal eigenvalues:    0.282E+01   0.172E+00
     Est. condition number :    0.163E+02
     NS sqrt iter    1 1.00000000   0.716E+00       0.002       41.490
     NS sqrt iter    2 1.00000000   0.338E+00       0.002       62.830
     NS sqrt iter    3 1.00000000   0.803E-01       0.002       67.354
     NS sqrt iter    4 1.00000000   0.236E-02       0.002       66.603
     NS sqrt iter    5 1.00000000   0.130E-06       0.002       51.156
     Final NS sqrt iter    5 1.00000000   0.129E-08

     Est. extremal eigenvalues     -0.93576     1.74617  converged:  T
     TRS4 it   1 1.00000000   0.892E+00       0.001       16.128   0.100E-07
     TRS4 it   2 1.00000000   0.635E+00       0.001       32.256   0.100E-07
     TRS4 it   3 1.00000000   0.438E+00       0.001       32.256   0.100E-07
     TRS4 it   4 1.00000000   0.232E+00       0.001       32.256   0.100E-07
     TRS4 it   5 1.00000000   0.808E-01       0.001       32.256   0.100E-07
     TRS4 it   6 1.00000000   0.121E-01       0.001       32.256   0.100E-07
     TRS4 it   7 1.00000000   0.351E-03       0.001       32.256   0.100E-07
     TRS4 it   8 1.00000000   0.425E-06       0.001       32.256   0.100E-07
     TRS4 it   9 1.00000000   0.774E-12       0.001       32.256   0.100E-07
     Final TRS4 iteration    9 1.00000000   0.774E-12
     Chemical potential (mu):       0.00369
 
 PAO| energy:  -7.7715613116309648      penalty:   1.9759503071439946E-005
 PAO|LS| adapt:  T F T
 PAO|LS| adapt: scan_steps:    0.0000000000000000        0.0000000000000000       0.49078267162522193     
 PAO|LS| adapt: energies:   -7.7775415372201655        0.0000000000000000       -7.7715613116309648     
 PAO| ======================= Iteration:         8 =============================

     Lanczos converged:  T threshold:   0.100E-02
     Est. extremal eigenvalues:    0.286E+01   0.166E+00
     Est. condition number :    0.173E+02
     NS sqrt iter    1 1.00000000   0.724E+00       0.002       39.373
     NS sqrt iter    2 1.00000000   0.348E+00       0.002       65.353
     NS sqrt iter    3 1.00000000   0.880E-01       0.002       65.746
     NS sqrt iter    4 1.00000000   0.302E-02       0.002       66.209
     NS sqrt iter    5 1.00000000   0.262E-06       0.002       50.213
     Final NS sqrt iter    5 1.00000000   0.661E-09

     Est. extremal eigenvalues     -0.93586     1.75328  converged:  T
     TRS4 it   1 1.00000000   0.892E+00       0.001       16.128   0.100E-07
     TRS4 it   2 1.00000000   0.636E+00       0.001       32.256   0.100E-07
     TRS4 it   3 1.00000000   0.438E+00       0.001       32.256   0.100E-07
     TRS4 it   4 1.00000000   0.231E+00       0.001       32.256   0.100E-07
     TRS4 it   5 1.00000000   0.802E-01       0.001       32.256   0.100E-07
     TRS4 it   6 1.00000000   0.121E-01       0.001       32.256   0.100E-07
     TRS4 it   7 1.00000000   0.372E-03       0.001       30.868   0.100E-07
     TRS4 it   8 1.00000000   0.494E-06       0.001       32.256   0.100E-07
     TRS4 it   9 1.00000000   0.106E-11       0.001       32.256   0.100E-07
     Final TRS4 iteration    9 1.00000000   0.106E-11
     Chemical potential (mu):       0.00224
 
 PAO| energy:  -7.7971492233614352      penalty:   1.4162031809118650E-005
 PAO|LS| adapt:  T T T
 PAO|LS| adapt: scan_steps:    0.0000000000000000       0.24539133581261097       0.49078267162522193     
 PAO|LS| adapt: energies:   -7.7775415372201655       -7.7971492233614352       -7.7715613116309648     
 PAO|LS| adapt: suggested step_size:   0.22915639684843012     
 PAO|LS| adapt: predicted energy  -7.7972481353677541     
 PAO| ======================= Iteration:         9 =============================

     Lanczos converged:  T threshold:   0.100E-02
     Est. extremal eigenvalues:    0.286E+01   0.165E+00
     Est. condition number :    0.173E+02
     NS sqrt iter    1 1.00000000   0.725E+00       0.002       40.587
     NS sqrt iter    2 1.00000000   0.349E+00       0.002       66.658
     NS sqrt iter    3 1.00000000   0.885E-01       0.002       61.538
     NS sqrt iter    4 1.00000000   0.307E-02       0.002       67.072
     NS sqrt iter    5 1.00000000   0.274E-06       0.002       51.800
     Final NS sqrt iter    5 1.00000000   0.693E-09

     Est. extremal eigenvalues     -0.93580     1.75379  converged:  T
     TRS4 it   1 1.00000000   0.892E+00       0.001       16.128   0.100E-07
     TRS4 it   2 1.00000000   0.636E+00       0.001       27.425   0.100E-07
     TRS4 it   3 1.00000000   0.438E+00       0.001       32.256   0.100E-07
     TRS4 it   4 1.00000000   0.231E+00       0.001       32.256   0.100E-07
     TRS4 it   5 1.00000000   0.802E-01       0.001       32.256   0.100E-07
     TRS4 it   6 1.00000000   0.121E-01       0.001       32.256   0.100E-07
     TRS4 it   7 1.00000000   0.373E-03       0.001       32.256   0.100E-07
     TRS4 it   8 1.00000000   0.497E-06       0.001       32.256   0.100E-07
     TRS4 it   9 1.00000000   0.107E-11       0.001       32.256   0.100E-07
     Final TRS4 iteration    9 1.00000000   0.107E-11
     Chemical potential (mu):       0.00218
 
 PAO| energy:  -7.7972722838495194      penalty:   1.3989042245501838E-005
 PAO|CG| trace_G_new    3.6821218597485710E-002
 PAO|CG| trace_G_prev   0.17393480952938356     
 PAO|CG| trace_G_mix   -1.4392531284980518E-003
 PAO|CG| trace_D   0.17393480952938356     
 PAO|CG| trace_D_Gnew   1.4392531284980518E-003
 PAO|CG| beta:   0.21997018210158936     
 PAO| norm of gradient:  0.19188855775549962     
 PAO| energy improvement:  -1.9730746629353924E-002
 PAO| step      9                   -7.797272284  0.120E-01  0.229E+00     0.082
 PAO|LS| adapt:  T F F
 PAO|LS| adapt: scan_steps:    0.0000000000000000        0.0000000000000000        0.0000000000000000     
 PAO|LS| adapt: energies:   -7.7972722838495194        0.0000000000000000        0.0000000000000000     
 PAO| ======================= Iteration:        10 =============================

     Lanczos converged:  T threshold:   0.100E-02
     Est. extremal eigenvalues:    0.283E+01   0.171E+00
     Est. condition number :    0.165E+02
     NS sqrt iter    1 1.00000000   0.717E+00       0.002       35.809
     NS sqrt iter    2 1.00000000   0.341E+00       0.002       65.063
     NS sqrt iter    3 1.00000000   0.829E-01       0.002       66.911
     NS sqrt iter    4 1.00000000   0.253E-02       0.002       66.935
     NS sqrt iter    5 1.00000000   0.152E-06       0.002       51.058
     Final NS sqrt iter    5 1.00000000   0.117E-08

     Est. extremal eigenvalues     -0.93669     1.74654  converged:  T
     TRS4 it   1 1.00000000   0.889E+00       0.001       16.128   0.100E-07
     TRS4 it   2 1.00000000   0.634E+00       0.001       32.256   0.100E-07
     TRS4 it   3 1.00000000   0.435E+00       0.001       32.256   0.100E-07
     TRS4 it   4 1.00000000   0.228E+00       0.001       32.256   0.100E-07
     TRS4 it   5 1.00000000   0.779E-01       0.001       32.256   0.100E-07
     TRS4 it   6 1.00000000   0.114E-01       0.001       32.256   0.100E-07
     TRS4 it   7 1.00000000   0.324E-03       0.001       32.256   0.100E-07
     TRS4 it   8 1.00000000   0.366E-06       0.001       32.256   0.100E-07
     TRS4 it   9 1.00000000   0.574E-12       0.001       30.970   0.100E-07
     Final TRS4 iteration    9 1.00000000   0.574E-12
     Chemical potential (mu):       0.00532
 
 PAO| energy:  -7.8022972917123337      penalty:   1.4524324228513426E-005
 PAO|LS| adapt:  T T F
 PAO|LS| adapt: scan_steps:    0.0000000000000000       0.22915639684843012        0.0000000000000000     
 PAO|LS| adapt: energies:   -7.7972722838495194       -7.8022972917123337        0.0000000000000000     
 PAO| ======================= Iteration:        11 =============================

     Lanczos converged:  T threshold:   0.100E-02
     Est. extremal eigenvalues:    0.279E+01   0.177E+00
     Est. condition number :    0.158E+02
     NS sqrt iter    1 1.00000000   0.709E+00       0.002       40.882
     NS sqrt iter    2 1.00000000   0.332E+00       0.002       63.450
     NS sqrt iter    3 1.00000000   0.775E-01       0.002       64.348
     NS sqrt iter    4 1.00000000   0.207E-02       0.002       54.723
     NS sqrt iter    5 1.00000000   0.831E-07       0.002       48.268
     Final NS sqrt iter    5 1.00000000   0.632E-09

     Est. extremal eigenvalues     -0.93661     1.74038  converged:  T
     TRS4 it   1 1.00000000   0.887E+00       0.001       16.128   0.100E-07
     TRS4 it   2 1.00000000   0.632E+00       0.001       32.256   0.100E-07
     TRS4 it   3 1.00000000   0.433E+00       0.001       32.256   0.100E-07
     TRS4 it   4 1.00000000   0.225E+00       0.001       30.527   0.100E-07
     TRS4 it   5 1.00000000   0.757E-01       0.001       32.256   0.100E-07
     TRS4 it   6 1.00000000   0.107E-01       0.001       32.256   0.100E-07
     TRS4 it   7 1.00000000   0.280E-03       0.001       32.256   0.100E-07
     TRS4 it   8 1.00000000   0.266E-06       0.001       32.256   0.100E-07
     TRS4 it   9 1.00000000   0.297E-12       0.001       32.256   0.100E-07
     Final TRS4 iteration    9 1.00000000   0.297E-12
     Chemical potential (mu):       0.00858
 
 PAO| energy:  -7.8008850734419939      penalty:   1.5726037363799217E-005
 PAO|LS| adapt:  T T T
 PAO|LS| adapt: scan_steps:    0.0000000000000000       0.22915639684843012       0.45831279369686023     
 PAO|LS| adapt: energies:   -7.7972722838495194       -7.8022972917123337       -7.8008850734419939     
 PAO|LS| adapt: suggested step_size:   0.29346156715455068     
 PAO|LS| adapt: predicted energy  -7.8025507442159734     
 PAO| ======================= Iteration:        12 =============================

     Lanczos converged:  T threshold:   0.100E-02
     Est. extremal eigenvalues:    0.282E+01   0.173E+00
     Est. condition number :    0.163E+02
     NS sqrt iter    1 1.00000000   0.715E+00       0.002       38.462
     NS sqrt iter    2 1.00000000   0.338E+00       0.002       64.550
     NS sqrt iter    3 1.00000000   0.813E-01       0.002       66.404
     NS sqrt iter    4 1.00000000   0.239E-02       0.002       65.738
     NS sqrt iter    5 1.00000000   0.129E-06       0.002       51.513
     Final NS sqrt iter    5 1.00000000   0.126E-08

     Est. extremal eigenvalues     -0.93677     1.74470  converged:  T
     TRS4 it   1 1.00000000   0.889E+00       0.001       16.128   0.100E-07
     TRS4 it   2 1.00000000   0.633E+00       0.001       32.256   0.100E-07
     TRS4 it   3 1.00000000   0.435E+00       0.001       32.256   0.100E-07
     TRS4 it   4 1.00000000   0.227E+00       0.001       32.256   0.100E-07
     TRS4 it   5 1.00000000   0.773E-01       0.001       32.256   0.100E-07
     TRS4 it   6 1.00000000   0.112E-01       0.001       32.256   0.100E-07
     TRS4 it   7 1.00000000   0.311E-03       0.001       32.256   0.100E-07
     TRS4 it   8 1.00000000   0.335E-06       0.001       32.256   0.100E-07
     TRS4 it   9 1.00000000   0.478E-12       0.001       32.256   0.100E-07
     Final TRS4 iteration    9 1.00000000   0.478E-12
     Chemical potential (mu):       0.00622
 
 PAO| energy:  -7.8025345969299904      penalty:   1.4786667795740779E-005
 PAO|CG| trace_G_new    1.1785539606706684E-002
 PAO|CG| trace_G_prev    3.6821218597485710E-002
 PAO|CG| trace_G_mix   -4.5845201565520156E-004
 PAO|CG| trace_D    4.4604195984811072E-002
 PAO|CG| trace_D_Gnew   2.0937267637070726E-004
 PAO|CG| beta:   0.33252543203982798     
 PAO| norm of gradient:  0.10856122515293701     
 PAO| energy improvement:  -5.2623130804709817E-003
 PAO| step     12                   -7.802534597  0.679E-02  0.293E+00     0.083
 PAO|LS| adapt:  T F F
 PAO|LS| adapt: scan_steps:    0.0000000000000000        0.0000000000000000        0.0000000000000000     
 PAO|LS| adapt: energies:   -7.8025345969299904        0.0000000000000000        0.0000000000000000     
 PAO| ======================= Iteration:        13 =============================

     Lanczos converged:  T threshold:   0.100E-02
     Est. extremal eigenvalues:    0.278E+01   0.177E+00
     Est. condition number :    0.157E+02
     NS sqrt iter    1 1.00000000   0.708E+00       0.002       39.197
     NS sqrt iter    2 1.00000000   0.331E+00       0.002       64.755
     NS sqrt iter    3 1.00000000   0.770E-01       0.002       64.697
     NS sqrt iter    4 1.00000000   0.204E-02       0.002       66.000
     NS sqrt iter    5 1.00000000   0.806E-07       0.002       49.426
     Final NS sqrt iter    5 1.00000000   0.625E-09

     Est. extremal eigenvalues     -0.93725     1.73694  converged:  T
     TRS4 it   1 1.00000000   0.888E+00       0.001       16.128   0.100E-07
     TRS4 it   2 1.00000000   0.630E+00       0.001       32.256   0.100E-07
     TRS4 it   3 1.00000000   0.431E+00       0.001       32.256   0.100E-07
     TRS4 it   4 1.00000000   0.222E+00       0.001       32.256   0.100E-07
     TRS4 it   5 1.00000000   0.736E-01       0.001       32.256   0.100E-07
     TRS4 it   6 1.00000000   0.101E-01       0.001       32.256   0.100E-07
     TRS4 it   7 1.00000000   0.250E-03       0.001       30.662   0.100E-07
     TRS4 it   8 1.00000000   0.211E-06       0.001       32.256   0.100E-07
     TRS4 it   9 1.00000000   0.186E-12       0.001       32.256   0.100E-07
     Final TRS4 iteration    9 1.00000000   0.186E-12
     Chemical potential (mu):       0.01076
 
 PAO| energy:  -7.8045977295637146      penalty:   1.5089638534098682E-005
 PAO|LS| adapt:  T T F
 PAO|LS| adapt: scan_steps:    0.0000000000000000       0.29346156715455068        0.0000000000000000     
 PAO|LS| adapt: energies:   -7.8025345969299904       -7.8045977295637146        0.0000000000000000     
 PAO| ======================= Iteration:        14 =============================

     Lanczos converged:  T threshold:   0.100E-02
     Est. extremal eigenvalues:    0.275E+01   0.181E+00
     Est. condition number :    0.152E+02
     NS sqrt iter    1 1.00000000   0.701E+00       0.001       43.065
     NS sqrt iter    2 1.00000000   0.324E+00       0.002       71.978
     NS sqrt iter    3 1.00000000   0.729E-01       0.002       61.829
     NS sqrt iter    4 1.00000000   0.174E-02       0.002       52.898
     NS sqrt iter    5 1.00000000   0.504E-07       0.002       46.992
     Final NS sqrt iter    5 1.00000000   0.641E-09

     Est. extremal eigenvalues     -0.93723     1.72949  converged:  T
     TRS4 it   1 1.00000000   0.887E+00       0.001       16.128   0.100E-07
     TRS4 it   2 1.00000000   0.627E+00       0.001       27.323   0.100E-07
     TRS4 it   3 1.00000000   0.427E+00       0.001       32.256   0.100E-07
     TRS4 it   4 1.00000000   0.218E+00       0.001       32.256   0.100E-07
     TRS4 it   5 1.00000000   0.701E-01       0.001       32.256   0.100E-07
     TRS4 it   6 1.00000000   0.912E-02       0.001       32.256   0.100E-07
     TRS4 it   7 1.00000000   0.201E-03       0.001       32.256   0.100E-07
     TRS4 it   8 1.00000000   0.132E-06       0.001       32.256   0.100E-07
     TRS4 it   9 1.00000000   0.716E-13       0.001       32.256   0.100E-07
     Final TRS4 iteration    9 1.00000000   0.716E-13
     Chemical potential (mu):       0.01519
 
 PAO| energy:  -7.8039604514847616      penalty:   1.5869734471899098E-005
 PAO|LS| adapt:  T T T
 PAO|LS| adapt: scan_steps:    0.0000000000000000       0.29346156715455068       0.58692313430910137     
 PAO|LS| adapt: energies:   -7.8025345969299904       -7.8045977295637146       -7.8039604514847616     
 PAO|LS| adapt: suggested step_size:   0.37093746928552285     
 PAO|LS| adapt: predicted energy  -7.8046918384524941     
 PAO| ======================= Iteration:        15 =============================

     Lanczos converged:  T threshold:   0.100E-02
     Est. extremal eigenvalues:    0.277E+01   0.178E+00
     Est. condition number :    0.156E+02
     NS sqrt iter    1 1.00000000   0.706E+00       0.002       39.745
     NS sqrt iter    2 1.00000000   0.330E+00       0.002       64.485
     NS sqrt iter    3 1.00000000   0.759E-01       0.002       69.241
     NS sqrt iter    4 1.00000000   0.196E-02       0.002       67.769
     NS sqrt iter    5 1.00000000   0.712E-07       0.002       47.780
     Final NS sqrt iter    5 1.00000000   0.574E-09

     Est. extremal eigenvalues     -0.93729     1.73494  converged:  T
     TRS4 it   1 1.00000000   0.887E+00       0.001       16.128   0.100E-07
     TRS4 it   2 1.00000000   0.629E+00       0.001       32.256   0.100E-07
     TRS4 it   3 1.00000000   0.430E+00       0.001       32.256   0.100E-07
     TRS4 it   4 1.00000000   0.221E+00       0.001       32.256   0.100E-07
     TRS4 it   5 1.00000000   0.727E-01       0.001       32.256   0.100E-07
     TRS4 it   6 1.00000000   0.984E-02       0.001       32.256   0.100E-07
     TRS4 it   7 1.00000000   0.236E-03       0.001       32.102   0.100E-07
     TRS4 it   8 1.00000000   0.186E-06       0.001       29.230   0.100E-07
     TRS4 it   9 1.00000000   0.145E-12       0.001       32.256   0.100E-07
     Final TRS4 iteration    9 1.00000000   0.145E-12
     Chemical potential (mu):       0.01194
 
 PAO| energy:  -7.8046887623428827      penalty:   1.5246183511396262E-005
 PAO|CG| trace_G_new    2.6241087807595659E-003
 PAO|CG| trace_G_prev    1.1785539606706684E-002
 PAO|CG| trace_G_mix    6.3343369555591945E-005
 PAO|CG| trace_D    1.6578323158399966E-002
 PAO|CG| trace_D_Gnew   3.3839790423207192E-005
 PAO|CG| beta:   0.21728028555830772     
 PAO| norm of gradient:   5.1226055682236225E-002
 PAO| energy improvement:  -2.1541654128922616E-003
 PAO| step     15                   -7.804688762  0.320E-02  0.371E+00     0.083
 PAO|LS| adapt:  T F F
 PAO|LS| adapt: scan_steps:    0.0000000000000000        0.0000000000000000        0.0000000000000000     
 PAO|LS| adapt: energies:   -7.8046887623428827        0.0000000000000000        0.0000000000000000     
 PAO| ======================= Iteration:        16 =============================

     Lanczos converged:  T threshold:   0.100E-02
     Est. extremal eigenvalues:    0.276E+01   0.179E+00
     Est. condition number :    0.155E+02
     NS sqrt iter    1 1.00000000   0.704E+00       0.002       38.210
     NS sqrt iter    2 1.00000000   0.328E+00       0.002       61.301
     NS sqrt iter    3 1.00000000   0.752E-01       0.002       64.792
     NS sqrt iter    4 1.00000000   0.190E-02       0.002       61.240
     NS sqrt iter    5 1.00000000   0.647E-07       0.002       47.457
     Final NS sqrt iter    5 1.00000000   0.556E-09

     Est. extremal eigenvalues     -0.93732     1.73354  converged:  T
     TRS4 it   1 1.00000000   0.887E+00       0.001       16.128   0.100E-07
     TRS4 it   2 1.00000000   0.628E+00       0.001       32.256   0.100E-07
     TRS4 it   3 1.00000000   0.428E+00       0.001       32.256   0.100E-07
     TRS4 it   4 1.00000000   0.219E+00       0.001       30.310   0.100E-07
     TRS4 it   5 1.00000000   0.715E-01       0.001       32.256   0.100E-07
     TRS4 it   6 1.00000000   0.952E-02       0.001       32.256   0.100E-07
     TRS4 it   7 1.00000000   0.222E-03       0.001       32.256   0.100E-07
     TRS4 it   8 1.00000000   0.166E-06       0.001       32.256   0.100E-07
     TRS4 it   9 1.00000000   0.116E-12       0.001       32.256   0.100E-07
     Final TRS4 iteration    9 1.00000000   0.116E-12
     Chemical potential (mu):       0.01278
 
 PAO| energy:  -7.8048133360971903      penalty:   1.5026915853346859E-005
 PAO|LS| adapt:  T T F
 PAO|LS| adapt: scan_steps:    0.0000000000000000       0.37093746928552285        0.0000000000000000     
 PAO|LS| adapt: energies:   -7.8046887623428827       -7.8048133360971903        0.0000000000000000     
 PAO| ======================= Iteration:        17 =============================

     Lanczos converged:  T threshold:   0.100E-02
     Est. extremal eigenvalues:    0.275E+01   0.179E+00
     Est. condition number :    0.154E+02
     NS sqrt iter    1 1.00000000   0.702E+00       0.002       37.398
     NS sqrt iter    2 1.00000000   0.327E+00       0.002       62.366
     NS sqrt iter    3 1.00000000   0.745E-01       0.002       63.210
     NS sqrt iter    4 1.00000000   0.184E-02       0.002       65.827
     NS sqrt iter    5 1.00000000   0.590E-07       0.002       46.585
     Final NS sqrt iter    5 1.00000000   0.832E-09

     Est. extremal eigenvalues     -0.93722     1.73222  converged:  T
     TRS4 it   1 1.00000000   0.888E+00       0.001       16.128   0.100E-07
     TRS4 it   2 1.00000000   0.627E+00       0.001       32.256   0.100E-07
     TRS4 it   3 1.00000000   0.427E+00       0.001       32.256   0.100E-07
     TRS4 it   4 1.00000000   0.218E+00       0.007        4.678   0.100E-07
     TRS4 it   5 1.00000000   0.703E-01       0.001       32.256   0.100E-07
     TRS4 it   6 1.00000000   0.921E-02       0.001       32.256   0.100E-07
     TRS4 it   7 1.00000000   0.209E-03       0.001       32.256   0.100E-07
     TRS4 it   8 1.00000000   0.148E-06       0.001       32.256   0.100E-07
     TRS4 it   9 1.00000000   0.930E-13       0.001       32.256   0.100E-07
     Final TRS4 iteration    9 1.00000000   0.930E-13
     Chemical potential (mu):       0.01361
 
 PAO| energy:  -7.8032402341295191      penalty:   1.4934267071009721E-005
 PAO|LS| adapt:  T T T
 PAO|LS| adapt: scan_steps:    0.0000000000000000       0.37093746928552285       0.74187493857104569     
 PAO|LS| adapt: energies:   -7.8046887623428827       -7.8048133360971903       -7.8032402341295191     
 PAO|LS| adapt: suggested step_size:   0.21268775684118627     
 PAO|LS| adapt: predicted energy  -7.8049678292343181     
 PAO| ======================= Iteration:        18 =============================

     Lanczos converged:  T threshold:   0.100E-02
     Est. extremal eigenvalues:    0.277E+01   0.178E+00
     Est. condition number :    0.155E+02
     NS sqrt iter    1 1.00000000   0.705E+00       0.005       13.650
     NS sqrt iter    2 1.00000000   0.329E+00       0.002       67.815
     NS sqrt iter    3 1.00000000   0.755E-01       0.002       69.583
     NS sqrt iter    4 1.00000000   0.193E-02       0.002       70.942
     NS sqrt iter    5 1.00000000   0.674E-07       0.008        8.945
     Final NS sqrt iter    5 1.00000000   0.557E-09

     Est. extremal eigenvalues     -0.93732     1.73413  converged:  T
     TRS4 it   1 1.00000000   0.887E+00       0.001       16.128   0.100E-07
     TRS4 it   2 1.00000000   0.628E+00       0.001       32.256   0.100E-07
     TRS4 it   3 1.00000000   0.429E+00       0.001       32.256   0.100E-07
     TRS4 it   4 1.00000000   0.220E+00       0.001       32.256   0.100E-07
     TRS4 it   5 1.00000000   0.720E-01       0.001       32.256   0.100E-07
     TRS4 it   6 1.00000000   0.965E-02       0.001       32.256   0.100E-07
     TRS4 it   7 1.00000000   0.228E-03       0.008        4.100   0.100E-07
     TRS4 it   8 1.00000000   0.174E-06       0.001       32.256   0.100E-07
     TRS4 it   9 1.00000000   0.127E-12       0.001       32.256   0.100E-07
     Final TRS4 iteration    9 1.00000000   0.127E-12
     Chemical potential (mu):       0.01243
 
 PAO| energy:  -7.8049673748522004      penalty:   1.5105254782609505E-005
 PAO|CG| trace_G_new    7.2521396548482658E-004
 PAO|CG| trace_G_prev    2.6241087807595659E-003
 PAO|CG| trace_G_mix    1.4131743446646007E-006
 PAO|CG| trace_D    3.3920779561256780E-003
 PAO|CG| trace_D_Gnew  -1.7223270954386506E-006
 PAO|CG| beta:   0.27582728141729435     
 PAO| norm of gradient:   2.6929796981871708E-002
 PAO| energy improvement:  -2.7861250931771053E-004
 PAO| step     18                   -7.804967375  0.168E-02  0.213E+00     0.121
 PAO|LS| adapt:  T F F
 PAO|LS| adapt: scan_steps:    0.0000000000000000        0.0000000000000000        0.0000000000000000     
 PAO|LS| adapt: energies:   -7.8049673748522004        0.0000000000000000        0.0000000000000000     
 PAO| ======================= Iteration:        19 =============================

     Lanczos converged:  T threshold:   0.100E-02
     Est. extremal eigenvalues:    0.277E+01   0.178E+00
     Est. condition number :    0.155E+02
     NS sqrt iter    1 1.00000000   0.705E+00       0.001       59.391
     NS sqrt iter    2 1.00000000   0.329E+00       0.001       98.667
     NS sqrt iter    3 1.00000000   0.757E-01       0.001      101.254
     NS sqrt iter    4 1.00000000   0.193E-02       0.001       99.441
     NS sqrt iter    5 1.00000000   0.681E-07       0.001       69.771
     Final NS sqrt iter    5 1.00000000   0.564E-09

     Est. extremal eigenvalues     -0.93732     1.73423  converged:  T
     TRS4 it   1 1.00000000   0.887E+00       0.000       16.128   0.100E-07
     TRS4 it   2 1.00000000   0.628E+00       0.001       32.256   0.100E-07
     TRS4 it   3 1.00000000   0.429E+00       0.001       32.256   0.100E-07
     TRS4 it   4 1.00000000   0.220E+00       0.001       32.256   0.100E-07
     TRS4 it   5 1.00000000   0.719E-01       0.001       32.256   0.100E-07
     TRS4 it   6 1.00000000   0.964E-02       0.001       32.256   0.100E-07
     TRS4 it   7 1.00000000   0.228E-03       0.001       32.256   0.100E-07
     TRS4 it   8 1.00000000   0.177E-06       0.001       32.256   0.100E-07
     TRS4 it   9 1.00000000   0.131E-12       0.001       32.256   0.100E-07
     Final TRS4 iteration    9 1.00000000   0.131E-12
     Chemical potential (mu):       0.01214
 
 PAO| energy:  -7.8050851156706660      penalty:   1.4816064399970865E-005
 PAO|LS| adapt:  T T F
 PAO|LS| adapt: scan_steps:    0.0000000000000000       0.21268775684118627        0.0000000000000000     
 PAO|LS| adapt: energies:   -7.8049673748522004       -7.8050851156706660        0.0000000000000000     
 PAO| ======================= Iteration:        20 =============================

     Lanczos converged:  T threshold:   0.100E-02
     Est. extremal eigenvalues:    0.277E+01   0.178E+00
     Est. condition number :    0.155E+02
     NS sqrt iter    1 1.00000000   0.705E+00       0.001       54.402
     NS sqrt iter    2 1.00000000   0.329E+00       0.001       92.116
     NS sqrt iter    3 1.00000000   0.759E-01       0.001       94.962
     NS sqrt iter    4 1.00000000   0.194E-02       0.001       98.019
     NS sqrt iter    5 1.00000000   0.688E-07       0.001       69.311
     Final NS sqrt iter    5 1.00000000   0.565E-09

     Est. extremal eigenvalues     -0.93732     1.73434  converged:  T
     TRS4 it   1 1.00000000   0.887E+00       0.000       16.128   0.100E-07
     TRS4 it   2 1.00000000   0.628E+00       0.001       32.256   0.100E-07
     TRS4 it   3 1.00000000   0.429E+00       0.001       32.256   0.100E-07
     TRS4 it   4 1.00000000   0.220E+00       0.001       32.256   0.100E-07
     TRS4 it   5 1.00000000   0.718E-01       0.001       32.256   0.100E-07
     TRS4 it   6 1.00000000   0.963E-02       0.001       32.256   0.100E-07
     TRS4 it   7 1.00000000   0.229E-03       0.001       32.256   0.100E-07
     TRS4 it   8 1.00000000   0.179E-06       0.001       32.256   0.100E-07
     TRS4 it   9 1.00000000   0.136E-12       0.001       32.256   0.100E-07
     Final TRS4 iteration    9 1.00000000   0.136E-12
     Chemical potential (mu):       0.01186
 
 PAO| energy:  -7.8051292545389268      penalty:   1.4539301824527611E-005
 PAO|LS| adapt:  T T F
 PAO|LS| adapt: scan_steps:    0.0000000000000000       0.42537551368237253        0.0000000000000000     
 PAO|LS| adapt: energies:   -7.8049673748522004       -7.8051292545389268        0.0000000000000000     
 PAO| ======================= Iteration:        21 =============================

     Lanczos converged:  T threshold:   0.100E-02
     Est. extremal eigenvalues:    0.277E+01   0.178E+00
     Est. condition number :    0.156E+02
     NS sqrt iter    1 1.00000000   0.705E+00       0.001       44.691
     NS sqrt iter    2 1.00000000   0.330E+00       0.002       71.892
     NS sqrt iter    3 1.00000000   0.763E-01       0.001       82.601
     NS sqrt iter    4 1.00000000   0.197E-02       0.001       94.706
     NS sqrt iter    5 1.00000000   0.705E-07       0.001       55.604
     Final NS sqrt iter    5 1.00000000   0.591E-09

     Est. extremal eigenvalues     -0.93731     1.73456  converged:  T
     TRS4 it   1 1.00000000   0.887E+00       0.001       16.128   0.100E-07
     TRS4 it   2 1.00000000   0.628E+00       0.001       32.256   0.100E-07
     TRS4 it   3 1.00000000   0.428E+00       0.001       32.256   0.100E-07
     TRS4 it   4 1.00000000   0.219E+00       0.001       32.256   0.100E-07
     TRS4 it   5 1.00000000   0.715E-01       0.001       32.256   0.100E-07
     TRS4 it   6 1.00000000   0.960E-02       0.001       32.256   0.100E-07
     TRS4 it   7 1.00000000   0.230E-03       0.001       32.256   0.100E-07
     TRS4 it   8 1.00000000   0.184E-06       0.001       32.256   0.100E-07
     TRS4 it   9 1.00000000   0.145E-12       0.001       32.256   0.100E-07
     Final TRS4 iteration    9 1.00000000   0.145E-12
     Chemical potential (mu):       0.01129
 
 PAO| energy:  -7.8049943812012677      penalty:   1.4022479588343230E-005
 PAO|LS| Need extra step
 PAO|LS| adapt:  T T T
 PAO|LS| adapt: scan_steps:    0.0000000000000000       0.42537551368237253       0.85075102736474506     
 PAO|LS| adapt: energies:   -7.8049673748522004       -7.8051292545389268       -7.8049943812012677     
 PAO|LS| adapt: suggested step_size:   0.44473140673680883     
 PAO|LS| adapt: predicted energy  -7.8051295617568952     
 PAO| ======================= Iteration:        22 =============================

     Lanczos converged:  T threshold:   0.100E-02
     Est. extremal eigenvalues:    0.277E+01   0.178E+00
     Est. condition number :    0.155E+02
     NS sqrt iter    1 1.00000000   0.705E+00       0.001       49.657
     NS sqrt iter    2 1.00000000   0.329E+00       0.001       92.324
     NS sqrt iter    3 1.00000000   0.759E-01       0.001       98.172
     NS sqrt iter    4 1.00000000   0.195E-02       0.001       96.952
     NS sqrt iter    5 1.00000000   0.689E-07       0.001       56.868
     Final NS sqrt iter    5 1.00000000   0.567E-09

     Est. extremal eigenvalues     -0.93732     1.73435  converged:  T
     TRS4 it   1 1.00000000   0.887E+00       0.000       16.128   0.100E-07
     TRS4 it   2 1.00000000   0.628E+00       0.001       32.256   0.100E-07
     TRS4 it   3 1.00000000   0.429E+00       0.001       32.256   0.100E-07
     TRS4 it   4 1.00000000   0.220E+00       0.001       32.256   0.100E-07
     TRS4 it   5 1.00000000   0.717E-01       0.001       32.256   0.100E-07
     TRS4 it   6 1.00000000   0.963E-02       0.001       32.256   0.100E-07
     TRS4 it   7 1.00000000   0.229E-03       0.001       32.256   0.100E-07
     TRS4 it   8 1.00000000   0.180E-06       0.001       32.256   0.100E-07
     TRS4 it   9 1.00000000   0.137E-12       0.001       32.256   0.100E-07
     Final TRS4 iteration    9 1.00000000   0.137E-12
     Chemical potential (mu):       0.01183
 
 PAO| energy:  -7.8051295972947674      penalty:   1.4514725566643961E-005
 PAO|CG| trace_G_new    2.2122960561174452E-004
 PAO|CG| trace_G_prev    7.2521396548482658E-004
 PAO|CG| trace_G_mix    2.9437735823849072E-006
 PAO|CG| trace_D    9.8423572371988174E-004
 PAO|CG| trace_D_Gnew  -1.8287857316833339E-006
 PAO|CG| beta:   0.30099507513403884     
 PAO| norm of gradient:   1.4873789214982997E-002
 PAO| energy improvement:  -1.6222244256702822E-004
 PAO| step     22                   -7.805129597  0.930E-03  0.445E+00     0.080
 PAO|LS| adapt:  T F F
 PAO|LS| adapt: scan_steps:    0.0000000000000000        0.0000000000000000        0.0000000000000000     
 PAO|LS| adapt: energies:   -7.8051295972947674        0.0000000000000000        0.0000000000000000     
 PAO| ======================= Iteration:        23 =============================

     Lanczos converged:  T threshold:   0.100E-02
     Est. extremal eigenvalues:    0.277E+01   0.178E+00
     Est. condition number :    0.155E+02
     NS sqrt iter    1 1.00000000   0.705E+00       0.002       40.388
     NS sqrt iter    2 1.00000000   0.329E+00       0.002       65.946
     NS sqrt iter    3 1.00000000   0.759E-01       0.002       73.439
     NS sqrt iter    4 1.00000000   0.195E-02       0.001       84.069
     NS sqrt iter    5 1.00000000   0.689E-07       0.001       60.777
     Final NS sqrt iter    5 1.00000000   0.572E-09

     Est. extremal eigenvalues     -0.93732     1.73401  converged:  T
     TRS4 it   1 1.00000000   0.887E+00       0.000       16.128   0.100E-07
     TRS4 it   2 1.00000000   0.628E+00       0.001       32.256   0.100E-07
     TRS4 it   3 1.00000000   0.429E+00       0.001       32.256   0.100E-07
     TRS4 it   4 1.00000000   0.220E+00       0.001       32.256   0.100E-07
     TRS4 it   5 1.00000000   0.718E-01       0.001       32.256   0.100E-07
     TRS4 it   6 1.00000000   0.967E-02       0.001       32.256   0.100E-07
     TRS4 it   7 1.00000000   0.231E-03       0.001       32.256   0.100E-07
     TRS4 it   8 1.00000000   0.184E-06       0.001       32.256   0.100E-07
     TRS4 it   9 1.00000000   0.144E-12       0.001       29.739   0.100E-07
     Final TRS4 iteration    9 1.00000000   0.144E-12
     Chemical potential (mu):       0.01150
 
 PAO| energy:  -7.8051787725274897      penalty:   1.3832857047601066E-005
 PAO|LS| adapt:  T T F
 PAO|LS| adapt: scan_steps:    0.0000000000000000       0.44473140673680883        0.0000000000000000     
 PAO|LS| adapt: energies:   -7.8051295972947674       -7.8051787725274897        0.0000000000000000     
 PAO| ======================= Iteration:        24 =============================

     Lanczos converged:  T threshold:   0.100E-02
     Est. extremal eigenvalues:    0.277E+01   0.178E+00
     Est. condition number :    0.155E+02
     NS sqrt iter    1 1.00000000   0.705E+00       0.002       40.233
     NS sqrt iter    2 1.00000000   0.329E+00       0.002       69.959
     NS sqrt iter    3 1.00000000   0.760E-01       0.001       97.583
     NS sqrt iter    4 1.00000000   0.195E-02       0.002       65.308
     NS sqrt iter    5 1.00000000   0.689E-07       0.001       52.827
     Final NS sqrt iter    5 1.00000000   0.581E-09

     Est. extremal eigenvalues     -0.93732     1.73366  converged:  T
     TRS4 it   1 1.00000000   0.887E+00       0.001       16.128   0.100E-07
     TRS4 it   2 1.00000000   0.628E+00       0.001       32.256   0.100E-07
     TRS4 it   3 1.00000000   0.429E+00       0.001       32.256   0.100E-07
     TRS4 it   4 1.00000000   0.220E+00       0.001       32.256   0.100E-07
     TRS4 it   5 1.00000000   0.719E-01       0.001       32.256   0.100E-07
     TRS4 it   6 1.00000000   0.971E-02       0.001       23.121   0.100E-07
     TRS4 it   7 1.00000000   0.234E-03       0.001       32.256   0.100E-07
     TRS4 it   8 1.00000000   0.188E-06       0.001       32.256   0.100E-07
     TRS4 it   9 1.00000000   0.150E-12       0.001       32.256   0.100E-07
     Final TRS4 iteration    9 1.00000000   0.150E-12
     Chemical potential (mu):       0.01118
 
 PAO| energy:  -7.8051284108590870      penalty:   1.3179304706732302E-005
 PAO|LS| adapt:  T T T
 PAO|LS| adapt: scan_steps:    0.0000000000000000       0.44473140673680883       0.88946281347361766     
 PAO|LS| adapt: energies:   -7.8051295972947674       -7.8051787725274897       -7.8051284108590870     
 PAO|LS| adapt: suggested step_size:   0.44208090625322471     
 PAO|LS| adapt: predicted energy  -7.8051787742952135     
 PAO| ======================= Iteration:        25 =============================

     Lanczos converged:  T threshold:   0.100E-02
     Est. extremal eigenvalues:    0.277E+01   0.178E+00
     Est. condition number :    0.155E+02
     NS sqrt iter    1 1.00000000   0.705E+00       0.001       43.390
     NS sqrt iter    2 1.00000000   0.329E+00       0.001       79.830
     NS sqrt iter    3 1.00000000   0.759E-01       0.002       73.246
     NS sqrt iter    4 1.00000000   0.195E-02       0.002       70.138
     NS sqrt iter    5 1.00000000   0.689E-07       0.001       66.394
     Final NS sqrt iter    5 1.00000000   0.572E-09

     Est. extremal eigenvalues     -0.93732     1.73401  converged:  T
     TRS4 it   1 1.00000000   0.887E+00       0.000       16.128   0.100E-07
     TRS4 it   2 1.00000000   0.628E+00       0.001       32.256   0.100E-07
     TRS4 it   3 1.00000000   0.429E+00       0.001       32.256   0.100E-07
     TRS4 it   4 1.00000000   0.220E+00       0.001       32.256   0.100E-07
     TRS4 it   5 1.00000000   0.718E-01       0.001       32.256   0.100E-07
     TRS4 it   6 1.00000000   0.967E-02       0.001       32.256   0.100E-07
     TRS4 it   7 1.00000000   0.231E-03       0.001       32.256   0.100E-07
     TRS4 it   8 1.00000000   0.184E-06       0.001       32.256   0.100E-07
     TRS4 it   9 1.00000000   0.144E-12       0.001       32.256   0.100E-07
     Final TRS4 iteration    9 1.00000000   0.144E-12
     Chemical potential (mu):       0.01151
 
 PAO| energy:  -7.8051787733680031      penalty:   1.3836836347456526E-005
 PAO|CG| trace_G_new    7.8787395335261926E-005
 PAO|CG| trace_G_prev    2.2122960561174452E-004
 PAO|CG| trace_G_mix    6.8536722569163739E-007
 PAO|CG| trace_D    3.1150033940591937E-004
 PAO|CG| trace_D_Gnew  -3.4986227333909151E-007
 PAO|CG| beta:   0.35303605904644819     
 PAO| norm of gradient:   8.8762264130238314E-003
 PAO| energy improvement:  -4.9176073235734918E-005
 PAO| step     25                   -7.805178773  0.555E-03  0.442E+00     0.072
 PAO|LS| adapt:  T F F
 PAO|LS| adapt: scan_steps:    0.0000000000000000        0.0000000000000000        0.0000000000000000     
 PAO|LS| adapt: energies:   -7.8051787733680031        0.0000000000000000        0.0000000000000000     
 PAO| ======================= Iteration:        26 =============================

     Lanczos converged:  T threshold:   0.100E-02
     Est. extremal eigenvalues:    0.277E+01   0.178E+00
     Est. condition number :    0.155E+02
     NS sqrt iter    1 1.00000000   0.704E+00       0.001       61.472
     NS sqrt iter    2 1.00000000   0.329E+00       0.001       96.676
     NS sqrt iter    3 1.00000000   0.758E-01       0.001       79.964
     NS sqrt iter    4 1.00000000   0.194E-02       0.001       96.864
     NS sqrt iter    5 1.00000000   0.681E-07       0.001       61.849
     Final NS sqrt iter    5 1.00000000   0.571E-09

     Est. extremal eigenvalues     -0.93732     1.73343  converged:  T
     TRS4 it   1 1.00000000   0.887E+00       0.000       16.128   0.100E-07
     TRS4 it   2 1.00000000   0.628E+00       0.001       32.256   0.100E-07
     TRS4 it   3 1.00000000   0.428E+00       0.001       32.256   0.100E-07
     TRS4 it   4 1.00000000   0.220E+00       0.001       32.256   0.100E-07
     TRS4 it   5 1.00000000   0.717E-01       0.001       32.256   0.100E-07
     TRS4 it   6 1.00000000   0.964E-02       0.001       32.256   0.100E-07
     TRS4 it   7 1.00000000   0.230E-03       0.001       32.256   0.100E-07
     TRS4 it   8 1.00000000   0.181E-06       0.001       32.256   0.100E-07
     TRS4 it   9 1.00000000   0.139E-12       0.001       32.256   0.100E-07
     Final TRS4 iteration    9 1.00000000   0.139E-12
     Chemical potential (mu):       0.01161
 
 PAO| energy:  -7.8051825503996932      penalty:   1.3115566256468878E-005
 PAO|LS| adapt:  T T F
 PAO|LS| adapt: scan_steps:    0.0000000000000000       0.44208090625322471        0.0000000000000000     
 PAO|LS| adapt: energies:   -7.8051787733680031       -7.8051825503996932        0.0000000000000000     
 PAO| ======================= Iteration:        27 =============================

     Lanczos converged:  T threshold:   0.100E-02
     Est. extremal eigenvalues:    0.277E+01   0.178E+00
     Est. condition number :    0.155E+02
     NS sqrt iter    1 1.00000000   0.704E+00       0.001       52.686
     NS sqrt iter    2 1.00000000   0.329E+00       0.002       71.634
     NS sqrt iter    3 1.00000000   0.757E-01       0.002       65.285
     NS sqrt iter    4 1.00000000   0.193E-02       0.001       93.339
     NS sqrt iter    5 1.00000000   0.673E-07       0.001       62.912
     Final NS sqrt iter    5 1.00000000   0.589E-09

     Est. extremal eigenvalues     -0.93732     1.73285  converged:  T
     TRS4 it   1 1.00000000   0.887E+00       0.001       16.128   0.100E-07
     TRS4 it   2 1.00000000   0.628E+00       0.001       32.256   0.100E-07
     TRS4 it   3 1.00000000   0.428E+00       0.001       32.256   0.100E-07
     TRS4 it   4 1.00000000   0.219E+00       0.001       32.256   0.100E-07
     TRS4 it   5 1.00000000   0.716E-01       0.001       32.256   0.100E-07
     TRS4 it   6 1.00000000   0.962E-02       0.001       32.256   0.100E-07
     TRS4 it   7 1.00000000   0.229E-03       0.001       32.256   0.100E-07
     TRS4 it   8 1.00000000   0.179E-06       0.001       32.256   0.100E-07
     TRS4 it   9 1.00000000   0.136E-12       0.001       32.256   0.100E-07
     Final TRS4 iteration    9 1.00000000   0.136E-12
     Chemical potential (mu):       0.01172
 
 PAO| energy:  -7.8051240087997380      penalty:   1.2417828429690307E-005
 PAO|LS| adapt:  T T T
 PAO|LS| adapt: scan_steps:    0.0000000000000000       0.44208090625322471       0.88416181250644943     
 PAO|LS| adapt: energies:   -7.8051787733680031       -7.8051825503996932       -7.8051240087997380     
 PAO|LS| adapt: suggested step_size:   0.24783426339511261     
 PAO|LS| adapt: predicted energy  -7.8051885661727001     
 PAO| ======================= Iteration:        28 =============================

     Lanczos converged:  T threshold:   0.100E-02
     Est. extremal eigenvalues:    0.277E+01   0.178E+00
     Est. condition number :    0.155E+02
     NS sqrt iter    1 1.00000000   0.705E+00       0.001       56.850
     NS sqrt iter    2 1.00000000   0.329E+00       0.001       94.265
     NS sqrt iter    3 1.00000000   0.759E-01       0.001       90.997
     NS sqrt iter    4 1.00000000   0.194E-02       0.001       79.641
     NS sqrt iter    5 1.00000000   0.684E-07       0.002       44.471
     Final NS sqrt iter    5 1.00000000   0.569E-09

     Est. extremal eigenvalues     -0.93732     1.73368  converged:  T
     TRS4 it   1 1.00000000   0.887E+00       0.001       16.128   0.100E-07
     TRS4 it   2 1.00000000   0.628E+00       0.001       32.256   0.100E-07
     TRS4 it   3 1.00000000   0.429E+00       0.001       32.256   0.100E-07
     TRS4 it   4 1.00000000   0.220E+00       0.001       32.256   0.100E-07
     TRS4 it   5 1.00000000   0.718E-01       0.001       32.256   0.100E-07
     TRS4 it   6 1.00000000   0.965E-02       0.001       32.256   0.100E-07
     TRS4 it   7 1.00000000   0.231E-03       0.001       32.256   0.100E-07
     TRS4 it   8 1.00000000   0.183E-06       0.001       32.256   0.100E-07
     TRS4 it   9 1.00000000   0.142E-12       0.001       32.256   0.100E-07
     Final TRS4 iteration    9 1.00000000   0.142E-12
     Chemical potential (mu):       0.01156
 
 PAO| energy:  -7.8051885570784245      penalty:   1.3429569163540774E-005
 PAO|CG| trace_G_new    3.0977155449781125E-005
 PAO|CG| trace_G_prev    7.8787395335261926E-005
 PAO|CG| trace_G_mix    4.6461718821184617E-008
 PAO|CG| trace_D    1.1785809960777759E-004
 PAO|CG| trace_D_Gnew  -2.4437530144681393E-008
 PAO|CG| beta:   0.39258429091787306     
 PAO| norm of gradient:   5.5657124835712746E-003
 PAO| energy improvement:  -9.7837104213738257E-006
 PAO| step     28                   -7.805188557  0.348E-03  0.248E+00     0.066
 PAO|LS| adapt:  T F F
 PAO|LS| adapt: scan_steps:    0.0000000000000000        0.0000000000000000        0.0000000000000000     
 PAO|LS| adapt: energies:   -7.8051885570784245        0.0000000000000000        0.0000000000000000     
 PAO| ======================= Iteration:        29 =============================

     Lanczos converged:  T threshold:   0.100E-02
     Est. extremal eigenvalues:    0.277E+01   0.178E+00
     Est. condition number :    0.155E+02
     NS sqrt iter    1 1.00000000   0.704E+00       0.002       40.724
     NS sqrt iter    2 1.00000000   0.329E+00       0.002       64.475
     NS sqrt iter    3 1.00000000   0.758E-01       0.001       78.802
     NS sqrt iter    4 1.00000000   0.194E-02       0.001       84.867
     NS sqrt iter    5 1.00000000   0.681E-07       0.001       66.982
     Final NS sqrt iter    5 1.00000000   0.571E-09

     Est. extremal eigenvalues     -0.93732     1.73348  converged:  T
     TRS4 it   1 1.00000000   0.887E+00       0.000       16.128   0.100E-07
     TRS4 it   2 1.00000000   0.628E+00       0.001       32.256   0.100E-07
     TRS4 it   3 1.00000000   0.428E+00       0.001       32.256   0.100E-07
     TRS4 it   4 1.00000000   0.219E+00       0.001       32.256   0.100E-07
     TRS4 it   5 1.00000000   0.717E-01       0.001       32.256   0.100E-07
     TRS4 it   6 1.00000000   0.963E-02       0.001       32.256   0.100E-07
     TRS4 it   7 1.00000000   0.229E-03       0.001       32.256   0.100E-07
     TRS4 it   8 1.00000000   0.180E-06       0.001       32.256   0.100E-07
     TRS4 it   9 1.00000000   0.138E-12       0.001       32.256   0.100E-07
     Final TRS4 iteration    9 1.00000000   0.138E-12
     Chemical potential (mu):       0.01169
 
 PAO| energy:  -7.8051953177206892      penalty:   1.3003652961942026E-005
 PAO|LS| adapt:  T T F
 PAO|LS| adapt: scan_steps:    0.0000000000000000       0.24783426339511261        0.0000000000000000     
 PAO|LS| adapt: energies:   -7.8051885570784245       -7.8051953177206892        0.0000000000000000     
 PAO| ======================= Iteration:        30 =============================

     Lanczos converged:  T threshold:   0.100E-02
     Est. extremal eigenvalues:    0.277E+01   0.178E+00
     Est. condition number :    0.155E+02
     NS sqrt iter    1 1.00000000   0.704E+00       0.001       53.240
     NS sqrt iter    2 1.00000000   0.329E+00       0.001       91.371
     NS sqrt iter    3 1.00000000   0.757E-01       0.002       65.222
     NS sqrt iter    4 1.00000000   0.193E-02       0.002       66.025
     NS sqrt iter    5 1.00000000   0.677E-07       0.002       45.691
     Final NS sqrt iter    5 1.00000000   0.578E-09

     Est. extremal eigenvalues     -0.93733     1.73327  converged:  T
     TRS4 it   1 1.00000000   0.887E+00       0.000       16.128   0.100E-07
     TRS4 it   2 1.00000000   0.628E+00       0.001       32.256   0.100E-07
     TRS4 it   3 1.00000000   0.428E+00       0.001       32.256   0.100E-07
     TRS4 it   4 1.00000000   0.219E+00       0.001       32.256   0.100E-07
     TRS4 it   5 1.00000000   0.716E-01       0.001       32.256   0.100E-07
     TRS4 it   6 1.00000000   0.960E-02       0.001       32.256   0.100E-07
     TRS4 it   7 1.00000000   0.228E-03       0.001       32.256   0.100E-07
     TRS4 it   8 1.00000000   0.178E-06       0.001       32.256   0.100E-07
     TRS4 it   9 1.00000000   0.135E-12       0.001       32.256   0.100E-07
     Final TRS4 iteration    9 1.00000000   0.135E-12
     Chemical potential (mu):       0.01181
 
 PAO| energy:  -7.8052002407000458      penalty:   1.2585368592828299E-005
 PAO|LS| adapt:  T T F
 PAO|LS| adapt: scan_steps:    0.0000000000000000       0.49566852679022522        0.0000000000000000     
 PAO|LS| adapt: energies:   -7.8051885570784245       -7.8052002407000458        0.0000000000000000     
 PAO| ======================= Iteration:        31 =============================

     Lanczos converged:  T threshold:   0.100E-02
     Est. extremal eigenvalues:    0.276E+01   0.178E+00
     Est. condition number :    0.155E+02
     NS sqrt iter    1 1.00000000   0.704E+00       0.001       54.082
     NS sqrt iter    2 1.00000000   0.329E+00       0.001       90.734
     NS sqrt iter    3 1.00000000   0.756E-01       0.001       75.189
     NS sqrt iter    4 1.00000000   0.193E-02       0.002       63.084
     NS sqrt iter    5 1.00000000   0.671E-07       0.001       62.063
     Final NS sqrt iter    5 1.00000000   0.585E-09

     Est. extremal eigenvalues     -0.93733     1.73285  converged:  T
     TRS4 it   1 1.00000000   0.887E+00       0.001       16.128   0.100E-07
     TRS4 it   2 1.00000000   0.628E+00       0.001       32.256   0.100E-07
     TRS4 it   3 1.00000000   0.428E+00       0.001       32.256   0.100E-07
     TRS4 it   4 1.00000000   0.219E+00       0.001       32.256   0.100E-07
     TRS4 it   5 1.00000000   0.714E-01       0.001       32.256   0.100E-07
     TRS4 it   6 1.00000000   0.956E-02       0.001       32.256   0.100E-07
     TRS4 it   7 1.00000000   0.225E-03       0.001       32.256   0.100E-07
     TRS4 it   8 1.00000000   0.174E-06       0.001       32.256   0.100E-07
     TRS4 it   9 1.00000000   0.128E-12       0.001       32.256   0.100E-07
     Final TRS4 iteration    9 1.00000000   0.128E-12
     Chemical potential (mu):       0.01206
 
 PAO| energy:  -7.8052045739672087      penalty:   1.1771546247514442E-005
 PAO|LS| Need extra step
 PAO|LS| adapt:  T T F
 PAO|LS| adapt: scan_steps:    0.0000000000000000       0.99133705358045043        0.0000000000000000     
 PAO|LS| adapt: energies:   -7.8051885570784245       -7.8052045739672087        0.0000000000000000     
 PAO| ======================= Iteration:        32 =============================

     Lanczos converged:  T threshold:   0.100E-02
     Est. extremal eigenvalues:    0.276E+01   0.178E+00
     Est. condition number :    0.155E+02
     NS sqrt iter    1 1.00000000   0.703E+00       0.001       58.443
     NS sqrt iter    2 1.00000000   0.328E+00       0.001       92.352
     NS sqrt iter    3 1.00000000   0.754E-01       0.001       85.020
     NS sqrt iter    4 1.00000000   0.191E-02       0.001       76.724
     NS sqrt iter    5 1.00000000   0.658E-07       0.001       62.535
     Final NS sqrt iter    5 1.00000000   0.864E-09

     Est. extremal eigenvalues     -0.93733     1.73199  converged:  T
     TRS4 it   1 1.00000000   0.887E+00       0.000       16.128   0.100E-07
     TRS4 it   2 1.00000000   0.628E+00       0.001       32.256   0.100E-07
     TRS4 it   3 1.00000000   0.428E+00       0.001       32.256   0.100E-07
     TRS4 it   4 1.00000000   0.218E+00       0.001       32.256   0.100E-07
     TRS4 it   5 1.00000000   0.710E-01       0.001       32.256   0.100E-07
     TRS4 it   6 1.00000000   0.946E-02       0.001       32.256   0.100E-07
     TRS4 it   7 1.00000000   0.221E-03       0.001       32.256   0.100E-07
     TRS4 it   8 1.00000000   0.165E-06       0.001       32.256   0.100E-07
     TRS4 it   9 1.00000000   0.115E-12       0.001       32.256   0.100E-07
     Final TRS4 iteration    9 1.00000000   0.115E-12
     Chemical potential (mu):       0.01254
 
 PAO| energy:  -7.8051911905380242      penalty:   1.0233853123638052E-005
 PAO|LS| Need extra step
 PAO|LS| adapt:  T T T
 PAO|LS| adapt: scan_steps:    0.0000000000000000       0.99133705358045043        1.9826741071609009     
 PAO|LS| adapt: energies:   -7.8051885570784245       -7.8052045739672087       -7.8051911905380242     
 PAO|LS| adapt: suggested step_size:    1.0357353162641787     
 PAO|LS| adapt: predicted energy  -7.8052046034528990     
 PAO| ======================= Iteration:        33 =============================

     Lanczos converged:  T threshold:   0.100E-02
     Est. extremal eigenvalues:    0.276E+01   0.178E+00
     Est. condition number :    0.155E+02
     NS sqrt iter    1 1.00000000   0.704E+00       0.002       39.097
     NS sqrt iter    2 1.00000000   0.329E+00       0.001       80.403
     NS sqrt iter    3 1.00000000   0.756E-01       0.001       90.490
     NS sqrt iter    4 1.00000000   0.193E-02       0.001       78.095
     NS sqrt iter    5 1.00000000   0.670E-07       0.001       69.075
     Final NS sqrt iter    5 1.00000000   0.585E-09

     Est. extremal eigenvalues     -0.93733     1.73281  converged:  T
     TRS4 it   1 1.00000000   0.887E+00       0.000       16.128   0.100E-07
     TRS4 it   2 1.00000000   0.628E+00       0.001       32.256   0.100E-07
     TRS4 it   3 1.00000000   0.428E+00       0.001       32.256   0.100E-07
     TRS4 it   4 1.00000000   0.219E+00       0.001       32.256   0.100E-07
     TRS4 it   5 1.00000000   0.714E-01       0.001       32.256   0.100E-07
     TRS4 it   6 1.00000000   0.955E-02       0.001       32.256   0.100E-07
[...]
     NS sqrt iter    2 1.00000000   0.275E+00       0.002       68.531
     NS sqrt iter    3 1.00000000   0.485E-01       0.002       67.726
     NS sqrt iter    4 1.00000000   0.754E-03       0.002       69.512
     NS sqrt iter    5 1.00000000   0.562E-08       0.001       29.405
     Final NS sqrt iter    5 1.00000000   0.329E-09

     Est. extremal eigenvalues     -0.93701     1.62909  converged:  T
     TRS4 it   1 1.00000000   0.880E+00       0.001       16.128   0.100E-07
     TRS4 it   2 1.00000000   0.633E+00       0.001       32.256   0.100E-07
     TRS4 it   3 1.00000000   0.454E+00       0.001       32.256   0.100E-07
     TRS4 it   4 1.00000000   0.277E+00       0.001       32.256   0.100E-07
     TRS4 it   5 1.00000000   0.137E+00       0.001       32.256   0.100E-07
     TRS4 it   6 1.00000000   0.425E-01       0.001       32.256   0.100E-07
     TRS4 it   7 1.00000000   0.571E-02       0.001       32.256   0.100E-07
     TRS4 it   8 1.00000000   0.138E-03       0.001       32.256   0.100E-07
     TRS4 it   9 1.00000000   0.850E-07       0.001       32.256   0.100E-07
     TRS4 it  10 1.00000000   0.324E-13       0.001       32.256   0.100E-07
     Final TRS4 iteration   10 1.00000000   0.324E-13
     Chemical potential (mu):      -0.07496
 
 PAO| energy:  -7.8042541714218396      penalty:   2.8285259165520830E-008
 PAO|LS| Need extra step
 PAO|LS| adapt:  T T T
 PAO|LS| adapt: scan_steps:    0.0000000000000000       0.20000000000000001       0.40000000000000002     
 PAO|LS| adapt: energies:   -7.8042541667992644       -7.8042541723620591       -7.8042541714218396     
 PAO|LS| adapt: suggested step_size:   0.27108357941544797     
 PAO|LS| adapt: predicted energy  -7.8042541727727954     
 PAO| ======================= Iteration:       407 =============================

     Lanczos converged:  T threshold:   0.100E-02
     Est. extremal eigenvalues:    0.249E+01   0.191E+00
     Est. condition number :    0.131E+02
     NS sqrt iter    1 1.00000000   0.632E+00       0.002       37.655
     NS sqrt iter    2 1.00000000   0.275E+00       0.002       64.308
     NS sqrt iter    3 1.00000000   0.485E-01       0.002       65.582
     NS sqrt iter    4 1.00000000   0.754E-03       0.002       68.186
     NS sqrt iter    5 1.00000000   0.562E-08       0.001       28.778
     Final NS sqrt iter    5 1.00000000   0.329E-09

     Est. extremal eigenvalues     -0.93701     1.62909  converged:  T
     TRS4 it   1 1.00000000   0.880E+00       0.001       16.128   0.100E-07
     TRS4 it   2 1.00000000   0.633E+00       0.001       32.256   0.100E-07
     TRS4 it   3 1.00000000   0.454E+00       0.001       32.256   0.100E-07
     TRS4 it   4 1.00000000   0.277E+00       0.001       32.256   0.100E-07
     TRS4 it   5 1.00000000   0.137E+00       0.001       32.256   0.100E-07
     TRS4 it   6 1.00000000   0.425E-01       0.001       32.256   0.100E-07
     TRS4 it   7 1.00000000   0.571E-02       0.001       32.256   0.100E-07
     TRS4 it   8 1.00000000   0.138E-03       0.001       32.256   0.100E-07
     TRS4 it   9 1.00000000   0.850E-07       0.001       32.256   0.100E-07
     TRS4 it  10 1.00000000   0.326E-13       0.001       32.256   0.100E-07
     Final TRS4 iteration   10 1.00000000   0.326E-13
     Chemical potential (mu):      -0.07496
 
 PAO| energy:  -7.8042541727728070      penalty:   2.8582288738862122E-008
 PAO|CG| warming up with steepest descent
 PAO|CG| beta:    0.0000000000000000     
 PAO| norm of gradient:   1.4745812509085976E-004
 PAO| energy improvement:  -5.9735425494977790E-009
 PAO| step    407                   -7.804254173  0.922E-05  0.271E+00     0.106
 PAO| converged after          407  steps :-)
 PAO| Recalculating energy after mixing.

     Lanczos converged:  T threshold:   0.100E-02
     Est. extremal eigenvalues:    0.249E+01   0.191E+00
     Est. condition number :    0.131E+02
     NS sqrt iter    1 1.00000000   0.632E+00       0.001       43.453
     NS sqrt iter    2 1.00000000   0.275E+00       0.002       68.218
     NS sqrt iter    3 1.00000000   0.485E-01       0.002       68.505
     NS sqrt iter    4 1.00000000   0.754E-03       0.002       69.415
     NS sqrt iter    5 1.00000000   0.562E-08       0.001       29.290
     Final NS sqrt iter    5 1.00000000   0.329E-09

     Est. extremal eigenvalues     -0.93701     1.62909  converged:  T
     TRS4 it   1 1.00000000   0.880E+00       0.001       16.128   0.100E-07
     TRS4 it   2 1.00000000   0.633E+00       0.001       32.256   0.100E-07
     TRS4 it   3 1.00000000   0.454E+00       0.001       32.256   0.100E-07
     TRS4 it   4 1.00000000   0.277E+00       0.001       32.256   0.100E-07
     TRS4 it   5 1.00000000   0.137E+00       0.001       32.256   0.100E-07
     TRS4 it   6 1.00000000   0.425E-01       0.001       32.256   0.100E-07
     TRS4 it   7 1.00000000   0.571E-02       0.001       32.256   0.100E-07
     TRS4 it   8 1.00000000   0.138E-03       0.001       32.256   0.100E-07
     TRS4 it   9 1.00000000   0.850E-07       0.001       32.256   0.100E-07
     TRS4 it  10 1.00000000   0.320E-13       0.001       32.256   0.100E-07
     Final TRS4 iteration   10 1.00000000   0.320E-13
     Chemical potential (mu):      -0.07496
 
 PAO| energy:  -7.8042541712794051      penalty:   2.8896251610276105E-008
 PAO| Writing restart file.
     Est. extremal eigenvalues     -0.93701     1.62909  converged:  T
     TRS4 it   1 1.00000000   0.880E+00       0.001       16.128   0.100E-07
     TRS4 it   2 1.00000000   0.633E+00       0.001       32.256   0.100E-07
     TRS4 it   3 1.00000000   0.454E+00       0.001       32.256   0.100E-07
     TRS4 it   4 1.00000000   0.277E+00       0.001       32.256   0.100E-07
     TRS4 it   5 1.00000000   0.137E+00       0.001       32.256   0.100E-07
     TRS4 it   6 1.00000000   0.425E-01       0.001       32.256   0.100E-07
     TRS4 it   7 1.00000000   0.571E-02       0.001       32.256   0.100E-07
     TRS4 it   8 1.00000000   0.138E-03       0.001       32.256   0.100E-07
     TRS4 it   9 1.00000000   0.850E-07       0.001       32.256   0.100E-07
     TRS4 it  10 1.00000000   0.320E-13       0.001       32.256   0.100E-07
     Final TRS4 iteration   10 1.00000000   0.320E-13
     Chemical potential (mu):      -0.07496

 SCF     1       -34.450070465       -34.450070465    2.299765

*********************************************************
 Using MIXING_FRACTION=0.450 to mix KS matrix:  iscf=  2
 KS_nw=0.450*KS + 0.550*KS_old
*********************************************************
     Est. extremal eigenvalues     -0.93702     1.62909  converged:  T
     TRS4 it   1 1.00000000   0.880E+00       0.001       16.128   0.100E-07
     TRS4 it   2 1.00000000   0.633E+00       0.001       32.256   0.100E-07
     TRS4 it   3 1.00000000   0.454E+00       0.001       32.256   0.100E-07
     TRS4 it   4 1.00000000   0.277E+00       0.001       32.256   0.100E-07
     TRS4 it   5 1.00000000   0.137E+00       0.001       32.256   0.100E-07
     TRS4 it   6 1.00000000   0.425E-01       0.001       32.256   0.100E-07
     TRS4 it   7 1.00000000   0.571E-02       0.001       32.256   0.100E-07
     TRS4 it   8 1.00000000   0.138E-03       0.001       32.256   0.100E-07
     TRS4 it   9 1.00000000   0.850E-07       0.001       32.256   0.100E-07
     TRS4 it  10 1.00000000   0.322E-13       0.001       32.256   0.100E-07
     Final TRS4 iteration   10 1.00000000   0.322E-13
     Chemical potential (mu):      -0.07496

 SCF     2       -34.450070465        -0.000000000    2.376482

 PAO| Storing density matrix for ASPC guess in slot:           1

 ENERGY| Total FORCE_EVAL ( QS ) energy (a.u.):              -34.450070465002838


 -------------------------------------------------------------------------------
 -                                                                             -
 -                                DBCSR STATISTICS                             -
 -                                                                             -
 -------------------------------------------------------------------------------
 COUNTER                                    TOTAL       BLAS       SMM       ACC
 flops     5 x     5 x     4                20000     100.0%      0.0%      0.0%
 flops    13 x     5 x     4                20800     100.0%      0.0%      0.0%
 flops     5 x    13 x     4                20800     100.0%      0.0%      0.0%
 flops    13 x    13 x     4                40560     100.0%      0.0%      0.0%
 flops     4 x     4 x     5              3198720     100.0%      0.0%      0.0%
 flops     5 x     4 x     5              3913600     100.0%      0.0%      0.0%
 flops     4 x     4 x    13              4158336     100.0%      0.0%      0.0%
 flops    13 x     4 x     5              5087680     100.0%      0.0%      0.0%
 flops     5 x     4 x    13              5087680     100.0%      0.0%      0.0%
 flops     5 x     4 x     4              6301120     100.0%      0.0%      0.0%
 flops    13 x     4 x    13              6613984     100.0%      0.0%      0.0%
 flops    13 x     4 x     4              8379072     100.0%      0.0%      0.0%
 flops     4 x     4 x     4            411977472     100.0%      0.0%      0.0%
 flops inhomo. stacks                           0       0.0%      0.0%      0.0%
 flops total                       454.819824E+06     100.0%      0.0%      0.0%
 flops max/rank                    454.819824E+06     100.0%      0.0%      0.0%
 matmuls inhomo. stacks                         0       0.0%      0.0%      0.0%
 matmuls total                            3352324     100.0%      0.0%      0.0%
 number of processed stacks                 26713     100.0%      0.0%      0.0%
 average stack size                                   125.5       0.0       0.0
 marketing flops                   739.025856E+06
 -------------------------------------------------------------------------------
 # multiplications                          22303
 max memory usage/rank             327.720960E+06
 # max total images/rank                        1
 # max 3D layers                                1
 # MPI messages exchanged                       0
 MPI messages size (bytes):
  total size                         0.000000E+00
  min size                           0.000000E+00
  max size                           0.000000E+00
  average size                       0.000000E+00
 MPI breakdown and total messages size (bytes):
             size <=      128                   0                        0
       128 < size <=     8192                   0                        0
      8192 < size <=    32768                   0                        0
     32768 < size <=   131072                   0                        0
    131072 < size <=  4194304                   0                        0
   4194304 < size <= 16777216                   0                        0
  16777216 < size                               0                        0
 -------------------------------------------------------------------------------

 MEMORY| Estimated peak process memory [MiB]                                 313

 -------------------------------------------------------------------------------
 -                                                                             -
 -                           R E F E R E N C E S                               -
 -                                                                             -
 -------------------------------------------------------------------------------
 
 CP2K version 7.0 (Development Version), the CP2K developers group (2018).
 CP2K is freely available from https://www.cp2k.org/ .

 Schuett, O; VandeVondele, J. 
 Journal of Chemical Theory and Computation, 14, (2018). 
 Machine Learning Adaptive Basis Sets for Efficient Large Scale Density Functional Theory Simulation.
 https://dx.doi.org/10.1021/acs.jctc.8b00378


 Schuett, Ole; Messmer, Peter; Hutter, Juerg; VandeVondele, Joost. 
 Electronic Structure Calculations on Graphics Processing Units, John Wiley & Sons, Ltd, 173-190 (2016). 
 GPU-Accelerated Sparse Matrix-Matrix Multiplication for Linear Scaling Density Functional Theory.
 https://dx.doi.org/10.1002/9781118670712.ch8


 Borstnik, U; VandeVondele, J; Weber, V; Hutter, J. 
 PARALLEL COMPUTING, 40 (5-6), 47-58 (2014). 
 Sparse matrix multiplication: The distributed block-compressed sparse
 row library.
 https://dx.doi.org/10.1016/j.parco.2014.03.012


 Hutter, J; Iannuzzi, M; Schiffmann, F; VandeVondele, J. 
 WILEY INTERDISCIPLINARY REVIEWS-COMPUTATIONAL MOLECULAR SCIENCE, 4 (1), 15-25 (2014). 
 CP2K: atomistic simulations of condensed matter systems.
 https://dx.doi.org/10.1002/wcms.1159


 VandeVondele, J; Borstnik, U; Hutter, J. 
 JOURNAL OF CHEMICAL THEORY AND COMPUTATION, 8 (10), 3565-3573 (2012). 
 Linear Scaling Self-Consistent Field Calculations with Millions of Atoms
 in the Condensed Phase.
 https://dx.doi.org/10.1021/ct200897x


 VandeVondele, J; Hutter, J. 
 JOURNAL OF CHEMICAL PHYSICS, 127 (11), 114105 (2007). 
 Gaussian basis sets for accurate calculations on molecular systems in
 gas and condensed phases.
 https://dx.doi.org/10.1063/1.2770708


 Krack, M. 
 THEORETICAL CHEMISTRY ACCOUNTS, 114 (1-3), 145-152 (2005). 
 Pseudopotentials for H to Kr optimized for gradient-corrected
 exchange-correlation functionals.
 https://dx.doi.org/10.1007/s00214-005-0655-y


 VandeVondele, J; Krack, M; Mohamed, F; Parrinello, M; Chassaing, T;
 Hutter, J. COMPUTER PHYSICS COMMUNICATIONS, 167 (2), 103-128 (2005). 
 QUICKSTEP: Fast and accurate density functional calculations using a
 mixed Gaussian and plane waves approach.
 https://dx.doi.org/10.1016/j.cpc.2004.12.014


 Frigo, M; Johnson, SG. 
 PROCEEDINGS OF THE IEEE, 93 (2), 216-231 (2005). 
 The design and implementation of FFTW3.
 https://dx.doi.org/10.1109/JPROC.2004.840301


 Niklasson, AMN; Tymczak, CJ; Challacombe, M. 
 JOURNAL OF CHEMICAL PHYSICS, 118 (19), 8611-8620 (2003). 
 Trace resetting density matrix purification in O(N)
 self-consistent-field theory.
 https://dx.doi.org/10.1063/1.1559913


 Hartwigsen, C; Goedecker, S; Hutter, J. 
 PHYSICAL REVIEW B, 58 (7), 3641-3662 (1998). 
 Relativistic separable dual-space Gaussian pseudopotentials from H to Rn.
 https://dx.doi.org/10.1103/PhysRevB.58.3641


 Lippert, G; Hutter, J; Parrinello, M. 
 MOLECULAR PHYSICS, 92 (3), 477-487 (1997). 
 A hybrid Gaussian and plane wave density functional scheme.
 https://dx.doi.org/10.1080/002689797170220


 Perdew, JP; Burke, K; Ernzerhof, M. 
 PHYSICAL REVIEW LETTERS, 77 (18), 3865-3868 (1996). 
 Generalized gradient approximation made simple.
 https://dx.doi.org/10.1103/PhysRevLett.77.3865


 Goedecker, S; Teter, M; Hutter, J. 
 PHYSICAL REVIEW B, 54 (3), 1703-1710 (1996). 
 Separable dual-space Gaussian pseudopotentials.
 https://dx.doi.org/10.1103/PhysRevB.54.1703


 -------------------------------------------------------------------------------
 -                                                                             -
 -                                T I M I N G                                  -
 -                                                                             -
 -------------------------------------------------------------------------------
 SUBROUTINE                       CALLS  ASD         SELF TIME        TOTAL TIME
                                MAXIMUM       AVERAGE  MAXIMUM  AVERAGE  MAXIMUM
 CP2K                                 1  1.0    0.039    0.039   32.844   32.844
 qs_energies                          1  2.0    0.000    0.000   32.293   32.293
 ls_scf                               1  3.0    0.000    0.000   32.154   32.154
 ls_scf_main                          4  4.0    0.001    0.001   20.149   20.149
 ls_scf_dm_to_ks                      9  5.0    0.000    0.000   20.029   20.029
 qs_ks_update_qs_env                 10  6.0    0.000    0.000   15.964   15.964
 rebuild_ks_matrix                   10  7.0    0.000    0.000   15.964   15.964
 qs_ks_build_kohn_sham_matrix        10  8.0    0.001    0.001   15.964   15.964
 qs_vxc_create                       10  9.0    0.000    0.000    9.557    9.557
 xc_vxc_pw_create                    10 10.0    0.119    0.119    9.557    9.557
 pao_update                           4  4.0    0.010    0.010    9.469    9.469
 pao_calc_energy                    410  5.0    0.004    0.004    8.524    8.524
 dbcsr_multiply_generic           22303  8.4    0.460    0.460    7.377    7.377
 xc_rho_set_and_dset_create          10 11.0    0.033    0.033    7.090    7.090
 qs_rho_update_rho                   10  6.0    0.000    0.000    6.518    6.518
 calculate_rho_elec                  10  7.0    5.193    5.193    6.518    6.518
 pw_transfer                        191 10.6    0.013    0.013    6.346    6.346
 fft_wrap_pw1pw2                    171 11.7    0.002    0.002    6.242    6.242
 fft_wrap_pw1pw2_200                111 12.8    0.335    0.335    5.965    5.965
 sum_up_and_integrate                10  9.0    0.018    0.018    5.446    5.446
 integrate_v_rspace                  10 10.0    4.693    4.693    5.428    5.428
 xc_functional_eval                  10 12.0    0.000    0.000    5.024    5.024
 pbe_lda_eval                        10 13.0    5.024    5.024    5.024    5.024
 pao_dm_trs4                        410  6.0    0.003    0.003    4.381    4.381
 density_matrix_trs4                419  7.0    0.166    0.166    4.243    4.243
 ls_scf_init_matrix_S               414  7.0    0.004    0.004    4.146    4.146
 pao_rebuild_S                      410  6.0    0.002    0.002    4.103    4.103
 matrix_sqrt_Newton_Schulz          414  8.0    0.105    0.105    3.728    3.728
 multiply_cannon                  22303  9.4    1.211    1.211    3.458    3.458
 fft3d_s                            172 13.6    3.378    3.378    3.394    3.394
 pao_guess_initial_P                  1  4.0    0.000    0.000    2.459    2.459
 pao_read_preopt_dm                   1  5.0    0.000    0.000    2.459    2.459
 make_m2s                         44606  9.4    0.177    0.177    2.351    2.351
 make_images                      44606 10.4    0.561    0.561    2.066    2.066
 pw_gather_s                         81 13.1    1.415    1.415    1.415    1.415
 density_rs2pw                       10  8.0    0.001    0.001    1.311    1.311
 multiply_cannon_multrec          22303 10.4    1.176    1.176    1.289    1.289
 pw_scatter_s                        90 14.2    1.083    1.083    1.083    1.083
 arnoldi_extremal                   833  8.5    0.004    0.004    0.994    0.994
 arnoldi_normal_ev                  833  9.5    0.012    0.012    0.990    0.990
 pao_calc_AB                        541  5.8    0.001    0.001    0.926    0.926
 pao_calc_AB_direct                 541  6.8    0.025    0.025    0.925    0.925
 pao_calc_grad_lnv_wrt_AB           130  7.0    0.007    0.007    0.874    0.874
 build_subspace                     833 10.5    0.054    0.054    0.741    0.741
 potential_pw2rs                     10 11.0    0.002    0.002    0.734    0.734
 dbcsr_finalize                   52986  9.6    0.114    0.114    0.675    0.675
 dbcsr_matrix_vector_mult         19977 11.5    0.106    0.106    0.664    0.664
 -------------------------------------------------------------------------------

 The number of warnings for this run is : 0
 
 -------------------------------------------------------------------------------
  **** **** ******  **  PROGRAM ENDED AT                 2019-03-28 17:33:58.860
 ***** ** ***  *** **   PROGRAM RAN ON            oleschuett.zrh.corp.google.com
 **    ****   ******    PROGRAM RAN BY                                oleschuett
 ***** **    ** ** **   PROGRAM PROCESS ID                                 34013
  **** **  *******  **  PROGRAM STOPPED IN /usr/local/google/home/oleschuett/git
                                           /pao_ml_equivar/2H2O_rotations/phi_30
