6
Properties=species:S:1:pos:R:3 i=0 time=0.0 E=-34.4504806384 pbc="F F F"
O       -1.69757877       4.58592821       4.35000000
H       -2.41479728       4.52859927       3.71000000
H       -1.20311620       3.76568449       4.25600000
O        0.08111911       6.89333083       3.63500000
H        0.14262855       7.51577889       4.36500000
H       -0.50609933       6.18745584       3.94700000
