6
Properties=species:S:1:pos:R:3 i=0 time=0.0 E=-34.4504806384 pbc="F F F"
O       2.10182425      -4.41529683       4.35000000 
H       2.81101653      -4.29390770       3.71000000 
H       1.53582617      -3.64267844       4.25600000 
O       0.53712086      -6.87285177       3.63500000 
H       0.53165485      -7.49830770       4.36500000 
H       1.05870118      -6.11718056       3.94700000 
