 DBCSR| CPU Multiplication driver                                           XSMM (U)
 DBCSR| Multrec recursion limit                                              512 (U)
 DBCSR| Multiplication stack size                                           1000 (D)
 DBCSR| Maximum elements for images                                    UNLIMITED (U)
 DBCSR| Multiplicative factor virtual images                                   1 (U)
 DBCSR| Use multiplication densification                                       T (D)
 DBCSR| Multiplication size stacks                                             3 (U)
 DBCSR| Use memory pool for CPU allocation                                     F (U)
 DBCSR| Number of 3D layers                                               SINGLE (U)
 DBCSR| Use MPI memory allocation                                              F (U)
 DBCSR| Use RMA algorithm                                                      F (U)
 DBCSR| Use Communication thread                                               T (U)
 DBCSR| Communication thread load                                             87 (D)
 DBCSR| MPI: My process id                                                     0
 DBCSR| MPI: Number of processes                                              32
 DBCSR| OMP: Current number of threads                                         1
 DBCSR| OMP: Max number of threads                                             1
 DBCSR| Split modifier for TAS multiplication algorithm                  1.0E+00 (U)


  **** **** ******  **  PROGRAM STARTED AT               2024-09-23 17:45:28.979
 ***** ** ***  *** **   PROGRAM STARTED ON                                moritz
 **    ****   ******    PROGRAM STARTED BY                                   ole
 ***** **    ** ** **   PROGRAM PROCESS ID                                159113
  **** **  *******  **  PROGRAM STARTED IN /home/ole/git/pao_ml_equivar/64H2O_MD
                                           /Frame4500

 CP2K| version string:                 CP2K version 2024.3 (Development Version)
 CP2K| source code revision number:                                  git:3f890bb
 CP2K| cp2kflags: omp libint fftw3 libxc libgrpp pexsi elpa parallel scalapack c
 CP2K|            osma quip deepmd xsmm plumed2 spglib libdftd4 sirius libvori l
 CP2K|            libbqb libvdwxc hdf5
 CP2K| is freely available from                            https://www.cp2k.org/
 CP2K| Program compiled at                          Mo 23 Sep 2024 17:17:04 CEST
 CP2K| Program compiled on                                                moritz
 CP2K| Program compiled for                                                local
 CP2K| Data directory path                               /home/ole/git/cp2k/data
 CP2K| Input file name                                             64H2O_ref.inp

 GLOBAL| Force Environment number                                              1
 GLOBAL| Basis set file name                                        BASIS_MOLOPT
 GLOBAL| Potential file name                                      GTH_POTENTIALS
 GLOBAL| MM Potential file name                                     MM_POTENTIAL
 GLOBAL| Coordinate file name                                         coords.xyz
 GLOBAL| Method name                                                        CP2K
 GLOBAL| Project name                                                  64H2O_ref
 GLOBAL| Run type                                                         ENERGY
 GLOBAL| FFT library                                                       FFTW3
 GLOBAL| Diagonalization library                                            ELPA
 GLOBAL| DGEMM library                                                      BLAS
 GLOBAL| Minimum number of eigenvectors for ELPA usage                        16
 GLOBAL| Orthonormality check for eigenvectors                          DISABLED
 GLOBAL| Matrix multiplication library                                     COSMA
 GLOBAL| All-to-all communication in single precision                          F
 GLOBAL| FFTs using library dependent lengths                                  F
 GLOBAL| Grid backend                                                       AUTO
 GLOBAL| Global print level                                                  LOW
 GLOBAL| MPI I/O enabled                                                       T
 GLOBAL| Total number of message passing processes                            32
 GLOBAL| Number of threads for this process                                    1
 GLOBAL| This output is from process                                           0
 GLOBAL| Stack size for threads created by OpenMP (OMP_STACKSIZE)        default
 GLOBAL| CPU model name           AMD Ryzen Threadripper 3970X 32-Core Processor
 GLOBAL| CPUID                                                              1002

 MEMORY| system memory details [Kb]
 MEMORY|                        rank 0           min           max       average
 MEMORY| MemTotal            131752136     131752136     131752136     131752136
 MEMORY| MemFree             118059892     118059892     118059892     118059892
 MEMORY| Buffers                260476        260476        260476        260476
 MEMORY| Cached                7477564       7477564       7477564       7477564
 MEMORY| Slab                   719752        719752        719752        719752
 MEMORY| SReclaimable           281704        281704        281704        281704
 MEMORY| MemLikelyFree       126079636     126079636     126079636     126079636


 GENERATE|  Preliminary Number of Bonds generated:                             0
 GENERATE|  Achieved consistency in connectivity generation.

 *******************************************************************************
 *******************************************************************************
 **                                                                           **
 **     #####                         ##              ##                      **
 **    ##   ##            ##          ##              ##                      **
 **   ##     ##                       ##            ######                    **
 **   ##     ##  ##   ##  ##   #####  ##  ##   ####   ##    #####    #####    **
 **   ##     ##  ##   ##  ##  ##      ## ##   ##      ##   ##   ##  ##   ##   **
 **   ##  ## ##  ##   ##  ##  ##      ####     ###    ##   ######   ######    **
 **    ##  ###   ##   ##  ##  ##      ## ##      ##   ##   ##       ##        **
 **     #######   #####   ##   #####  ##  ##  ####    ##    #####   ##        **
 **           ##                                                    ##        **
 **                                                                           **
 **                                                ... make the atoms dance   **
 **                                                                           **
 **            Copyright (C) by CP2K developers group (2000-2024)             **
 **                      J. Chem. Phys. 152, 194103 (2020)                    **
 **                                                                           **
 *******************************************************************************


 TOTAL NUMBERS AND MAXIMUM NUMBERS

  Total number of            - Atomic kinds:                                   2
                             - Atoms:                                        192
                             - Shell sets:                                   192
                             - Shells:                                       704
                             - Primitive Cartesian functions:               1344
                             - Cartesian basis functions:                   1536
                             - Spherical basis functions:                   1472

  Maximum angular momentum of- Orbital basis functions:                        2
                             - Local part of the GTH pseudopotential:          2
                             - Non-local part of the GTH pseudopotential:      0

 ------------------------------ Linear scaling SCF -----------------------------
 eps_scf:                                                              0.100E-07
 eps_filter:                                                           0.100E-11
 mixing_fraction:                                                      0.450E+00
 max_scf:                                                                     25
 fixed chemical potential (mu)                                                 F
 has unit metric:                                                              F
 Computing inv(S):                                                             T
 Computing sqrt(S):                                                            T
 Computing S preconditioner                                                    F
 S sqrt method:                                                     NEWTONSCHULZ
 S sqrt order:                                                                 3
 Extrapolation order:                                                          1
 S preconditioner type                                                      NONE
 Polarized Atomic Orbitals (PAO)                                               F
 Purification method                                   Trace resetting 4th order
 Cluster type                                                             ATOMIC
 Computing Chebyshev                                                       FALSE
 Using PAO                                                                     F
 -------------------------------------------------------------------------------


     Lanczos converged:  F threshold:   0.100E-02
     Est. extremal eigenvalues:    0.862E+01   0.559E-02
     Est. condition number :    0.154E+04

 Order=           3
     NS sqrt iter    1 1.00000000   0.222E+01       0.065     6151.904
     NS sqrt iter    2 1.00000000   0.117E+01       0.099     8035.909
     NS sqrt iter    3 1.00000000   0.580E+00       0.099     8039.004
     NS sqrt iter    4 1.00000000   0.335E+00       0.099     8022.189
     NS sqrt iter    5 1.00000000   0.225E+00       0.099     8058.092
     NS sqrt iter    6 1.00000000   0.106E+00       0.098     8096.402
     NS sqrt iter    7 1.00000000   0.134E-01       0.098     8101.354
     NS sqrt iter    8 1.00000000   0.761E-04       0.098     8149.855
     NS sqrt iter    9 1.00000000   0.800E-10       0.064     5908.953
     Symmetrizing Results
     Final NS sqrt iter    9 1.00000000   0.720E-11



 Guess for atomic kind: O

 Electronic structure
    Total number of core electrons                                          2.00
    Total number of valence electrons                                       6.00
    Total number of electrons                                               8.00
    Multiplicity                                                   not specified
    S   [  2.00] 2.00
    P      4.00


 *******************************************************************************
                  Iteration          Convergence                     Energy [au]
 *******************************************************************************
                          1        0.708315                     -15.576645311500
                          2        0.608879                     -15.587933561584
                          3        0.102828E-01                 -15.656849565404
                          4        0.113889E-02                 -15.656866888140
                          5        0.434197E-03                 -15.656867072159
                          6        0.263771E-03                 -15.656867091904
                          7        0.478536E-06                 -15.656867103452

 Energy components [Hartree]           Total Energy ::          -15.656867103452
                                        Band Energy ::           -3.000198112285
                                     Kinetic Energy ::           11.759971203220
                                   Potential Energy ::          -27.416838306672
                                      Virial (-V/T) ::            2.331369510426
                                        Core Energy ::          -26.140716385623
                                          XC Energy ::           -3.154051012914
                                     Coulomb Energy ::           13.637900295084
                       Total Pseudopotential Energy ::          -37.935781716540
                       Local Pseudopotential Energy ::          -39.218907440693
                    Nonlocal Pseudopotential Energy ::            1.283125724153
                                        Confinement ::            0.350941276976

 Orbital energies  State     L     Occupation   Energy[a.u.]          Energy[eV]

                       1     0          2.000      -0.864471          -23.523463

                       1     1          4.000      -0.317814           -8.648154


 Total Electron Density at R=0:                                         0.000068

 Guess for atomic kind: H

 Electronic structure
    Total number of core electrons                                          0.00
    Total number of valence electrons                                       1.00
    Total number of electrons                                               1.00
    Multiplicity                                                   not specified
    S      1.00


 *******************************************************************************
                  Iteration          Convergence                     Energy [au]
 *******************************************************************************
                          1        0.437545E-02                  -0.424159432110
                          2        0.531356E-03                  -0.424178438213
                          3        0.259176E-06                  -0.424178722480

 Energy components [Hartree]           Total Energy ::           -0.424178722480
                                        Band Energy ::           -0.199015229016
                                     Kinetic Energy ::            0.464007633961
                                   Potential Energy ::           -0.888186356441
                                      Virial (-V/T) ::            1.914163240935
                                        Core Energy ::           -0.479160803564
                                          XC Energy ::           -0.244352904054
                                     Coulomb Energy ::            0.299334985138
                       Total Pseudopotential Energy ::           -0.962295316385
                       Local Pseudopotential Energy ::           -0.962295316385
                    Nonlocal Pseudopotential Energy ::            0.000000000000
                                        Confinement ::            0.191268788606

 Orbital energies  State     L     Occupation   Energy[a.u.]          Energy[eV]

                       1     0          1.000      -0.199015           -5.415480


 Total Electron Density at R=0:                                         0.242907
 Re-scaling the density matrix to get the right number of electrons
                  # Electrons              Trace(P)               Scaling factor
                          512               512.001                        1.000
 Energy with the initial guess:     -1095.931315774

     Est. extremal eigenvalues     -0.93785     5.19848  converged:  F
     TRS4 it   1 1.00000000   0.565E+02       0.019     5253.348   0.100E-11
     TRS4 it   2 1.00000000   0.536E+02       0.019     5341.190   0.100E-11
     TRS4 it   3 1.00000000   0.336E+02       0.037     5476.269   0.100E-11
     TRS4 it   4 1.00000000   0.176E+02       0.037     5419.150   0.100E-11
     TRS4 it   5 1.00000000   0.106E+02       0.037     5472.585   0.100E-11
     TRS4 it   6 1.00000000   0.478E+01       0.035     5660.091   0.100E-11
     TRS4 it   7 1.00000000   0.140E+01       0.036     5545.020   0.100E-11
     TRS4 it   8 1.00000000   0.209E+00       0.036     5578.599   0.100E-11
     TRS4 it   9 1.00000000   0.862E-02       0.036     5534.446   0.100E-11
     TRS4 it  10 1.00000000   0.223E-04       0.036     5530.589   0.100E-11
     TRS4 it  11 1.00000000   0.551E-10       0.037     5475.423   0.100E-11
     Final TRS4 iteration   11 1.00000000   0.551E-10
     Chemical potential (mu):      -0.10571

 SCF     1     -1098.013877232     -1098.013877232    2.064923

*********************************************************
 Using MIXING_FRACTION=0.450 to mix KS matrix:  iscf=  2
 KS_nw=0.450*KS + 0.550*KS_old
*********************************************************
     Est. extremal eigenvalues     -0.82891     5.29007  converged:  F
     TRS4 it   1 1.00000000   0.557E+02       0.019     5380.078   0.100E-11
     TRS4 it   2 1.00000000   0.539E+02       0.019     5284.627   0.100E-11
     TRS4 it   3 1.00000000   0.348E+02       0.036     5595.509   0.100E-11
     TRS4 it   4 1.00000000   0.183E+02       0.036     5532.367   0.100E-11
     TRS4 it   5 1.00000000   0.118E+02       0.036     5518.572   0.100E-11
     TRS4 it   6 1.00000000   0.614E+01       0.036     5550.972   0.100E-11
     TRS4 it   7 1.00000000   0.244E+01       0.036     5498.617   0.100E-11
     TRS4 it   8 1.00000000   0.670E+00       0.036     5520.939   0.100E-11
     TRS4 it   9 1.00000000   0.101E+00       0.037     5494.535   0.100E-11
     TRS4 it  10 1.00000000   0.546E-02       0.036     5501.411   0.100E-11
     TRS4 it  11 1.00000000   0.112E-04       0.036     5547.399   0.100E-11
     TRS4 it  12 1.00000000   0.484E-10       0.037     5482.142   0.100E-11
     Final TRS4 iteration   12 1.00000000   0.484E-10
     Chemical potential (mu):      -0.01606

 SCF     2     -1102.984734144        -4.970856912    2.100523

*********************************************************
 Using MIXING_FRACTION=0.450 to mix KS matrix:  iscf=  3
 KS_nw=0.450*KS + 0.550*KS_old
*********************************************************
     Est. extremal eigenvalues     -0.84116     5.28229  converged:  T
     TRS4 it   1 1.00000000   0.559E+02       0.019     5361.996   0.100E-11
     TRS4 it   2 1.00000000   0.538E+02       0.019     5315.282   0.100E-11
     TRS4 it   3 1.00000000   0.347E+02       0.036     5520.805   0.100E-11
     TRS4 it   4 1.00000000   0.183E+02       0.036     5643.327   0.100E-11
     TRS4 it   5 1.00000000   0.117E+02       0.036     5570.789   0.100E-11
     TRS4 it   6 1.00000000   0.597E+01       0.036     5579.925   0.100E-11
     TRS4 it   7 1.00000000   0.229E+01       0.035     5653.035   0.100E-11
     TRS4 it   8 1.00000000   0.592E+00       0.036     5610.340   0.100E-11
     TRS4 it   9 1.00000000   0.783E-01       0.036     5593.029   0.100E-11
     TRS4 it  10 1.00000000   0.305E-02       0.036     5568.623   0.100E-11
     TRS4 it  11 1.00000000   0.310E-05       0.036     5518.303   0.100E-11
     TRS4 it  12 1.00000000   0.376E-11       0.036     5605.090   0.100E-11
     Final TRS4 iteration   12 1.00000000   0.376E-11
     Chemical potential (mu):      -0.02520

 SCF     3     -1103.141313411        -0.156579267    2.086123

*********************************************************
 Using MIXING_FRACTION=0.450 to mix KS matrix:  iscf=  4
 KS_nw=0.450*KS + 0.550*KS_old
*********************************************************
     Est. extremal eigenvalues     -0.83574     5.28742  converged:  T
     TRS4 it   1 1.00000000   0.559E+02       0.019     5256.409   0.100E-11
     TRS4 it   2 1.00000000   0.538E+02       0.019     5329.372   0.100E-11
     TRS4 it   3 1.00000000   0.347E+02       0.037     5423.426   0.100E-11
     TRS4 it   4 1.00000000   0.183E+02       0.036     5635.504   0.100E-11
     TRS4 it   5 1.00000000   0.117E+02       0.037     5433.619   0.100E-11
     TRS4 it   6 1.00000000   0.604E+01       0.036     5532.715   0.100E-11
     TRS4 it   7 1.00000000   0.235E+01       0.036     5588.841   0.100E-11
     TRS4 it   8 1.00000000   0.626E+00       0.036     5594.286   0.100E-11
     TRS4 it   9 1.00000000   0.890E-01       0.036     5575.951   0.100E-11
     TRS4 it  10 1.00000000   0.417E-02       0.036     5545.772   0.100E-11
     TRS4 it  11 1.00000000   0.732E-05       0.036     5523.269   0.100E-11
     TRS4 it  12 1.00000000   0.275E-10       0.037     5440.530   0.100E-11
     Final TRS4 iteration   12 1.00000000   0.275E-10
     Chemical potential (mu):      -0.01858

 SCF     4     -1103.149258146        -0.007944735    2.088417

*********************************************************
 Using MIXING_FRACTION=0.450 to mix KS matrix:  iscf=  5
 KS_nw=0.450*KS + 0.550*KS_old
*********************************************************
     Est. extremal eigenvalues     -0.83509     5.28832  converged:  T
     TRS4 it   1 1.00000000   0.559E+02       0.018     5509.852   0.100E-11
     TRS4 it   2 1.00000000   0.538E+02       0.019     5384.065   0.100E-11
     TRS4 it   3 1.00000000   0.347E+02       0.036     5503.696   0.100E-11
     TRS4 it   4 1.00000000   0.183E+02       0.036     5587.742   0.100E-11
     TRS4 it   5 1.00000000   0.117E+02       0.036     5508.657   0.100E-11
     TRS4 it   6 1.00000000   0.604E+01       0.036     5555.822   0.100E-11
     TRS4 it   7 1.00000000   0.235E+01       0.036     5602.828   0.100E-11
     TRS4 it   8 1.00000000   0.627E+00       0.036     5604.980   0.100E-11
     TRS4 it   9 1.00000000   0.892E-01       0.036     5576.386   0.100E-11
     TRS4 it  10 1.00000000   0.419E-02       0.036     5624.867   0.100E-11
     TRS4 it  11 1.00000000   0.751E-05       0.036     5578.867   0.100E-11
     TRS4 it  12 1.00000000   0.298E-10       0.036     5605.127   0.100E-11
     Final TRS4 iteration   12 1.00000000   0.298E-10
     Chemical potential (mu):      -0.01774

 SCF     5     -1103.149909277        -0.000651130    2.084067

*********************************************************
 Using MIXING_FRACTION=0.450 to mix KS matrix:  iscf=  6
 KS_nw=0.450*KS + 0.550*KS_old
*********************************************************
     Est. extremal eigenvalues     -0.83431     5.28904  converged:  T
     TRS4 it   1 1.00000000   0.559E+02       0.019     5293.959   0.100E-11
     TRS4 it   2 1.00000000   0.538E+02       0.019     5258.732   0.100E-11
     TRS4 it   3 1.00000000   0.347E+02       0.037     5420.684   0.100E-11
     TRS4 it   4 1.00000000   0.184E+02       0.036     5617.430   0.100E-11
     TRS4 it   5 1.00000000   0.118E+02       0.036     5557.759   0.100E-11
     TRS4 it   6 1.00000000   0.605E+01       0.035     5657.566   0.100E-11
     TRS4 it   7 1.00000000   0.236E+01       0.036     5549.142   0.100E-11
     TRS4 it   8 1.00000000   0.631E+00       0.036     5619.844   0.100E-11
     TRS4 it   9 1.00000000   0.906E-01       0.036     5515.427   0.100E-11
     TRS4 it  10 1.00000000   0.436E-02       0.036     5583.301   0.100E-11
     TRS4 it  11 1.00000000   0.842E-05       0.036     5611.354   0.100E-11
     TRS4 it  12 1.00000000   0.390E-10       0.036     5563.511   0.100E-11
     Final TRS4 iteration   12 1.00000000   0.390E-10
     Chemical potential (mu):      -0.01670

 SCF     6     -1103.150008215        -0.000098938    2.166925

*********************************************************
 Using MIXING_FRACTION=0.450 to mix KS matrix:  iscf=  7
 KS_nw=0.450*KS + 0.550*KS_old
*********************************************************
     Est. extremal eigenvalues     -0.83395     5.28937  converged:  T
     TRS4 it   1 1.00000000   0.559E+02       0.018     5480.270   0.100E-11
     TRS4 it   2 1.00000000   0.538E+02       0.018     5454.006   0.100E-11
     TRS4 it   3 1.00000000   0.347E+02       0.036     5582.361   0.100E-11
     TRS4 it   4 1.00000000   0.184E+02       0.036     5617.399   0.100E-11
     TRS4 it   5 1.00000000   0.118E+02       0.036     5635.039   0.100E-11
     TRS4 it   6 1.00000000   0.605E+01       0.035     5654.219   0.100E-11
     TRS4 it   7 1.00000000   0.236E+01       0.035     5685.343   0.100E-11
     TRS4 it   8 1.00000000   0.632E+00       0.036     5532.767   0.100E-11
     TRS4 it   9 1.00000000   0.910E-01       0.036     5565.728   0.100E-11
     TRS4 it  10 1.00000000   0.439E-02       0.036     5575.254   0.100E-11
     TRS4 it  11 1.00000000   0.865E-05       0.036     5548.125   0.100E-11
     TRS4 it  12 1.00000000   0.416E-10       0.036     5554.880   0.100E-11
     Final TRS4 iteration   12 1.00000000   0.416E-10
     Chemical potential (mu):      -0.01633

 SCF     7     -1103.150029152        -0.000020937    2.084011

*********************************************************
 Using MIXING_FRACTION=0.450 to mix KS matrix:  iscf=  8
 KS_nw=0.450*KS + 0.550*KS_old
*********************************************************
     Est. extremal eigenvalues     -0.83375     5.28953  converged:  T
     TRS4 it   1 1.00000000   0.559E+02       0.019     5270.933   0.100E-11
     TRS4 it   2 1.00000000   0.538E+02       0.018     5431.631   0.100E-11
     TRS4 it   3 1.00000000   0.347E+02       0.036     5538.609   0.100E-11
     TRS4 it   4 1.00000000   0.184E+02       0.036     5642.251   0.100E-11
     TRS4 it   5 1.00000000   0.118E+02       0.036     5641.170   0.100E-11
     TRS4 it   6 1.00000000   0.605E+01       0.036     5570.059   0.100E-11
     TRS4 it   7 1.00000000   0.236E+01       0.036     5630.649   0.100E-11
     TRS4 it   8 1.00000000   0.633E+00       0.036     5558.447   0.100E-11
     TRS4 it   9 1.00000000   0.912E-01       0.036     5606.429   0.100E-11
     TRS4 it  10 1.00000000   0.443E-02       0.036     5588.765   0.100E-11
     TRS4 it  11 1.00000000   0.884E-05       0.036     5626.380   0.100E-11
     TRS4 it  12 1.00000000   0.438E-10       0.036     5582.063   0.100E-11
     Final TRS4 iteration   12 1.00000000   0.438E-10
     Chemical potential (mu):      -0.01608

 SCF     8     -1103.150034175        -0.000005023    2.082515


 SCF run converged in     8 steps.

 Writing restart DM 64H2O_ref_LS_DM_SPIN_1_RESTART.dm with checksum:       0.62063902E+04

 ENERGY| Total FORCE_EVAL ( QS ) energy [a.u.]:            -1103.150034174524762

 -------------------------------------------------------------------------------
 -                                                                             -
 -                                DBCSR STATISTICS                             -
 -                                                                             -
 -------------------------------------------------------------------------------
 COUNTER                                    TOTAL       BLAS       SMM       ACC
 flops     5 x     5 x     5          79375094250       0.0%    100.0%      0.0%     
 flops    13 x     5 x     5         102782187950       0.0%    100.0%      0.0%     
 flops     5 x    13 x     5         102789970400       0.0%    100.0%      0.0%     
 flops     5 x     5 x    13         103303669950       0.0%    100.0%      0.0%     
 flops    13 x     5 x    13         133778655920       0.0%    100.0%      0.0%     
 flops     5 x    13 x    13         133814818540       0.0%    100.0%      0.0%     
 flops    13 x    13 x     5         134953792350       0.0%    100.0%      0.0%     
 flops    13 x    13 x    13         175695500474       0.0%    100.0%      0.0%     
 flops inhomo. stacks                           0       0.0%      0.0%      0.0%
 flops total                       966.493690E+09       0.0%    100.0%      0.0%
 flops max/rank                     30.998125E+09       0.0%    100.0%      0.0%
 matmuls inhomo. stacks                         0       0.0%      0.0%      0.0%
 matmuls total                         1070872929       0.0%    100.0%      0.0%
 number of processed stacks               1515868       0.0%    100.0%      0.0%
 average stack size                                     0.0     706.4       0.0
 marketing flops                     1.569237E+12
 -------------------------------------------------------------------------------
 # multiplications                            246
 max memory usage/rank             619.175936E+06
 # max total images/rank                        2
 # max 3D layers                                1
 # MPI messages exchanged                  102336
 MPI messages size (bytes):
  total size                        42.354196E+09
  min size                           0.000000E+00
  max size                         541.696000E+03
  average size                     413.873875E+03
 MPI breakdown and total messages size (bytes):
             size <=      128                 312                        0
       128 < size <=     8192                  42                   279312
      8192 < size <=    32768                  62                   841968
     32768 < size <=   131072                   0                        0
    131072 < size <=  4194304              101920              42353074240
   4194304 < size <= 16777216                   0                        0
  16777216 < size                               0                        0
 -------------------------------------------------------------------------------

 *** WARNING in dbcsr_mm.F:301 :: Using a non-square number of MPI ranks ***
 *** might lead to poor performance. Used ranks: 32 Suggested: 36 64     ***

 -------------------------------------------------------------------------------
 -                                                                             -
 -                      DBCSR MESSAGE PASSING PERFORMANCE                      -
 -                                                                             -
 -------------------------------------------------------------------------------
 ROUTINE             CALLS      AVE VOLUME [Bytes]
 MP_Bcast                9                     12.
 MP_Allreduce         1762                     34.
 MP_Alltoall           546                  34827.
 MP_ISend             8604                 170726.
 MP_IRecv             8238                 178927.
 -------------------------------------------------------------------------------

 -------------------------------------------------------------------------------
 -                                                                             -
 -                                DBM STATISTICS                               -
 -                                                                             -
 -------------------------------------------------------------------------------
    M  x    N  x    K                                          COUNT     PERCENT
 -------------------------------------------------------------------------------

 -------------------------------------------------------------------------------
 -                                                                             -
 -                                GRID STATISTICS                              -
 -                                                                             -
 -------------------------------------------------------------------------------
 LP    KERNEL             BACKEND                              COUNT     PERCENT
 2     collocate ortho    CPU                                7375536      28.83%
 2     integrate ortho    CPU                                7375536      28.83%
 3     collocate ortho    CPU                                4740561      18.53%
 3     integrate ortho    CPU                                4740561      18.53%
 4     collocate ortho    CPU                                 673677       2.63%
 4     integrate ortho    CPU                                 673677       2.63%
 0     collocate general  CPU                                   6144       0.02%
 -------------------------------------------------------------------------------

 MEMORY| Estimated peak process memory [MiB]                                 591

 -------------------------------------------------------------------------------
 -                                                                             -
 -                         MESSAGE PASSING PERFORMANCE                         -
 -                                                                             -
 -------------------------------------------------------------------------------

 ROUTINE             CALLS      AVE VOLUME [Bytes]
 MP_Group                5
 MP_Bcast             2479                 157332.
 MP_Allreduce         6633                    940.
 MP_Sync                 5
 MP_Alltoall           244                7039336.
 MP_SendRecv           837                  18832.
 MP_ISendRecv          837                  18832.
 MP_Wait              2391
 MP_ISend             1406                 108579.
 MP_IRecv             1406                 108603.
 -------------------------------------------------------------------------------


 -------------------------------------------------------------------------------
 -                                                                             -
 -                           R E F E R E N C E S                               -
 -                                                                             -
 -------------------------------------------------------------------------------
 
 CP2K version 2024.3 (Development Version), the CP2K developers group (2024).
 CP2K is freely available from https://www.cp2k.org/ .
 
 T. D. Kuehne, M. Iannuzzi, M. Del Ben, V. V. Rybkin, P. Seewald, F. Stein, T. 
 Laino, R. Z. Khaliullin, O. Schuett, F. Schiffmann, D. Golze, J. Wilhelm, S. 
 Chulkov, M. H. Bani-Hashemian, V. Weber, U. Borstnik, M. Taillefumier, A. S. 
 Jakobovits, A. Lazzaro, H. Pabst, T. Mueller, R. Schade, M. Guidon, S. 
 Andermatt, N. Holmberg, G. K. Schenter, A. Hehn, A. Bussy, F. Belleflamme, G. 
 Tabacchi, A. Gloess, M. Lass, I. Bethune, C. J. Mundy, C. Plessl, M. Watkins, 
 J. VandeVondele, M. Krack, J. Hutter.
 J. Chem. Phys. 152, 194103 (2020).
 CP2K: An electronic structure and molecular dynamics software package - 
 Quickstep: Efficient and accurate electronic structure calculations.
 https://doi.org/10.1063/5.0007045

 O. Schuett, P. Messmer, J. Hutter, J. VandeVondele.
 Electronic Structure Calculations on Graphics Processing Units, 173-190 (2016).
 GPU-Accelerated Sparse Matrix-Matrix Multiplication for Linear Scaling Density 
 Functional Theory.
 https://doi.org/10.1002/9781118670712.ch8

 A. Heinecke, G. Henry, M. Hutchinson, H. Pabst.
 Proceedings of Intl. Supercomputing Conference, 981-991 (2016).
 LIBXSMM: Accelerating Small Matrix Multiplications by Runtime Code Generation.
 https://doi.org/10.1109/SC.2016.83

 J. Hutter, M. Iannuzzi, F. Schiffmann, J. VandeVondele.
 WIREs Comput Mol Sci. 4, 15-25 (2014).
 CP2K: atomistic simulations of condensed matter systems.
 https://doi.org/10.1002/wcms.1159

 U. Borstnik, J. VandeVondele, V. Weber, J. Hutter.
 Parallel Comput. 40, 47-58 (2014).
 Sparse matrix multiplication: The distributed block-compressed sparse row 
 library.
 https://doi.org/10.1016/j.parco.2014.03.012

 A. Marek, V. Blum, R. Johanni, V. Havu, B. Lang, T. Auckenthaler, A. Heinecke, 
 H. Bungartz, H. Lederer.
 J. Phys. Condens. Matter 26, 213201 (2014).
 The ELPA library: scalable parallel eigenvalue solutions for electronic 
 structure theory and computational science.
 https://doi.org/10.1088/0953-8984/26/21/213201

 J. VandeVondele, U. Borstnik, J. Hutter.
 J. Chem. Theory Comput. 8, 3565-3573 (2012).
 Linear Scaling Self-Consistent Field Calculations with Millions of Atoms in the 
 Condensed Phase.
 https://doi.org/10.1021/ct200897x

 J. VandeVondele, J. Hutter.
 J. Chem. Phys. 127, 114105 (2007).
 Gaussian basis sets for accurate calculations on molecular systems in gas and 
 condensed phases.
 https://doi.org/10.1063/1.2770708

 J. VandeVondele, M. Krack, F. Mohamed, M. Parrinello, T. Chassaing, J. Hutter.
 Comput. Phys. Commun. 167, 103-128 (2005).
 QUICKSTEP: Fast and accurate density functional calculations using a mixed 
 Gaussian and plane waves approach.
 https://doi.org/10.1016/j.cpc.2004.12.014

 M. Krack.
 Theor. Chem. Acc. 114, 145-152 (2005).
 Pseudopotentials for H to Kr optimized for gradient-corrected 
 exchange-correlation functionals.
 https://doi.org/10.1007/s00214-005-0655-y

 M. Frigo, S. G. Johnson.
 Proc. IEEE 93, 216-231 (2005).
 The design and implementation of FFTW3.
 https://doi.org/10.1109/JPROC.2004.840301

 A. M. N. Niklasson, C. J. Tymczak, M. Challacombe.
 J. Chem. Phys. 118, 8611-8620 (2003).
 Trace resetting density matrix purification in O(N) self-consistent-field 
 theory.
 https://doi.org/10.1063/1.1559913

 C. Hartwigsen, S. Goedecker, J. Hutter.
 Phys. Rev. B 58, 3641-3662 (1998).
 Relativistic separable dual-space Gaussian pseudopotentials from H to Rn.
 https://doi.org/10.1103/PhysRevB.58.3641

 G. Lippert, J. Hutter, M. Parrinello.
 Mol. Phys. 92, 477-487 (1997).
 A hybrid Gaussian and plane wave density functional scheme.
 https://doi.org/10.1080/002689797170220

 S. Goedecker, M. Teter, J. Hutter.
 Phys. Rev. B 54, 1703-1710 (1996).
 Separable dual-space Gaussian pseudopotentials.
 https://doi.org/10.1103/PhysRevB.54.1703

 J. P. Perdew, K. Burke, M. Ernzerhof.
 Phys. Rev. Lett. 77, 3865-3868 (1996).
 Generalized gradient approximation made simple.
 https://doi.org/10.1103/PhysRevLett.77.3865


 -------------------------------------------------------------------------------
 -                                                                             -
 -                                T I M I N G                                  -
 -                                                                             -
 -------------------------------------------------------------------------------
 SUBROUTINE                       CALLS  ASD         SELF TIME        TOTAL TIME
                                MAXIMUM       AVERAGE  MAXIMUM  AVERAGE  MAXIMUM
 CP2K                                 1  1.0    0.013    0.016   20.528   20.529
 qs_energies                          1  2.0    0.000    0.000   20.374   20.375
 ls_scf                               1  3.0    0.000    0.000   19.301   19.302
 ls_scf_main                          1  4.0    0.000    0.000   16.758   16.758
 ls_scf_dm_to_ks                      8  5.0    0.000    0.000   12.476   12.480
 qs_ks_update_qs_env                  9  6.1    0.000    0.000    7.905    7.907
 rebuild_ks_matrix                    9  7.1    0.000    0.000    7.899    7.901
 qs_ks_build_kohn_sham_matrix         9  8.1    0.002    0.002    7.899    7.901
 qs_rho_update_rho_low                9  6.1    0.000    0.000    6.122    6.125
 calculate_rho_elec                   9  7.1    0.003    0.003    6.122    6.125
 sum_up_and_integrate                 9  9.1    0.000    0.000    5.992    5.993
 integrate_v_rspace                   9 10.1    0.000    0.000    5.983    5.986
 grid_collocate_task_list             9  8.1    5.438    5.522    5.438    5.522
 grid_integrate_task_list             9 11.1    5.207    5.368    5.207    5.368
 dbcsr_multiply_generic             246  6.2    0.012    0.013    4.647    4.652
 density_matrix_trs4                  8  5.0    0.004    0.005    4.276    4.279
 multiply_cannon                    246  7.2    0.018    0.022    3.773    3.853
 multiply_cannon_loop               246  8.2    0.019    0.021    3.698    3.763
 ls_scf_init_scf                      1  4.0    0.000    0.000    2.480    2.481
 multiply_cannon_multrec           1968  9.2    2.100    2.158    2.106    2.164
 mp_waitall_1                     16729 10.5    1.737    1.847    1.737    1.847
 fft_wrap_pw1pw2                    172 11.3    0.003    0.003    1.770    1.792
 fft_wrap_pw1pw2_200                100 12.8    0.103    0.109    1.698    1.733
 qs_vxc_create                        9  9.1    0.000    0.000    1.560    1.589
 xc_vxc_pw_create                     9 10.1    0.013    0.020    1.560    1.588
 ls_scf_initial_guess                 1  5.0    0.000    0.000    1.556    1.557
 ls_scf_qs_atomic_guess               1  6.0    0.000    0.000    1.556    1.557
 multiply_cannon_metrocomm3        1968  9.2    0.005    0.006    1.354    1.449
 fft3d_ps                           172 13.3    0.721    0.796    1.331    1.371
 xc_pw_derive                        54 12.1    0.001    0.001    1.107    1.192
 qs_energies_init_hamiltonians        1  3.0    0.000    0.000    1.073    1.073
 ls_scf_init_matrix_S                 1  5.0    0.000    0.000    0.924    0.925
 matrix_sqrt_Newton_Schulz            1  6.0    0.001    0.001    0.901    0.902
 build_core_hamiltonian_matrix        1  4.0    0.000    0.000    0.720    0.883
 xc_rho_set_and_dset_create           9 11.1    0.019    0.024    0.784    0.801
 xc_pw_divergence                     9 11.1    0.000    0.000    0.742    0.786
 density_rs2pw                        9  8.1    0.000    0.000    0.650    0.742
 make_m2s                           492  7.2    0.005    0.007    0.685    0.698
 make_images                        492  8.2    0.039    0.040    0.675    0.689
 mp_waitany                        1406 12.5    0.520    0.641    0.520    0.641
 build_core_ppl                       1  5.0    0.495    0.639    0.495    0.639
 mp_alltoall_z22v                   172 15.3    0.436    0.630    0.436    0.630
 potential_pw2rs                      9 11.1    0.000    0.001    0.598    0.600
 transfer_rs2pw                      46  9.0    0.001    0.001    0.450    0.574
 transfer_rs2pw_200                  10  9.8    0.029    0.038    0.346    0.468
 arnoldi_extremal                     9  6.1    0.000    0.000    0.443    0.444
 arnoldi_normal_ev                    9  7.1    0.000    0.001    0.442    0.443
 yz_to_x                             64 14.2    0.060    0.085    0.285    0.414
 make_images_data                   492  9.2    0.005    0.008    0.377    0.413
 -------------------------------------------------------------------------------

 The number of warnings for this run is : 1
 
 -------------------------------------------------------------------------------
  **** **** ******  **  PROGRAM ENDED AT                 2024-09-23 17:45:50.127
 ***** ** ***  *** **   PROGRAM RAN ON                                    moritz
 **    ****   ******    PROGRAM RAN BY                                       ole
 ***** **    ** ** **   PROGRAM PROCESS ID                                159113
  **** **  *******  **  PROGRAM STOPPED IN /home/ole/git/pao_ml_equivar/64H2O_MD
                                           /Frame4500
