 DBCSR| CPU Multiplication driver                                           XSMM (U)
 DBCSR| Multrec recursion limit                                              512 (U)
 DBCSR| Multiplication stack size                                           1000 (D)
 DBCSR| Maximum elements for images                                    UNLIMITED (U)
 DBCSR| Multiplicative factor virtual images                                   1 (U)
 DBCSR| Use multiplication densification                                       T (D)
 DBCSR| Multiplication size stacks                                             3 (U)
 DBCSR| Use memory pool for CPU allocation                                     F (U)
 DBCSR| Number of 3D layers                                               SINGLE (U)
 DBCSR| Use MPI memory allocation                                              F (U)
 DBCSR| Use RMA algorithm                                                      F (U)
 DBCSR| Use Communication thread                                               T (U)
 DBCSR| Communication thread load                                             87 (D)
 DBCSR| MPI: My process id                                                     0
 DBCSR| MPI: Number of processes                                              32
 DBCSR| OMP: Current number of threads                                         1
 DBCSR| OMP: Max number of threads                                             1
 DBCSR| Split modifier for TAS multiplication algorithm                  1.0E+00 (U)


  **** **** ******  **  PROGRAM STARTED AT               2024-09-24 06:48:17.625
 ***** ** ***  *** **   PROGRAM STARTED ON                                moritz
 **    ****   ******    PROGRAM STARTED BY                                   ole
 ***** **    ** ** **   PROGRAM PROCESS ID                                170585
  **** **  *******  **  PROGRAM STARTED IN /home/ole/git/pao_ml_equivar/64H2O_MD
                                           /Frame6900

 CP2K| version string:                 CP2K version 2024.3 (Development Version)
 CP2K| source code revision number:                                  git:3f890bb
 CP2K| cp2kflags: omp libint fftw3 libxc libgrpp pexsi elpa parallel scalapack c
 CP2K|            osma quip deepmd xsmm plumed2 spglib libdftd4 sirius libvori l
 CP2K|            libbqb libvdwxc hdf5
 CP2K| is freely available from                            https://www.cp2k.org/
 CP2K| Program compiled at                          Mo 23 Sep 2024 17:17:04 CEST
 CP2K| Program compiled on                                                moritz
 CP2K| Program compiled for                                                local
 CP2K| Data directory path                               /home/ole/git/cp2k/data
 CP2K| Input file name                                           64H2O_pao44.inp

 GLOBAL| Force Environment number                                              1
 GLOBAL| Basis set file name                                        BASIS_MOLOPT
 GLOBAL| Potential file name                                      GTH_POTENTIALS
 GLOBAL| MM Potential file name                                     MM_POTENTIAL
 GLOBAL| Coordinate file name                                         coords.xyz
 GLOBAL| Method name                                                        CP2K
 GLOBAL| Project name                                                64H2O_pao44
 GLOBAL| Run type                                                         ENERGY
 GLOBAL| FFT library                                                       FFTW3
 GLOBAL| Diagonalization library                                            ELPA
 GLOBAL| DGEMM library                                                      BLAS
 GLOBAL| Minimum number of eigenvectors for ELPA usage                        16
 GLOBAL| Orthonormality check for eigenvectors                          DISABLED
 GLOBAL| Matrix multiplication library                                     COSMA
 GLOBAL| All-to-all communication in single precision                          F
 GLOBAL| FFTs using library dependent lengths                                  F
 GLOBAL| Grid backend                                                       AUTO
 GLOBAL| Global print level                                                  LOW
 GLOBAL| MPI I/O enabled                                                       T
 GLOBAL| Total number of message passing processes                            32
 GLOBAL| Number of threads for this process                                    1
 GLOBAL| This output is from process                                           0
 GLOBAL| Stack size for threads created by OpenMP (OMP_STACKSIZE)        default
 GLOBAL| CPU model name           AMD Ryzen Threadripper 3970X 32-Core Processor
 GLOBAL| CPUID                                                              1002

 MEMORY| system memory details [Kb]
 MEMORY|                        rank 0           min           max       average
 MEMORY| MemTotal            131752136     131752136     131752136     131752136
 MEMORY| MemFree             114303828     114303828     114303828     114303828
 MEMORY| Buffers               2032536       2032536       2032536       2032536
 MEMORY| Cached                8731896       8731896       8731896       8731896
 MEMORY| Slab                  1644416       1644416       1644416       1644416
 MEMORY| SReclaimable          1146916       1146916       1146916       1146916
 MEMORY| MemLikelyFree       126215176     126215176     126215176     126215176


 GENERATE|  Preliminary Number of Bonds generated:                             0
 GENERATE|  Achieved consistency in connectivity generation.

 *******************************************************************************
 *******************************************************************************
 **                                                                           **
 **     #####                         ##              ##                      **
 **    ##   ##            ##          ##              ##                      **
 **   ##     ##                       ##            ######                    **
 **   ##     ##  ##   ##  ##   #####  ##  ##   ####   ##    #####    #####    **
 **   ##     ##  ##   ##  ##  ##      ## ##   ##      ##   ##   ##  ##   ##   **
 **   ##  ## ##  ##   ##  ##  ##      ####     ###    ##   ######   ######    **
 **    ##  ###   ##   ##  ##  ##      ## ##      ##   ##   ##       ##        **
 **     #######   #####   ##   #####  ##  ##  ####    ##    #####   ##        **
 **           ##                                                    ##        **
 **                                                                           **
 **                                                ... make the atoms dance   **
 **                                                                           **
 **            Copyright (C) by CP2K developers group (2000-2024)             **
 **                      J. Chem. Phys. 152, 194103 (2020)                    **
 **                                                                           **
 *******************************************************************************


 TOTAL NUMBERS AND MAXIMUM NUMBERS

  Total number of            - Atomic kinds:                                   2
                             - Atoms:                                        192
                             - Shell sets:                                   192
                             - Shells:                                       704
                             - Primitive Cartesian functions:               1344
                             - Cartesian basis functions:                   1536
                             - Spherical basis functions:                   1472

  Maximum angular momentum of- Orbital basis functions:                        2
                             - Local part of the GTH pseudopotential:          2
                             - Non-local part of the GTH pseudopotential:      0

 ------------------------------ Linear scaling SCF -----------------------------
 eps_scf:                                                              0.100E-07
 eps_filter:                                                           0.100E-11
 mixing_fraction:                                                      0.450E+00
 max_scf:                                                                     25
 fixed chemical potential (mu)                                                 F
 has unit metric:                                                              F
 Computing inv(S):                                                             T
 Computing sqrt(S):                                                            T
 Computing S preconditioner                                                    F
 S sqrt method:                                                     NEWTONSCHULZ
 S sqrt order:                                                                 3
 Extrapolation order:                                                          1
 S preconditioner type                                                      NONE
 Polarized Atomic Orbitals (PAO)                                               T
 Purification method                                   Trace resetting 4th order
 Cluster type                                                             ATOMIC
 Computing Chebyshev                                                       FALSE
 Using PAO                                                                     T
 -------------------------------------------------------------------------------

 
 PAO|                                  EPS_PAO                           0.5E-06
 PAO|                                  MIXING                            0.5E+00
 PAO|                                  MAX_PAO                              1500
 PAO|                                  MAX_CYCLES                           1000
 PAO|                                  PARAMETERIZATION              EQUIVARIANT
 PAO|                                  PRECONDITION                            F
 PAO|                                  REGULARIZATION                    0.0E+00
 PAO|                                  EPS_PGF                           0.1E-09
 PAO|                                  PENALTY_DISTANCE                  0.1E+00
 PAO|                                  PENALTY_STRENGTH                  0.5E-02
 PAO|                                  LINPOT_PRECONDITION_DELTA         0.0E+00
 PAO|                                  LINPOT_INITGUESS_DELT             0.0E+00
 PAO|                                  LINPOT_REGULARIZATION_DELTA       0.0E+00
 PAO|                                  LINPOT_REGULARIZATION_STRENGTH    0.0E+00
 PAO|                                  OPTIMIZER                              CG
 PAO|                                  CG_INIT_STEPS                           2
 PAO|                                  CG_RESET_LIMIT                    0.1E+00
 PAO|                                  CHECK_UNITARY_TOL                -0.1E+01
 PAO|                                  CHECK_GRADIENT_TOL               -0.1E+01
 PAO|                                  NUM_GRADIENT_ORDER                      2
 PAO|                                  NUM_GRADIENT_EPS                  0.1E-07
 PAO|                                  PRINT%RESTART%WRITE_CYCLES            100
 PAO|                                  RESTART_FILE 
 PAO|                                  PREOPT_DM_FILE 64H2O_ref_LS_DM_SPIN_1_RESTART.dm
 PAO|                                  MACHINE_LEARNING%METHOD       GAUSSIAN_PR
 PAO|                                  MACHINE_LEARNING%PRIOR               ZERO
 PAO|                                  MACHINE_LEARNING%DESCRIPTOR     POTENTIAL
 PAO|                                  MACHINE_LEARNING%TOLERANCE        0.1E-01
 PAO|                                  MACHINE_LEARNING%GP_NOISE_VAR     0.1E+00
 PAO|                                  MACHINE_LEARNING%GP_SCALE         0.5E-01
 

 Calculating atomic Fock matrix for atomic kind: O

 Electronic structure
    Total number of core electrons                                          2.00
    Total number of valence electrons                                       6.00
    Total number of electrons                                               8.00
    Multiplicity                                                   not specified
    S   [  2.00] 2.00
    P      4.00


 *******************************************************************************
                  Iteration          Convergence                     Energy [au]
 *******************************************************************************
                          1        0.708315                     -15.576645311500
                          2        0.608879                     -15.587933561584
                          3        0.102828E-01                 -15.656849565404
                          4        0.113889E-02                 -15.656866888140
                          5        0.434197E-03                 -15.656867072159
                          6        0.263771E-03                 -15.656867091904
                          7        0.478536E-06                 -15.656867103452

 Energy components [Hartree]           Total Energy ::          -15.656867103452
                                        Band Energy ::           -3.000198112285
                                     Kinetic Energy ::           11.759971203220
                                   Potential Energy ::          -27.416838306672
                                      Virial (-V/T) ::            2.331369510426
                                        Core Energy ::          -26.140716385623
                                          XC Energy ::           -3.154051012914
                                     Coulomb Energy ::           13.637900295084
                       Total Pseudopotential Energy ::          -37.935781716540
                       Local Pseudopotential Energy ::          -39.218907440693
                    Nonlocal Pseudopotential Energy ::            1.283125724153
                                        Confinement ::            0.350941276976

 Orbital energies  State     L     Occupation   Energy[a.u.]          Energy[eV]

                       1     0          2.000      -0.864471          -23.523463

                       1     1          4.000      -0.317814           -8.648154


 Total Electron Density at R=0:                                         0.000068

 Calculating atomic Fock matrix for atomic kind: H

 Electronic structure
    Total number of core electrons                                          0.00
    Total number of valence electrons                                       1.00
    Total number of electrons                                               1.00
    Multiplicity                                                   not specified
    S      1.00


 *******************************************************************************
                  Iteration          Convergence                     Energy [au]
 *******************************************************************************
                          1        0.437545E-02                  -0.424159432110
                          2        0.531356E-03                  -0.424178438213
                          3        0.259176E-06                  -0.424178722480

 Energy components [Hartree]           Total Energy ::           -0.424178722480
                                        Band Energy ::           -0.199015229016
                                     Kinetic Energy ::            0.464007633961
                                   Potential Energy ::           -0.888186356441
                                      Virial (-V/T) ::            1.914163240935
                                        Core Energy ::           -0.479160803564
                                          XC Energy ::           -0.244352904054
                                     Coulomb Energy ::            0.299334985138
                       Total Pseudopotential Energy ::           -0.962295316385
                       Local Pseudopotential Energy ::           -0.962295316385
                    Nonlocal Pseudopotential Energy ::            0.000000000000
                                        Confinement ::            0.191268788606

 Orbital energies  State     L     Occupation   Energy[a.u.]          Energy[eV]

                       1     0          1.000      -0.199015           -5.415480


 Total Electron Density at R=0:                                         0.242907
 PAO| Made initial guess for matrix_X with norm:   27.712812921102035     

     Lanczos converged:  T threshold:   0.100E-02
     Est. extremal eigenvalues:    0.624E+01   0.903E-01
     Est. condition number :    0.691E+02

 Order=           3
     NS sqrt iter    1 1.00000000   0.153E+01       0.021     2674.726
     NS sqrt iter    2 1.00000000   0.827E+00       0.034     3341.858
     NS sqrt iter    3 1.00000000   0.332E+00       0.034     3364.065
     NS sqrt iter    4 1.00000000   0.924E-01       0.034     3365.021
     NS sqrt iter    5 1.00000000   0.335E-02       0.034     3351.447
     NS sqrt iter    6 1.00000000   0.325E-06       0.029     2942.705
     Symmetrizing Results
     Final NS sqrt iter    6 1.00000000   0.266E-12

 PAO| Read restart DM 64H2O_ref_LS_DM_SPIN_1_RESTART.dm with checksum:    6191.6511975116682     
 PAO| Quickstep energy from restart density:  -1103.1486117892587     
 PAO| ======================= Iteration:         1 =============================

     Lanczos converged:  T threshold:   0.100E-02
     Est. extremal eigenvalues:    0.624E+01   0.903E-01
     Est. condition number :    0.691E+02

 Order=           3
     NS sqrt iter    1 1.00000000   0.153E+01       0.021     2689.279
     NS sqrt iter    2 1.00000000   0.827E+00       0.034     3353.648
     NS sqrt iter    3 1.00000000   0.332E+00       0.034     3322.833
     NS sqrt iter    4 1.00000000   0.924E-01       0.034     3338.441
     NS sqrt iter    5 1.00000000   0.335E-02       0.034     3330.199
     NS sqrt iter    6 1.00000000   0.325E-06       0.029     2926.919
     Symmetrizing Results
     Final NS sqrt iter    6 1.00000000   0.266E-12

     Est. extremal eigenvalues     -0.82197     2.62784  converged:  T
     TRS4 it   1 1.00000000   0.273E+02       0.007     2096.220   0.100E-11
     TRS4 it   2 1.00000000   0.237E+02       0.013     2176.000   0.100E-11
     TRS4 it   3 1.00000000   0.161E+02       0.013     2211.952   0.100E-11
     TRS4 it   4 1.00000000   0.101E+02       0.013     2220.836   0.100E-11
     TRS4 it   5 1.00000000   0.486E+01       0.013     2182.389   0.100E-11
     TRS4 it   6 1.00000000   0.162E+01       0.013     2218.898   0.100E-11
     TRS4 it   7 1.00000000   0.322E+00       0.013     2216.044   0.100E-11
     TRS4 it   8 1.00000000   0.229E-01       0.013     2213.529   0.100E-11
     TRS4 it   9 1.00000000   0.202E-03       0.013     2193.418   0.100E-11
     TRS4 it  10 1.00000000   0.145E-07       0.013     2181.128   0.100E-11
     TRS4 it  11 1.00000000   0.124E-13       0.013     2198.615   0.100E-11
     Final TRS4 iteration   11 1.00000000   0.124E-13
     Chemical potential (mu):       0.00854
 
 PAO| energy:  -186.40648615005111      penalty:   1.5068475884885731E-031
 PAO|CG| warming up with steepest descent
 PAO|CG| beta:    0.0000000000000000     
 PAO| norm of gradient:   3.9755619738944903     
 PAO|LS| adapt:  T F F
 PAO|LS| adapt: scan_steps:    0.0000000000000000        0.0000000000000000        0.0000000000000000     
 PAO|LS| adapt: energies:   -186.40648615005111        0.0000000000000000        0.0000000000000000     
 PAO| ======================= Iteration:         2 =============================

     Lanczos converged:  T threshold:   0.100E-02
     Est. extremal eigenvalues:    0.603E+01   0.968E-01
     Est. condition number :    0.623E+02

 Order=           3
     NS sqrt iter    1 1.00000000   0.148E+01       0.021     2678.952
     NS sqrt iter    2 1.00000000   0.798E+00       0.034     3320.676
     NS sqrt iter    3 1.00000000   0.311E+00       0.034     3357.694
     NS sqrt iter    4 1.00000000   0.778E-01       0.034     3339.597
     NS sqrt iter    5 1.00000000   0.209E-02       0.034     3351.775
     NS sqrt iter    6 1.00000000   0.948E-07       0.029     2905.544
     Symmetrizing Results
     Final NS sqrt iter    6 1.00000000   0.341E-13

     Est. extremal eigenvalues     -0.82547     2.62512  converged:  T
     TRS4 it   1 1.00000000   0.276E+02       0.007     2143.728   0.100E-11
     TRS4 it   2 1.00000000   0.237E+02       0.013     2179.377   0.100E-11
     TRS4 it   3 1.00000000   0.160E+02       0.013     2187.751   0.100E-11
     TRS4 it   4 1.00000000   0.986E+01       0.013     2180.130   0.100E-11
     TRS4 it   5 1.00000000   0.465E+01       0.013     2212.838   0.100E-11
     TRS4 it   6 1.00000000   0.149E+01       0.013     2170.507   0.100E-11
     TRS4 it   7 1.00000000   0.276E+00       0.013     2202.295   0.100E-11
     TRS4 it   8 1.00000000   0.164E-01       0.013     2203.348   0.100E-11
     TRS4 it   9 1.00000000   0.943E-04       0.013     2191.293   0.100E-11
     TRS4 it  10 1.00000000   0.361E-08       0.013     2198.635   0.100E-11
     TRS4 it  11 1.00000000   0.355E-14       0.013     2186.982   0.100E-11
     Final TRS4 iteration   11 1.00000000   0.355E-14
     Chemical potential (mu):       0.01420
 
 PAO| energy:  -187.85727986587000      penalty:   4.6929413639741506E-007
 PAO|LS| adapt:  T T F
 PAO|LS| adapt: scan_steps:    0.0000000000000000       0.10000000000000001        0.0000000000000000     
 PAO|LS| adapt: energies:   -186.40648615005111       -187.85727986587000        0.0000000000000000     
 PAO| ======================= Iteration:         3 =============================

     Lanczos converged:  T threshold:   0.100E-02
     Est. extremal eigenvalues:    0.581E+01   0.102E+00
     Est. condition number :    0.567E+02

 Order=           3
     NS sqrt iter    1 1.00000000   0.144E+01       0.022     2640.338
     NS sqrt iter    2 1.00000000   0.769E+00       0.034     3314.107
     NS sqrt iter    3 1.00000000   0.291E+00       0.034     3337.174
     NS sqrt iter    4 1.00000000   0.652E-01       0.034     3350.112
     NS sqrt iter    5 1.00000000   0.132E-02       0.034     3363.463
     NS sqrt iter    6 1.00000000   0.291E-07       0.029     2900.236
     Symmetrizing Results
     Final NS sqrt iter    6 1.00000000   0.447E-14

     Est. extremal eigenvalues     -0.82871     2.62616  converged:  T
     TRS4 it   1 1.00000000   0.278E+02       0.007     2094.900   0.100E-11
     TRS4 it   2 1.00000000   0.237E+02       0.013     2194.610   0.100E-11
     TRS4 it   3 1.00000000   0.159E+02       0.013     2184.773   0.100E-11
     TRS4 it   4 1.00000000   0.968E+01       0.013     2215.927   0.100E-11
     TRS4 it   5 1.00000000   0.445E+01       0.013     2172.311   0.100E-11
     TRS4 it   6 1.00000000   0.137E+01       0.013     2232.797   0.100E-11
     TRS4 it   7 1.00000000   0.234E+00       0.013     2215.011   0.100E-11
     TRS4 it   8 1.00000000   0.114E-01       0.013     2209.448   0.100E-11
     TRS4 it   9 1.00000000   0.406E-04       0.013     2182.913   0.100E-11
     TRS4 it  10 1.00000000   0.780E-09       0.013     2175.561   0.100E-11
     TRS4 it  11 1.00000000   0.195E-13       0.013     2194.084   0.100E-11
     Final TRS4 iteration   11 1.00000000   0.195E-13
     Chemical potential (mu):       0.02064
 
 PAO| energy:  -189.03260368754923      penalty:   7.5087061824501493E-006
 PAO|LS| adapt:  T T F
 PAO|LS| adapt: scan_steps:    0.0000000000000000       0.20000000000000001        0.0000000000000000     
 PAO|LS| adapt: energies:   -186.40648615005111       -189.03260368754923        0.0000000000000000     
 PAO| ======================= Iteration:         4 =============================

     Lanczos converged:  T threshold:   0.100E-02
     Est. extremal eigenvalues:    0.539E+01   0.112E+00
     Est. condition number :    0.480E+02

 Order=           3
     NS sqrt iter    1 1.00000000   0.136E+01       0.021     2685.680
     NS sqrt iter    2 1.00000000   0.712E+00       0.034     3349.872
     NS sqrt iter    3 1.00000000   0.253E+00       0.034     3358.694
     NS sqrt iter    4 1.00000000   0.458E-01       0.034     3347.097
     NS sqrt iter    5 1.00000000   0.546E-03       0.034     3358.763
     NS sqrt iter    6 1.00000000   0.278E-08       0.029     2857.904
     Symmetrizing Results
     Final NS sqrt iter    6 1.00000000   0.136E-13

     Est. extremal eigenvalues     -0.83382     2.63113  converged:  T
     TRS4 it   1 1.00000000   0.282E+02       0.007     2099.288   0.100E-11
     TRS4 it   2 1.00000000   0.237E+02       0.013     2197.370   0.100E-11
     TRS4 it   3 1.00000000   0.157E+02       0.013     2179.090   0.100E-11
     TRS4 it   4 1.00000000   0.935E+01       0.013     2192.943   0.100E-11
     TRS4 it   5 1.00000000   0.409E+01       0.013     2173.203   0.100E-11
     TRS4 it   6 1.00000000   0.115E+01       0.013     2180.145   0.100E-11
     TRS4 it   7 1.00000000   0.167E+00       0.013     2199.400   0.100E-11
     TRS4 it   8 1.00000000   0.532E-02       0.013     2230.690   0.100E-11
     TRS4 it   9 1.00000000   0.692E-05       0.013     2205.961   0.100E-11
     TRS4 it  10 1.00000000   0.257E-10       0.013     2185.085   0.100E-11
     Final TRS4 iteration   10 1.00000000   0.257E-10
     Chemical potential (mu):       0.04040
 
 PAO| energy:  -190.51592094980325      penalty:   1.2013929891993223E-004
 PAO|LS| Need extra step
 PAO|LS| adapt:  T T F
 PAO|LS| adapt: scan_steps:    0.0000000000000000       0.40000000000000002        0.0000000000000000     
 PAO|LS| adapt: energies:   -186.40648615005111       -190.51592094980325        0.0000000000000000     
 PAO| ======================= Iteration:         5 =============================

     Lanczos converged:  T threshold:   0.100E-02
     Est. extremal eigenvalues:    0.471E+01   0.128E+00
     Est. condition number :    0.367E+02

 Order=           3
     NS sqrt iter    1 1.00000000   0.122E+01       0.021     2708.024
     NS sqrt iter    2 1.00000000   0.619E+00       0.034     3365.923
     NS sqrt iter    3 1.00000000   0.195E+00       0.034     3372.836
     NS sqrt iter    4 1.00000000   0.238E-01       0.034     3375.955
     NS sqrt iter    5 1.00000000   0.104E-03       0.034     3368.599
     NS sqrt iter    6 1.00000000   0.281E-10       0.019     2203.137
     Symmetrizing Results
     Final NS sqrt iter    6 1.00000000   0.211E-11

     Est. extremal eigenvalues     -0.83637     2.63253  converged:  T
     TRS4 it   1 1.00000000   0.288E+02       0.007     2087.803   0.100E-11
     TRS4 it   2 1.00000000   0.237E+02       0.013     2180.349   0.100E-11
     TRS4 it   3 1.00000000   0.155E+02       0.013     2204.490   0.100E-11
     TRS4 it   4 1.00000000   0.885E+01       0.013     2232.084   0.100E-11
     TRS4 it   5 1.00000000   0.356E+01       0.013     2195.355   0.100E-11
     TRS4 it   6 1.00000000   0.854E+00       0.013     2173.241   0.100E-11
     TRS4 it   7 1.00000000   0.907E-01       0.013     2194.505   0.100E-11
     TRS4 it   8 1.00000000   0.146E-02       0.013     2216.193   0.100E-11
     TRS4 it   9 1.00000000   0.468E-06       0.013     2203.099   0.100E-11
     TRS4 it  10 1.00000000   0.906E-13       0.013     2206.731   0.100E-11
     Final TRS4 iteration   10 1.00000000   0.906E-13
     Chemical potential (mu):       0.06305
 
 PAO| energy:  -190.14286904080740      penalty:   1.9222287827247572E-003
 PAO|LS| Need extra step
 PAO|LS| adapt:  T T T
 PAO|LS| adapt: scan_steps:    0.0000000000000000       0.40000000000000002       0.80000000000000004     
 PAO|LS| adapt: energies:   -186.40648615005111       -190.51592094980325       -190.14286904080740     
 PAO|LS| adapt: suggested step_size:   0.56671027193296053     
 PAO|LS| adapt: predicted energy  -190.90522932965553     
 PAO| ======================= Iteration:         6 =============================

     Lanczos converged:  T threshold:   0.100E-02
     Est. extremal eigenvalues:    0.508E+01   0.119E+00
     Est. condition number :    0.425E+02

 Order=           3
     NS sqrt iter    1 1.00000000   0.129E+01       0.021     2684.784
     NS sqrt iter    2 1.00000000   0.669E+00       0.034     3339.722
     NS sqrt iter    3 1.00000000   0.226E+00       0.034     3348.711
     NS sqrt iter    4 1.00000000   0.344E-01       0.034     3343.325
     NS sqrt iter    5 1.00000000   0.267E-03       0.034     3316.021
     NS sqrt iter    6 1.00000000   0.394E-09       0.028     2697.312
     Symmetrizing Results
     Final NS sqrt iter    6 1.00000000   0.382E-12

     Est. extremal eigenvalues     -0.83623     2.63333  converged:  T
     TRS4 it   1 1.00000000   0.285E+02       0.007     2082.358   0.100E-11
     TRS4 it   2 1.00000000   0.237E+02       0.013     2226.145   0.100E-11
     TRS4 it   3 1.00000000   0.156E+02       0.013     2188.272   0.100E-11
     TRS4 it   4 1.00000000   0.912E+01       0.013     2212.547   0.100E-11
     TRS4 it   5 1.00000000   0.384E+01       0.013     2203.401   0.100E-11
     TRS4 it   6 1.00000000   0.100E+01       0.013     2169.832   0.100E-11
     TRS4 it   7 1.00000000   0.127E+00       0.013     2202.208   0.100E-11
     TRS4 it   8 1.00000000   0.291E-02       0.013     2212.258   0.100E-11
     TRS4 it   9 1.00000000   0.187E-05       0.013     2211.874   0.100E-11
     TRS4 it  10 1.00000000   0.173E-11       0.013     2220.720   0.100E-11
     Final TRS4 iteration   10 1.00000000   0.173E-11
     Chemical potential (mu):       0.05118
 
 PAO| energy:  -190.87845035402390      penalty:   4.8404915476490056E-004
 PAO|CG| warming up with steepest descent
 PAO|CG| beta:    0.0000000000000000     
 PAO| norm of gradient:   2.0917760170746034     
 PAO| energy improvement:  -4.4719642039727887     
 PAO| step      6                 -190.878450354  0.409E-02  0.567E+00     2.471
 PAO|LS| adapt:  T F F
 PAO|LS| adapt: scan_steps:    0.0000000000000000        0.0000000000000000        0.0000000000000000     
 PAO|LS| adapt: energies:   -190.87845035402390        0.0000000000000000        0.0000000000000000     
 PAO| ======================= Iteration:         7 =============================

     Lanczos converged:  T threshold:   0.100E-02
     Est. extremal eigenvalues:    0.492E+01   0.127E+00
     Est. condition number :    0.388E+02

 Order=           3
     NS sqrt iter    1 1.00000000   0.126E+01       0.021     2702.491
     NS sqrt iter    2 1.00000000   0.644E+00       0.034     3361.382
     NS sqrt iter    3 1.00000000   0.209E+00       0.034     3349.302
     NS sqrt iter    4 1.00000000   0.278E-01       0.034     3351.486
     NS sqrt iter    5 1.00000000   0.150E-03       0.034     3354.701
     NS sqrt iter    6 1.00000000   0.751E-10       0.024     2392.588
     Symmetrizing Results
     Final NS sqrt iter    6 1.00000000   0.196E-11

     Est. extremal eigenvalues     -0.83748     2.62526  converged:  T
     TRS4 it   1 1.00000000   0.286E+02       0.007     2114.700   0.100E-11
     TRS4 it   2 1.00000000   0.238E+02       0.013     2204.475   0.100E-11
     TRS4 it   3 1.00000000   0.157E+02       0.013     2227.976   0.100E-11
     TRS4 it   4 1.00000000   0.926E+01       0.013     2219.203   0.100E-11
     TRS4 it   5 1.00000000   0.394E+01       0.013     2210.476   0.100E-11
     TRS4 it   6 1.00000000   0.103E+01       0.013     2228.807   0.100E-11
     TRS4 it   7 1.00000000   0.129E+00       0.013     2211.043   0.100E-11
     TRS4 it   8 1.00000000   0.296E-02       0.013     2184.218   0.100E-11
     TRS4 it   9 1.00000000   0.198E-05       0.013     2200.634   0.100E-11
     TRS4 it  10 1.00000000   0.211E-11       0.013     2192.095   0.100E-11
     Final TRS4 iteration   10 1.00000000   0.211E-11
     Chemical potential (mu):       0.05382
 
 PAO| energy:  -189.98389139080814      penalty:   6.7647394298933486E-004
 PAO|LS| adapt:  T F T
 PAO|LS| adapt: scan_steps:    0.0000000000000000        0.0000000000000000       0.56671027193296053     
 PAO|LS| adapt: energies:   -190.87845035402390        0.0000000000000000       -189.98389139080814     
 PAO| ======================= Iteration:         8 =============================

     Lanczos converged:  T threshold:   0.100E-02
     Est. extremal eigenvalues:    0.500E+01   0.123E+00
     Est. condition number :    0.406E+02

 Order=           3
     NS sqrt iter    1 1.00000000   0.128E+01       0.021     2674.003
     NS sqrt iter    2 1.00000000   0.656E+00       0.034     3350.281
     NS sqrt iter    3 1.00000000   0.217E+00       0.034     3359.130
     NS sqrt iter    4 1.00000000   0.310E-01       0.034     3362.782
     NS sqrt iter    5 1.00000000   0.201E-03       0.034     3336.572
     NS sqrt iter    6 1.00000000   0.176E-09       0.027     2569.106
     Symmetrizing Results
     Final NS sqrt iter    6 1.00000000   0.120E-11

     Est. extremal eigenvalues     -0.83768     2.62975  converged:  T
     TRS4 it   1 1.00000000   0.286E+02       0.007     2107.081   0.100E-11
     TRS4 it   2 1.00000000   0.237E+02       0.013     2200.946   0.100E-11
     TRS4 it   3 1.00000000   0.156E+02       0.013     2210.256   0.100E-11
     TRS4 it   4 1.00000000   0.915E+01       0.013     2209.061   0.100E-11
     TRS4 it   5 1.00000000   0.386E+01       0.013     2204.664   0.100E-11
     TRS4 it   6 1.00000000   0.101E+01       0.013     2191.048   0.100E-11
     TRS4 it   7 1.00000000   0.126E+00       0.013     2204.649   0.100E-11
     TRS4 it   8 1.00000000   0.290E-02       0.013     2194.588   0.100E-11
     TRS4 it   9 1.00000000   0.188E-05       0.013     2192.390   0.100E-11
     TRS4 it  10 1.00000000   0.171E-11       0.013     2195.086   0.100E-11
     Final TRS4 iteration   10 1.00000000   0.171E-11
     Chemical potential (mu):       0.05132
 
 PAO| energy:  -191.26095766248122      penalty:   5.1287679641821014E-004
 PAO|LS| adapt:  T T T
 PAO|LS| adapt: scan_steps:    0.0000000000000000       0.28335513596648026       0.56671027193296053     
 PAO|LS| adapt: energies:   -190.87845035402390       -191.26095766248122       -189.98389139080814     
 PAO|LS| adapt: suggested step_size:   0.20698676047326534     
 PAO|LS| adapt: predicted energy  -191.32123186094481     
 PAO| ======================= Iteration:         9 =============================

     Lanczos converged:  T threshold:   0.100E-02
     Est. extremal eigenvalues:    0.502E+01   0.122E+00
     Est. condition number :    0.412E+02

 Order=           3
     NS sqrt iter    1 1.00000000   0.128E+01       0.021     2694.521
     NS sqrt iter    2 1.00000000   0.660E+00       0.034     3352.804
     NS sqrt iter    3 1.00000000   0.219E+00       0.034     3341.225
     NS sqrt iter    4 1.00000000   0.319E-01       0.034     3357.058
     NS sqrt iter    5 1.00000000   0.217E-03       0.034     3371.294
     NS sqrt iter    6 1.00000000   0.220E-09       0.027     2602.885
     Symmetrizing Results
     Final NS sqrt iter    6 1.00000000   0.962E-12

     Est. extremal eigenvalues     -0.83746     2.63083  converged:  T
     TRS4 it   1 1.00000000   0.286E+02       0.007     2127.164   0.100E-11
     TRS4 it   2 1.00000000   0.237E+02       0.013     2213.154   0.100E-11
     TRS4 it   3 1.00000000   0.156E+02       0.013     2189.774   0.100E-11
     TRS4 it   4 1.00000000   0.914E+01       0.013     2194.331   0.100E-11
     TRS4 it   5 1.00000000   0.385E+01       0.013     2192.534   0.100E-11
     TRS4 it   6 1.00000000   0.101E+01       0.013     2205.481   0.100E-11
     TRS4 it   7 1.00000000   0.126E+00       0.013     2197.094   0.100E-11
     TRS4 it   8 1.00000000   0.290E-02       0.013     2187.921   0.100E-11
     TRS4 it   9 1.00000000   0.187E-05       0.013     2184.027   0.100E-11
     TRS4 it  10 1.00000000   0.169E-11       0.013     2172.114   0.100E-11
     Final TRS4 iteration   10 1.00000000   0.169E-11
     Chemical potential (mu):       0.05106
 
 PAO| energy:  -191.32549452016252      penalty:   4.9611410970634489E-004
 PAO|CG| trace_G_new   0.73813348860689643     
 PAO|CG| trace_G_prev    4.3755269056084920     
 PAO|CG| trace_G_mix   -4.3261269690983477E-002
 PAO|CG| trace_D    4.3755269056084920     
 PAO|CG| trace_D_Gnew   4.3261269690983477E-002
 PAO|CG| beta:   0.17858300843637792     
 PAO| norm of gradient:  0.85914695402294039     
 PAO| energy improvement: -0.44704416613862463     
 PAO| step      9                 -191.325494520  0.168E-02  0.207E+00     1.538
 PAO|LS| adapt:  T F F
 PAO|LS| adapt: scan_steps:    0.0000000000000000        0.0000000000000000        0.0000000000000000     
 PAO|LS| adapt: energies:   -191.32549452016252        0.0000000000000000        0.0000000000000000     
 PAO| ======================= Iteration:        10 =============================

     Lanczos converged:  T threshold:   0.100E-02
     Est. extremal eigenvalues:    0.496E+01   0.125E+00
     Est. condition number :    0.396E+02

 Order=           3
     NS sqrt iter    1 1.00000000   0.127E+01       0.021     2708.037
     NS sqrt iter    2 1.00000000   0.651E+00       0.034     3348.278
     NS sqrt iter    3 1.00000000   0.214E+00       0.034     3335.520
     NS sqrt iter    4 1.00000000   0.296E-01       0.034     3349.382
     NS sqrt iter    5 1.00000000   0.174E-03       0.034     3338.926
     NS sqrt iter    6 1.00000000   0.113E-09       0.025     2465.858
     Symmetrizing Results
     Final NS sqrt iter    6 1.00000000   0.165E-11

     Est. extremal eigenvalues     -0.83808     2.61689  converged:  T
     TRS4 it   1 1.00000000   0.285E+02       0.007     2101.384   0.100E-11
     TRS4 it   2 1.00000000   0.237E+02       0.013     2211.570   0.100E-11
     TRS4 it   3 1.00000000   0.156E+02       0.013     2216.655   0.100E-11
     TRS4 it   4 1.00000000   0.912E+01       0.013     2198.506   0.100E-11
     TRS4 it   5 1.00000000   0.383E+01       0.013     2220.616   0.100E-11
     TRS4 it   6 1.00000000   0.993E+00       0.013     2202.564   0.100E-11
     TRS4 it   7 1.00000000   0.123E+00       0.013     2210.174   0.100E-11
     TRS4 it   8 1.00000000   0.274E-02       0.013     2205.782   0.100E-11
     TRS4 it   9 1.00000000   0.167E-05       0.013     2171.297   0.100E-11
     TRS4 it  10 1.00000000   0.134E-11       0.013     2175.148   0.100E-11
     Final TRS4 iteration   10 1.00000000   0.134E-11
     Chemical potential (mu):       0.05197
 
 PAO| energy:  -191.42765686389208      penalty:   4.9871573734191880E-004
 PAO|LS| adapt:  T T F
 PAO|LS| adapt: scan_steps:    0.0000000000000000       0.20698676047326534        0.0000000000000000     
 PAO|LS| adapt: energies:   -191.32549452016252       -191.42765686389208        0.0000000000000000     
 PAO| ======================= Iteration:        11 =============================

     Lanczos converged:  T threshold:   0.100E-02
     Est. extremal eigenvalues:    0.491E+01   0.129E+00
     Est. condition number :    0.381E+02

 Order=           3
     NS sqrt iter    1 1.00000000   0.126E+01       0.021     2687.477
     NS sqrt iter    2 1.00000000   0.642E+00       0.034     3352.835
     NS sqrt iter    3 1.00000000   0.208E+00       0.034     3345.151
     NS sqrt iter    4 1.00000000   0.275E-01       0.034     3353.939
     NS sqrt iter    5 1.00000000   0.139E-03       0.034     3352.428
     NS sqrt iter    6 1.00000000   0.573E-10       0.022     2334.902
     Symmetrizing Results
     Final NS sqrt iter    6 1.00000000   0.216E-11

     Est. extremal eigenvalues     -0.83799     2.60260  converged:  T
     TRS4 it   1 1.00000000   0.285E+02       0.007     2117.242   0.100E-11
     TRS4 it   2 1.00000000   0.236E+02       0.013     2212.038   0.100E-11
     TRS4 it   3 1.00000000   0.156E+02       0.013     2206.531   0.100E-11
     TRS4 it   4 1.00000000   0.909E+01       0.013     2190.757   0.100E-11
     TRS4 it   5 1.00000000   0.380E+01       0.013     2195.010   0.100E-11
     TRS4 it   6 1.00000000   0.977E+00       0.013     2220.557   0.100E-11
     TRS4 it   7 1.00000000   0.119E+00       0.013     2217.455   0.100E-11
     TRS4 it   8 1.00000000   0.255E-02       0.013     2204.178   0.100E-11
     TRS4 it   9 1.00000000   0.145E-05       0.013     2190.922   0.100E-11
     TRS4 it  10 1.00000000   0.102E-11       0.013     2200.602   0.100E-11
     Final TRS4 iteration   10 1.00000000   0.102E-11
     Chemical potential (mu):       0.05295
 
 PAO| energy:  -191.43449328785866      penalty:   5.1154178084507047E-004
 PAO|LS| adapt:  T T F
 PAO|LS| adapt: scan_steps:    0.0000000000000000       0.41397352094653067        0.0000000000000000     
 PAO|LS| adapt: energies:   -191.32549452016252       -191.43449328785866        0.0000000000000000     
 PAO| ======================= Iteration:        12 =============================

     Lanczos converged:  F threshold:   0.100E-02
     Est. extremal eigenvalues:    0.481E+01   0.136E+00
     Est. condition number :    0.354E+02

 Order=           3
     NS sqrt iter    1 1.00000000   0.124E+01       0.021     2676.916
     NS sqrt iter    2 1.00000000   0.626E+00       0.034     3350.379
     NS sqrt iter    3 1.00000000   0.197E+00       0.034     3335.926
     NS sqrt iter    4 1.00000000   0.236E-01       0.034     3350.088
     NS sqrt iter    5 1.00000000   0.885E-04       0.034     3351.939
     NS sqrt iter    6 1.00000000   0.142E-10       0.016     2120.786
     Symmetrizing Results
     Final NS sqrt iter    6 1.00000000   0.178E-11

     Est. extremal eigenvalues     -0.83596     2.57375  converged:  T
     TRS4 it   1 1.00000000   0.285E+02       0.007     2123.498   0.100E-11
     TRS4 it   2 1.00000000   0.234E+02       0.013     2200.345   0.100E-11
     TRS4 it   3 1.00000000   0.155E+02       0.013     2211.740   0.100E-11
     TRS4 it   4 1.00000000   0.900E+01       0.013     2199.590   0.100E-11
     TRS4 it   5 1.00000000   0.372E+01       0.013     2213.247   0.100E-11
     TRS4 it   6 1.00000000   0.937E+00       0.013     2245.059   0.100E-11
     TRS4 it   7 1.00000000   0.109E+00       0.013     2209.515   0.100E-11
     TRS4 it   8 1.00000000   0.214E-02       0.013     2195.008   0.100E-11
     TRS4 it   9 1.00000000   0.104E-05       0.013     2241.668   0.100E-11
     TRS4 it  10 1.00000000   0.544E-12       0.013     2155.250   0.100E-11
     Final TRS4 iteration   10 1.00000000   0.544E-12
     Chemical potential (mu):       0.05510
 
 PAO| energy:  -191.17926241129595      penalty:   5.7535215869336444E-004
 PAO|LS| Need extra step
 PAO|LS| adapt:  T T T
 PAO|LS| adapt: scan_steps:    0.0000000000000000       0.41397352094653067       0.82794704189306134     
 PAO|LS| adapt: energies:   -191.32549452016252       -191.43449328785866       -191.17926241129595     
 PAO|LS| adapt: suggested step_size:   0.33087179935806205     
 PAO|LS| adapt: predicted energy  -191.44183200602748     
 PAO| ======================= Iteration:        13 =============================

     Lanczos converged:  T threshold:   0.100E-02
     Est. extremal eigenvalues:    0.493E+01   0.127E+00
     Est. condition number :    0.387E+02

 Order=           3
     NS sqrt iter    1 1.00000000   0.126E+01       0.021     2668.804
     NS sqrt iter    2 1.00000000   0.646E+00       0.034     3364.992
     NS sqrt iter    3 1.00000000   0.210E+00       0.034     3347.457
     NS sqrt iter    4 1.00000000   0.283E-01       0.034     3360.882
     NS sqrt iter    5 1.00000000   0.152E-03       0.034     3368.418
     NS sqrt iter    6 1.00000000   0.753E-10       0.023     2391.189
     Symmetrizing Results
     Final NS sqrt iter    6 1.00000000   0.206E-11

     Est. extremal eigenvalues     -0.83811     2.60837  converged:  T
     TRS4 it   1 1.00000000   0.285E+02       0.007     2125.378   0.100E-11
     TRS4 it   2 1.00000000   0.236E+02       0.013     2208.054   0.100E-11
     TRS4 it   3 1.00000000   0.156E+02       0.013     2189.791   0.100E-11
     TRS4 it   4 1.00000000   0.910E+01       0.013     2187.702   0.100E-11
     TRS4 it   5 1.00000000   0.381E+01       0.013     2204.377   0.100E-11
     TRS4 it   6 1.00000000   0.984E+00       0.013     2200.269   0.100E-11
     TRS4 it   7 1.00000000   0.120E+00       0.013     2218.264   0.100E-11
     TRS4 it   8 1.00000000   0.263E-02       0.013     2215.571   0.100E-11
     TRS4 it   9 1.00000000   0.154E-05       0.013     2227.734   0.100E-11
     TRS4 it  10 1.00000000   0.113E-11       0.013     2204.335   0.100E-11
     Final TRS4 iteration   10 1.00000000   0.113E-11
     Chemical potential (mu):       0.05255
 
 PAO| energy:  -191.44293456630473      penalty:   5.0507738751224608E-004
 PAO|CG| trace_G_new   0.29047053365950037     
 PAO|CG| trace_G_prev   0.73813348860689643     
 PAO|CG| trace_G_mix   -1.2805563482394214E-002
 PAO|CG| trace_D   0.86222585993976142     
 PAO|CG| trace_D_Gnew   1.2107595053298833E-002
 PAO|CG| beta:   0.41086890355601874     
 PAO| norm of gradient:  0.53895318317967134     
 PAO| energy improvement: -0.11744004614220671     
 PAO| step     13                 -191.442934566  0.105E-02  0.331E+00     1.969
 PAO|LS| adapt:  T F F
 PAO|LS| adapt: scan_steps:    0.0000000000000000        0.0000000000000000        0.0000000000000000     
 PAO|LS| adapt: energies:   -191.44293456630473        0.0000000000000000        0.0000000000000000     
 PAO| ======================= Iteration:        14 =============================

     Lanczos converged:  F threshold:   0.100E-02
     Est. extremal eigenvalues:    0.486E+01   0.131E+00
     Est. condition number :    0.372E+02

 Order=           3
     NS sqrt iter    1 1.00000000   0.125E+01       0.021     2720.004
     NS sqrt iter    2 1.00000000   0.635E+00       0.034     3354.663
     NS sqrt iter    3 1.00000000   0.204E+00       0.034     3354.090
     NS sqrt iter    4 1.00000000   0.261E-01       0.034     3349.418
     NS sqrt iter    5 1.00000000   0.121E-03       0.034     3327.826
     NS sqrt iter    6 1.00000000   0.373E-10       0.020     2230.674
     Symmetrizing Results
     Final NS sqrt iter    6 1.00000000   0.222E-11

     Est. extremal eigenvalues     -0.83869     2.60022  converged:  T
     TRS4 it   1 1.00000000   0.286E+02       0.007     2126.090   0.100E-11
     TRS4 it   2 1.00000000   0.236E+02       0.013     2193.502   0.100E-11
     TRS4 it   3 1.00000000   0.155E+02       0.013     2205.996   0.100E-11
     TRS4 it   4 1.00000000   0.904E+01       0.013     2201.673   0.100E-11
     TRS4 it   5 1.00000000   0.375E+01       0.013     2211.495   0.100E-11
     TRS4 it   6 1.00000000   0.953E+00       0.013     2182.883   0.100E-11
     TRS4 it   7 1.00000000   0.113E+00       0.013     2196.953   0.100E-11
     TRS4 it   8 1.00000000   0.231E-02       0.013     2207.559   0.100E-11
     TRS4 it   9 1.00000000   0.119E-05       0.013     2203.198   0.100E-11
     TRS4 it  10 1.00000000   0.670E-12       0.013     2173.222   0.100E-11
     Final TRS4 iteration   10 1.00000000   0.670E-12
     Chemical potential (mu):       0.05450
 
 PAO| energy:  -191.49771665438175      penalty:   5.0815023361327485E-004
 PAO|LS| adapt:  T T F
 PAO|LS| adapt: scan_steps:    0.0000000000000000       0.33087179935806205        0.0000000000000000     
 PAO|LS| adapt: energies:   -191.44293456630473       -191.49771665438175        0.0000000000000000     
 PAO| ======================= Iteration:        15 =============================

     Lanczos converged:  F threshold:   0.100E-02
     Est. extremal eigenvalues:    0.478E+01   0.134E+00
     Est. condition number :    0.358E+02

 Order=           3
     NS sqrt iter    1 1.00000000   0.123E+01       0.021     2677.359
     NS sqrt iter    2 1.00000000   0.624E+00       0.034     3348.808
     NS sqrt iter    3 1.00000000   0.197E+00       0.034     3358.622
     NS sqrt iter    4 1.00000000   0.240E-01       0.033     3380.692
     NS sqrt iter    5 1.00000000   0.960E-04       0.034     3359.561
     NS sqrt iter    6 1.00000000   0.186E-10       0.017     2173.499
     Symmetrizing Results
     Final NS sqrt iter    6 1.00000000   0.202E-11

     Est. extremal eigenvalues     -0.83870     2.59172  converged:  T
     TRS4 it   1 1.00000000   0.286E+02       0.007     2115.338   0.100E-11
     TRS4 it   2 1.00000000   0.235E+02       0.013     2183.072   0.100E-11
     TRS4 it   3 1.00000000   0.155E+02       0.013     2193.600   0.100E-11
     TRS4 it   4 1.00000000   0.898E+01       0.013     2199.950   0.100E-11
     TRS4 it   5 1.00000000   0.369E+01       0.013     2178.713   0.100E-11
     TRS4 it   6 1.00000000   0.922E+00       0.013     2189.403   0.100E-11
     TRS4 it   7 1.00000000   0.106E+00       0.013     2214.113   0.100E-11
     TRS4 it   8 1.00000000   0.203E-02       0.013     2198.307   0.100E-11
     TRS4 it   9 1.00000000   0.924E-06       0.013     2206.630   0.100E-11
     TRS4 it  10 1.00000000   0.432E-12       0.013     2221.422   0.100E-11
     Final TRS4 iteration   10 1.00000000   0.432E-12
     Chemical potential (mu):       0.05633
 
 PAO| energy:  -191.47436725420641      penalty:   5.2743976197460059E-004
 PAO|LS| adapt:  T T T
 PAO|LS| adapt: scan_steps:    0.0000000000000000       0.33087179935806205       0.66174359871612409     
 PAO|LS| adapt: energies:   -191.44293456630473       -191.49771665438175       -191.47436725420641     
 PAO|LS| adapt: suggested step_size:   0.39742748796276195     
 PAO|LS| adapt: predicted energy  -191.49929734529590     
 PAO| ======================= Iteration:        16 =============================

     Lanczos converged:  F threshold:   0.100E-02
     Est. extremal eigenvalues:    0.484E+01   0.131E+00
     Est. condition number :    0.369E+02

 Order=           3
     NS sqrt iter    1 1.00000000   0.125E+01       0.021     2696.401
     NS sqrt iter    2 1.00000000   0.632E+00       0.034     3354.381
     NS sqrt iter    3 1.00000000   0.202E+00       0.034     3339.676
     NS sqrt iter    4 1.00000000   0.256E-01       0.034     3364.965
     NS sqrt iter    5 1.00000000   0.115E-03       0.034     3350.619
     NS sqrt iter    6 1.00000000   0.324E-10       0.019     2224.590
     Symmetrizing Results
     Final NS sqrt iter    6 1.00000000   0.221E-11

     Est. extremal eigenvalues     -0.83874     2.59853  converged:  T
     TRS4 it   1 1.00000000   0.286E+02       0.007     2108.377   0.100E-11
     TRS4 it   2 1.00000000   0.236E+02       0.013     2182.416   0.100E-11
     TRS4 it   3 1.00000000   0.155E+02       0.013     2178.932   0.100E-11
     TRS4 it   4 1.00000000   0.903E+01       0.013     2232.338   0.100E-11
     TRS4 it   5 1.00000000   0.374E+01       0.013     2197.199   0.100E-11
     TRS4 it   6 1.00000000   0.947E+00       0.013     2207.017   0.100E-11
     TRS4 it   7 1.00000000   0.112E+00       0.013     2201.148   0.100E-11
     TRS4 it   8 1.00000000   0.225E-02       0.013     2204.847   0.100E-11
     TRS4 it   9 1.00000000   0.113E-05       0.013     2204.340   0.100E-11
     TRS4 it  10 1.00000000   0.629E-12       0.013     2180.867   0.100E-11
     Final TRS4 iteration   10 1.00000000   0.629E-12
     Chemical potential (mu):       0.05488
 
 PAO| energy:  -191.49923701924689      penalty:   5.1067178021927285E-004
 PAO|CG| trace_G_new   0.11048206615288218     
 PAO|CG| trace_G_prev   0.29047053365950037     
 PAO|CG| trace_G_mix    4.7004416339271327E-003
 PAO|CG| trace_D   0.42607641979665084     
 PAO|CG| trace_D_Gnew   8.3243945991132401E-004
 PAO|CG| beta:   0.36417334036007915     
 PAO| norm of gradient:  0.33238842662295298     
 PAO| energy improvement:  -5.6302452942162518E-002
 PAO| step     16                 -191.499237019  0.649E-03  0.397E+00     1.516
 PAO|LS| adapt:  T F F
 PAO|LS| adapt: scan_steps:    0.0000000000000000        0.0000000000000000        0.0000000000000000     
 PAO|LS| adapt: energies:   -191.49923701924689        0.0000000000000000        0.0000000000000000     
 PAO| ======================= Iteration:        17 =============================

     Lanczos converged:  F threshold:   0.100E-02
     Est. extremal eigenvalues:    0.480E+01   0.132E+00
     Est. condition number :    0.364E+02

 Order=           3
     NS sqrt iter    1 1.00000000   0.124E+01       0.021     2694.803
     NS sqrt iter    2 1.00000000   0.627E+00       0.034     3362.487
     NS sqrt iter    3 1.00000000   0.200E+00       0.034     3348.438
     NS sqrt iter    4 1.00000000   0.248E-01       0.034     3307.375
     NS sqrt iter    5 1.00000000   0.105E-03       0.034     3363.986
     NS sqrt iter    6 1.00000000   0.248E-10       0.018     2172.394
     Symmetrizing Results
     Final NS sqrt iter    6 1.00000000   0.215E-11

     Est. extremal eigenvalues     -0.83879     2.59733  converged:  T
     TRS4 it   1 1.00000000   0.286E+02       0.007     2144.080   0.100E-11
     TRS4 it   2 1.00000000   0.235E+02       0.013     2187.451   0.100E-11
     TRS4 it   3 1.00000000   0.155E+02       0.013     2193.636   0.100E-11
     TRS4 it   4 1.00000000   0.898E+01       0.013     2200.381   0.100E-11
     TRS4 it   5 1.00000000   0.370E+01       0.013     2167.333   0.100E-11
     TRS4 it   6 1.00000000   0.927E+00       0.013     2203.457   0.100E-11
     TRS4 it   7 1.00000000   0.107E+00       0.013     2205.754   0.100E-11
     TRS4 it   8 1.00000000   0.208E-02       0.013     2186.320   0.100E-11
     TRS4 it   9 1.00000000   0.962E-06       0.013     2157.827   0.100E-11
     TRS4 it  10 1.00000000   0.458E-12       0.013     2224.302   0.100E-11
     Final TRS4 iteration   10 1.00000000   0.458E-12
     Chemical potential (mu):       0.05603
 
 PAO| energy:  -191.50325305069629      penalty:   5.0430877569513602E-004
 PAO|LS| adapt:  T T F
 PAO|LS| adapt: scan_steps:    0.0000000000000000       0.39742748796276195        0.0000000000000000     
 PAO|LS| adapt: energies:   -191.49923701924689       -191.50325305069629        0.0000000000000000     
 PAO| ======================= Iteration:        18 =============================

     Lanczos converged:  F threshold:   0.100E-02
     Est. extremal eigenvalues:    0.476E+01   0.133E+00
     Est. condition number :    0.359E+02

 Order=           3
     NS sqrt iter    1 1.00000000   0.123E+01       0.021     2703.582
     NS sqrt iter    2 1.00000000   0.622E+00       0.034     3337.002
     NS sqrt iter    3 1.00000000   0.197E+00       0.034     3357.565
     NS sqrt iter    4 1.00000000   0.240E-01       0.034     3348.044
     NS sqrt iter    5 1.00000000   0.958E-04       0.034     3355.003
     NS sqrt iter    6 1.00000000   0.191E-10       0.017     2180.784
     Symmetrizing Results
     Final NS sqrt iter    6 1.00000000   0.204E-11

     Est. extremal eigenvalues     -0.83872     2.59618  converged:  T
     TRS4 it   1 1.00000000   0.286E+02       0.007     2142.599   0.100E-11
     TRS4 it   2 1.00000000   0.235E+02       0.013     2217.258   0.100E-11
     TRS4 it   3 1.00000000   0.155E+02       0.013     2198.149   0.100E-11
     TRS4 it   4 1.00000000   0.894E+01       0.013     2205.843   0.100E-11
     TRS4 it   5 1.00000000   0.366E+01       0.013     2191.712   0.100E-11
     TRS4 it   6 1.00000000   0.908E+00       0.013     2210.967   0.100E-11
     TRS4 it   7 1.00000000   0.103E+00       0.013     2204.002   0.100E-11
     TRS4 it   8 1.00000000   0.192E-02       0.013     2188.992   0.100E-11
     TRS4 it   9 1.00000000   0.822E-06       0.013     2184.959   0.100E-11
     TRS4 it  10 1.00000000   0.311E-12       0.013     2216.591   0.100E-11
     Final TRS4 iteration   10 1.00000000   0.311E-12
     Chemical potential (mu):       0.05723
 
 PAO| energy:  -191.42752918228962      penalty:   5.0616918448023469E-004
 PAO|LS| adapt:  T T T
 PAO|LS| adapt: scan_steps:    0.0000000000000000       0.39742748796276195       0.79485497592552390     
 PAO|LS| adapt: energies:   -191.49923701924689       -191.50325305069629       -191.42752918228962     
 PAO|LS| adapt: suggested step_size:   0.21872983747276878     
 PAO|LS| adapt: predicted energy  -191.51131365443791     
 PAO| ======================= Iteration:        19 =============================

     Lanczos converged:  F threshold:   0.100E-02
     Est. extremal eigenvalues:    0.482E+01   0.132E+00
     Est. condition number :    0.366E+02

 Order=           3
     NS sqrt iter    1 1.00000000   0.124E+01       0.021     2658.770
     NS sqrt iter    2 1.00000000   0.629E+00       0.034     3343.423
     NS sqrt iter    3 1.00000000   0.201E+00       0.034     3351.416
     NS sqrt iter    4 1.00000000   0.252E-01       0.034     3345.448
     NS sqrt iter    5 1.00000000   0.109E-03       0.034     3315.121
     NS sqrt iter    6 1.00000000   0.279E-10       0.019     2190.368
     Symmetrizing Results
     Final NS sqrt iter    6 1.00000000   0.214E-11

     Est. extremal eigenvalues     -0.83878     2.59787  converged:  T
     TRS4 it   1 1.00000000   0.286E+02       0.007     2099.096   0.100E-11
     TRS4 it   2 1.00000000   0.236E+02       0.013     2183.641   0.100E-11
     TRS4 it   3 1.00000000   0.155E+02       0.013     2206.038   0.100E-11
     TRS4 it   4 1.00000000   0.901E+01       0.013     2183.596   0.100E-11
     TRS4 it   5 1.00000000   0.372E+01       0.013     2195.318   0.100E-11
     TRS4 it   6 1.00000000   0.936E+00       0.013     2230.234   0.100E-11
     TRS4 it   7 1.00000000   0.109E+00       0.013     2207.388   0.100E-11
     TRS4 it   8 1.00000000   0.215E-02       0.013     2222.747   0.100E-11
     TRS4 it   9 1.00000000   0.103E-05       0.013     2184.075   0.100E-11
     TRS4 it  10 1.00000000   0.540E-12       0.013     2166.830   0.100E-11
     Final TRS4 iteration   10 1.00000000   0.540E-12
     Chemical potential (mu):       0.05551
 
 PAO| energy:  -191.51129789951565      penalty:   5.0617137630689063E-004
 PAO|CG| trace_G_new    2.1849237456665158E-002
 PAO|CG| trace_G_prev   0.11048206615288218     
 PAO|CG| trace_G_mix   -3.5900403579473340E-004
 PAO|CG| trace_D   0.16638296309774050     
 PAO|CG| trace_D_Gnew  -5.1714511432540970E-005
 PAO|CG| beta:   0.20101218474434313     
 PAO| norm of gradient:  0.14781487562713422     
 PAO| energy improvement:  -1.2060880268762730E-002
 PAO| step     19                 -191.511297900  0.289E-03  0.219E+00     1.515
 PAO|LS| adapt:  T F F
 PAO|LS| adapt: scan_steps:    0.0000000000000000        0.0000000000000000        0.0000000000000000     
 PAO|LS| adapt: energies:   -191.51129789951565        0.0000000000000000        0.0000000000000000     
 PAO| ======================= Iteration:        20 =============================

     Lanczos converged:  F threshold:   0.100E-02
     Est. extremal eigenvalues:    0.481E+01   0.132E+00
     Est. condition number :    0.366E+02

 Order=           3
     NS sqrt iter    1 1.00000000   0.124E+01       0.021     2682.752
     NS sqrt iter    2 1.00000000   0.629E+00       0.034     3356.905
     NS sqrt iter    3 1.00000000   0.201E+00       0.034     3343.365
     NS sqrt iter    4 1.00000000   0.252E-01       0.034     3363.301
     NS sqrt iter    5 1.00000000   0.109E-03       0.034     3367.348
     NS sqrt iter    6 1.00000000   0.277E-10       0.019     2191.944
     Symmetrizing Results
     Final NS sqrt iter    6 1.00000000   0.216E-11

     Est. extremal eigenvalues     -0.83879     2.59680  converged:  T
     TRS4 it   1 1.00000000   0.286E+02       0.007     2112.035   0.100E-11
     TRS4 it   2 1.00000000   0.235E+02       0.013     2207.683   0.100E-11
     TRS4 it   3 1.00000000   0.155E+02       0.013     2192.802   0.100E-11
     TRS4 it   4 1.00000000   0.899E+01       0.013     2189.296   0.100E-11
     TRS4 it   5 1.00000000   0.371E+01       0.013     2202.547   0.100E-11
     TRS4 it   6 1.00000000   0.932E+00       0.013     2180.483   0.100E-11
     TRS4 it   7 1.00000000   0.108E+00       0.013     2186.037   0.100E-11
     TRS4 it   8 1.00000000   0.212E-02       0.013     2175.192   0.100E-11
     TRS4 it   9 1.00000000   0.100E-05       0.013     2220.607   0.100E-11
     TRS4 it  10 1.00000000   0.485E-12       0.013     2221.881   0.100E-11
     Final TRS4 iteration   10 1.00000000   0.485E-12
     Chemical potential (mu):       0.05570
 
 PAO| energy:  -191.51516154170406      penalty:   4.9667818295192061E-004
 PAO|LS| adapt:  T T F
 PAO|LS| adapt: scan_steps:    0.0000000000000000       0.21872983747276878        0.0000000000000000     
 PAO|LS| adapt: energies:   -191.51129789951565       -191.51516154170406        0.0000000000000000     
 PAO| ======================= Iteration:        21 =============================

     Lanczos converged:  F threshold:   0.100E-02
     Est. extremal eigenvalues:    0.481E+01   0.132E+00
     Est. condition number :    0.366E+02

 Order=           3
     NS sqrt iter    1 1.00000000   0.124E+01       0.021     2692.055
     NS sqrt iter    2 1.00000000   0.629E+00       0.034     3346.642
     NS sqrt iter    3 1.00000000   0.201E+00       0.034     3363.499
     NS sqrt iter    4 1.00000000   0.251E-01       0.034     3342.276
     NS sqrt iter    5 1.00000000   0.109E-03       0.034     3331.183
     NS sqrt iter    6 1.00000000   0.274E-10       0.018     2201.560
     Symmetrizing Results
     Final NS sqrt iter    6 1.00000000   0.218E-11

     Est. extremal eigenvalues     -0.83879     2.59574  converged:  T
     TRS4 it   1 1.00000000   0.286E+02       0.007     2128.752   0.100E-11
     TRS4 it   2 1.00000000   0.235E+02       0.013     2206.093   0.100E-11
     TRS4 it   3 1.00000000   0.155E+02       0.013     2171.482   0.100E-11
     TRS4 it   4 1.00000000   0.898E+01       0.013     2206.286   0.100E-11
     TRS4 it   5 1.00000000   0.370E+01       0.013     2191.334   0.100E-11
     TRS4 it   6 1.00000000   0.927E+00       0.013     2206.120   0.100E-11
     TRS4 it   7 1.00000000   0.108E+00       0.013     2212.012   0.100E-11
     TRS4 it   8 1.00000000   0.209E-02       0.013     2236.909   0.100E-11
     TRS4 it   9 1.00000000   0.972E-06       0.013     2203.197   0.100E-11
     TRS4 it  10 1.00000000   0.490E-12       0.013     2217.144   0.100E-11
     Final TRS4 iteration   10 1.00000000   0.490E-12
     Chemical potential (mu):       0.05590
 
 PAO| energy:  -191.51717620971877      penalty:   4.8760566980775332E-004
 PAO|LS| adapt:  T T F
 PAO|LS| adapt: scan_steps:    0.0000000000000000       0.43745967494553756        0.0000000000000000     
 PAO|LS| adapt: energies:   -191.51129789951565       -191.51717620971877        0.0000000000000000     
 PAO| ======================= Iteration:        22 =============================

     Lanczos converged:  F threshold:   0.100E-02
     Est. extremal eigenvalues:    0.480E+01   0.131E+00
     Est. condition number :    0.365E+02

 Order=           3
     NS sqrt iter    1 1.00000000   0.123E+01       0.021     2697.872
     NS sqrt iter    2 1.00000000   0.628E+00       0.034     3344.115
     NS sqrt iter    3 1.00000000   0.201E+00       0.034     3354.737
     NS sqrt iter    4 1.00000000   0.251E-01       0.034     3372.254
     NS sqrt iter    5 1.00000000   0.109E-03       0.034     3330.738
     NS sqrt iter    6 1.00000000   0.271E-10       0.018     2181.005
     Symmetrizing Results
     Final NS sqrt iter    6 1.00000000   0.216E-11

     Est. extremal eigenvalues     -0.83879     2.59361  converged:  T
     TRS4 it   1 1.00000000   0.286E+02       0.007     2101.707   0.100E-11
     TRS4 it   2 1.00000000   0.235E+02       0.013     2214.599   0.100E-11
     TRS4 it   3 1.00000000   0.155E+02       0.013     2191.912   0.100E-11
     TRS4 it   4 1.00000000   0.896E+01       0.013     2182.673   0.100E-11
     TRS4 it   5 1.00000000   0.368E+01       0.013     2225.976   0.100E-11
     TRS4 it   6 1.00000000   0.919E+00       0.013     2176.760   0.100E-11
     TRS4 it   7 1.00000000   0.106E+00       0.013     2189.670   0.100E-11
     TRS4 it   8 1.00000000   0.202E-02       0.013     2211.921   0.100E-11
     TRS4 it   9 1.00000000   0.914E-06       0.013     2207.981   0.100E-11
     TRS4 it  10 1.00000000   0.409E-12       0.013     2208.353   0.100E-11
     Final TRS4 iteration   10 1.00000000   0.409E-12
     Chemical potential (mu):       0.05629
 
 PAO| energy:  -191.51557666269298      penalty:   4.7069698090886856E-004
 PAO|LS| Need extra step
 PAO|LS| adapt:  T T T
 PAO|LS| adapt: scan_steps:    0.0000000000000000       0.43745967494553756       0.87491934989107512     
 PAO|LS| adapt: energies:   -191.51129789951565       -191.51717620971877       -191.51557666269298     
 PAO|LS| adapt: suggested step_size:   0.56261493610016622     
 PAO|LS| adapt: predicted energy  -191.51748224348231     
 PAO| ======================= Iteration:        23 =============================

     Lanczos converged:  F threshold:   0.100E-02
     Est. extremal eigenvalues:    0.481E+01   0.131E+00
     Est. condition number :    0.365E+02

 Order=           3
     NS sqrt iter    1 1.00000000   0.124E+01       0.021     2678.740
     NS sqrt iter    2 1.00000000   0.628E+00       0.034     3348.984
     NS sqrt iter    3 1.00000000   0.201E+00       0.034     3338.320
     NS sqrt iter    4 1.00000000   0.251E-01       0.034     3329.717
     NS sqrt iter    5 1.00000000   0.109E-03       0.034     3347.135
     NS sqrt iter    6 1.00000000   0.273E-10       0.018     2197.948
     Symmetrizing Results
     Final NS sqrt iter    6 1.00000000   0.218E-11

     Est. extremal eigenvalues     -0.83879     2.59513  converged:  T
     TRS4 it   1 1.00000000   0.286E+02       0.007     2103.978   0.100E-11
     TRS4 it   2 1.00000000   0.235E+02       0.013     2198.954   0.100E-11
     TRS4 it   3 1.00000000   0.155E+02       0.013     2221.691   0.100E-11
     TRS4 it   4 1.00000000   0.898E+01       0.013     2216.030   0.100E-11
     TRS4 it   5 1.00000000   0.369E+01       0.013     2202.682   0.100E-11
     TRS4 it   6 1.00000000   0.925E+00       0.013     2212.079   0.100E-11
     TRS4 it   7 1.00000000   0.107E+00       0.013     2212.659   0.100E-11
     TRS4 it   8 1.00000000   0.207E-02       0.013     2211.593   0.100E-11
     TRS4 it   9 1.00000000   0.955E-06       0.013     2221.212   0.100E-11
     TRS4 it  10 1.00000000   0.457E-12       0.013     2191.447   0.100E-11
     Final TRS4 iteration   10 1.00000000   0.457E-12
     Chemical potential (mu):       0.05601
 
 PAO| energy:  -191.51748944189328      penalty:   4.8260098939637979E-004
 PAO|CG| trace_G_new    1.7103384365258795E-002
 PAO|CG| trace_G_prev    2.1849237456665158E-002
 PAO|CG| trace_G_mix    1.1679580439016228E-004
 PAO|CG| trace_D    2.8592881055546700E-002
 PAO|CG| trace_D_Gnew  -4.7323946575888792E-005
 PAO|CG| beta:   0.77744537284466364     
 PAO| norm of gradient:  0.13077990810999524     
 PAO| energy improvement:  -6.1915423776213174E-003
 PAO| step     23                 -191.517489442  0.255E-03  0.563E+00     1.968
 PAO|LS| adapt:  T F F
 PAO|LS| adapt: scan_steps:    0.0000000000000000        0.0000000000000000        0.0000000000000000     
 PAO|LS| adapt: energies:   -191.51748944189328        0.0000000000000000        0.0000000000000000     
 PAO| ======================= Iteration:        24 =============================

     Lanczos converged:  F threshold:   0.100E-02
     Est. extremal eigenvalues:    0.479E+01   0.131E+00
     Est. condition number :    0.365E+02

 Order=           3
     NS sqrt iter    1 1.00000000   0.123E+01       0.021     2691.270
     NS sqrt iter    2 1.00000000   0.627E+00       0.034     3359.562
     NS sqrt iter    3 1.00000000   0.200E+00       0.034     3328.789
     NS sqrt iter    4 1.00000000   0.251E-01       0.034     3353.014
     NS sqrt iter    5 1.00000000   0.109E-03       0.034     3361.543
     NS sqrt iter    6 1.00000000   0.271E-10       0.018     2191.311
     Symmetrizing Results
     Final NS sqrt iter    6 1.00000000   0.217E-11

     Est. extremal eigenvalues     -0.83879     2.59164  converged:  T
     TRS4 it   1 1.00000000   0.286E+02       0.007     2126.805   0.100E-11
     TRS4 it   2 1.00000000   0.235E+02       0.013     2169.734   0.100E-11
     TRS4 it   3 1.00000000   0.155E+02       0.013     2187.947   0.100E-11
     TRS4 it   4 1.00000000   0.895E+01       0.013     2196.212   0.100E-11
     TRS4 it   5 1.00000000   0.367E+01       0.013     2200.934   0.100E-11
     TRS4 it   6 1.00000000   0.916E+00       0.013     2220.344   0.100E-11
     TRS4 it   7 1.00000000   0.105E+00       0.013     2198.463   0.100E-11
     TRS4 it   8 1.00000000   0.199E-02       0.013     2199.342   0.100E-11
     TRS4 it   9 1.00000000   0.889E-06       0.013     2227.828   0.100E-11
     TRS4 it  10 1.00000000   0.435E-12       0.013     2216.617   0.100E-11
     Final TRS4 iteration   10 1.00000000   0.435E-12
     Chemical potential (mu):       0.05646
 
 PAO| energy:  -191.52044497686492      penalty:   4.4527185454550474E-004
 PAO|LS| adapt:  T T F
 PAO|LS| adapt: scan_steps:    0.0000000000000000       0.56261493610016622        0.0000000000000000     
 PAO|LS| adapt: energies:   -191.51748944189328       -191.52044497686492        0.0000000000000000     
 PAO| ======================= Iteration:        25 =============================

     Lanczos converged:  F threshold:   0.100E-02
     Est. extremal eigenvalues:    0.478E+01   0.131E+00
     Est. condition number :    0.365E+02

 Order=           3
     NS sqrt iter    1 1.00000000   0.123E+01       0.021     2683.653
     NS sqrt iter    2 1.00000000   0.626E+00       0.034     3355.947
     NS sqrt iter    3 1.00000000   0.200E+00       0.034     3341.288
     NS sqrt iter    4 1.00000000   0.251E-01       0.034     3349.072
     NS sqrt iter    5 1.00000000   0.109E-03       0.034     3337.994
     NS sqrt iter    6 1.00000000   0.270E-10       0.018     2186.585
     Symmetrizing Results
     Final NS sqrt iter    6 1.00000000   0.217E-11

     Est. extremal eigenvalues     -0.83876     2.58800  converged:  T
     TRS4 it   1 1.00000000   0.286E+02       0.007     2161.908   0.100E-11
     TRS4 it   2 1.00000000   0.235E+02       0.013     2204.161   0.100E-11
     TRS4 it   3 1.00000000   0.155E+02       0.013     2184.040   0.100E-11
     TRS4 it   4 1.00000000   0.892E+01       0.013     2222.588   0.100E-11
     TRS4 it   5 1.00000000   0.365E+01       0.013     2174.686   0.100E-11
     TRS4 it   6 1.00000000   0.906E+00       0.013     2228.124   0.100E-11
     TRS4 it   7 1.00000000   0.103E+00       0.013     2191.919   0.100E-11
     TRS4 it   8 1.00000000   0.192E-02       0.013     2231.704   0.100E-11
     TRS4 it   9 1.00000000   0.827E-06       0.013     2203.802   0.100E-11
     TRS4 it  10 1.00000000   0.359E-12       0.013     2240.519   0.100E-11
     Final TRS4 iteration   10 1.00000000   0.359E-12
     Chemical potential (mu):       0.05691
 
 PAO| energy:  -191.50980561791053      penalty:   4.1200754864758314E-004
 PAO|LS| adapt:  T T T
 PAO|LS| adapt: scan_steps:    0.0000000000000000       0.56261493610016622        1.1252298722003324     
 PAO|LS| adapt: energies:   -191.51748944189328       -191.52044497686492       -191.50980561791053     
 PAO|LS| adapt: suggested step_size:   0.40362016340919893     
 PAO|LS| adapt: predicted energy  -191.52098783831826     
 PAO| ======================= Iteration:        26 =============================

     Lanczos converged:  F threshold:   0.100E-02
     Est. extremal eigenvalues:    0.480E+01   0.131E+00
     Est. condition number :    0.365E+02

 Order=           3
     NS sqrt iter    1 1.00000000   0.123E+01       0.021     2703.585
     NS sqrt iter    2 1.00000000   0.627E+00       0.034     3334.811
     NS sqrt iter    3 1.00000000   0.200E+00       0.034     3358.907
     NS sqrt iter    4 1.00000000   0.251E-01       0.034     3368.141
     NS sqrt iter    5 1.00000000   0.109E-03       0.034     3364.024
     NS sqrt iter    6 1.00000000   0.271E-10       0.018     2199.799
     Symmetrizing Results
     Final NS sqrt iter    6 1.00000000   0.217E-11

     Est. extremal eigenvalues     -0.83879     2.59264  converged:  T
     TRS4 it   1 1.00000000   0.286E+02       0.007     2155.996   0.100E-11
     TRS4 it   2 1.00000000   0.235E+02       0.013     2181.631   0.100E-11
     TRS4 it   3 1.00000000   0.155E+02       0.013     2194.905   0.100E-11
     TRS4 it   4 1.00000000   0.896E+01       0.013     2192.779   0.100E-11
     TRS4 it   5 1.00000000   0.368E+01       0.013     2199.303   0.100E-11
     TRS4 it   6 1.00000000   0.918E+00       0.013     2206.430   0.100E-11
     TRS4 it   7 1.00000000   0.106E+00       0.013     2206.178   0.100E-11
     TRS4 it   8 1.00000000   0.202E-02       0.013     2207.811   0.100E-11
     TRS4 it   9 1.00000000   0.907E-06       0.013     2200.617   0.100E-11
     TRS4 it  10 1.00000000   0.398E-12       0.013     2207.662   0.100E-11
     Final TRS4 iteration   10 1.00000000   0.398E-12
     Chemical potential (mu):       0.05633
 
 PAO| energy:  -191.52097348964182      penalty:   4.5540109900524321E-004
 PAO|CG| trace_G_new    1.2737543499105605E-002
 PAO|CG| trace_G_prev    1.7103384365258795E-002
 PAO|CG| trace_G_mix    2.4155898647109302E-004
 PAO|CG| trace_D    3.4459114491989559E-002
 PAO|CG| trace_D_Gnew  -7.4359246589752900E-005
 PAO|CG| beta:   0.73061472780889769     
 PAO| norm of gradient:  0.11286072611455947     
 PAO| energy improvement:  -3.4840477485431620E-003
 PAO| step     26                 -191.520973490  0.220E-03  0.404E+00     1.516
 PAO|LS| adapt:  T F F
 PAO|LS| adapt: scan_steps:    0.0000000000000000        0.0000000000000000        0.0000000000000000     
 PAO|LS| adapt: energies:   -191.52097348964182        0.0000000000000000        0.0000000000000000     
 PAO| ======================= Iteration:        27 =============================

     Lanczos converged:  F threshold:   0.100E-02
     Est. extremal eigenvalues:    0.478E+01   0.131E+00
     Est. condition number :    0.365E+02

 Order=           3
     NS sqrt iter    1 1.00000000   0.123E+01       0.021     2696.774
     NS sqrt iter    2 1.00000000   0.626E+00       0.034     3366.008
     NS sqrt iter    3 1.00000000   0.200E+00       0.034     3362.183
     NS sqrt iter    4 1.00000000   0.250E-01       0.034     3335.060
     NS sqrt iter    5 1.00000000   0.108E-03       0.034     3326.283
     NS sqrt iter    6 1.00000000   0.270E-10       0.018     2183.532
     Symmetrizing Results
     Final NS sqrt iter    6 1.00000000   0.217E-11

     Est. extremal eigenvalues     -0.83879     2.59098  converged:  T
     TRS4 it   1 1.00000000   0.286E+02       0.007     2158.835   0.100E-11
     TRS4 it   2 1.00000000   0.235E+02       0.013     2205.684   0.100E-11
     TRS4 it   3 1.00000000   0.155E+02       0.013     2179.292   0.100E-11
     TRS4 it   4 1.00000000   0.894E+01       0.013     2215.273   0.100E-11
     TRS4 it   5 1.00000000   0.366E+01       0.013     2189.301   0.100E-11
     TRS4 it   6 1.00000000   0.911E+00       0.013     2220.087   0.100E-11
     TRS4 it   7 1.00000000   0.104E+00       0.013     2207.345   0.100E-11
     TRS4 it   8 1.00000000   0.196E-02       0.013     2184.615   0.100E-11
     TRS4 it   9 1.00000000   0.855E-06       0.013     2202.468   0.100E-11
     TRS4 it  10 1.00000000   0.373E-12       0.013     2200.633   0.100E-11
     Final TRS4 iteration   10 1.00000000   0.373E-12
     Chemical potential (mu):       0.05672
 
 PAO| energy:  -191.52366916269003      penalty:   4.2263337829254107E-004
 PAO|LS| adapt:  T T F
 PAO|LS| adapt: scan_steps:    0.0000000000000000       0.40362016340919893        0.0000000000000000     
 PAO|LS| adapt: energies:   -191.52097348964182       -191.52366916269003        0.0000000000000000     
 PAO| ======================= Iteration:        28 =============================

     Lanczos converged:  F threshold:   0.100E-02
     Est. extremal eigenvalues:    0.477E+01   0.131E+00
     Est. condition number :    0.365E+02

 Order=           3
     NS sqrt iter    1 1.00000000   0.123E+01       0.021     2670.365
     NS sqrt iter    2 1.00000000   0.624E+00       0.034     3361.526
     NS sqrt iter    3 1.00000000   0.199E+00       0.034     3367.179
     NS sqrt iter    4 1.00000000   0.249E-01       0.034     3336.422
     NS sqrt iter    5 1.00000000   0.108E-03       0.034     3342.710
     NS sqrt iter    6 1.00000000   0.270E-10       0.018     2202.608
     Symmetrizing Results
     Final NS sqrt iter    6 1.00000000   0.217E-11

     Est. extremal eigenvalues     -0.83879     2.58922  converged:  T
     TRS4 it   1 1.00000000   0.286E+02       0.007     2122.196   0.100E-11
     TRS4 it   2 1.00000000   0.235E+02       0.013     2194.778   0.100E-11
     TRS4 it   3 1.00000000   0.155E+02       0.013     2173.024   0.100E-11
     TRS4 it   4 1.00000000   0.892E+01       0.013     2238.522   0.100E-11
     TRS4 it   5 1.00000000   0.365E+01       0.013     2214.122   0.100E-11
     TRS4 it   6 1.00000000   0.904E+00       0.013     2191.268   0.100E-11
     TRS4 it   7 1.00000000   0.103E+00       0.013     2195.899   0.100E-11
     TRS4 it   8 1.00000000   0.190E-02       0.013     2196.917   0.100E-11
     TRS4 it   9 1.00000000   0.807E-06       0.013     2222.582   0.100E-11
     TRS4 it  10 1.00000000   0.336E-12       0.013     2234.068   0.100E-11
     Final TRS4 iteration   10 1.00000000   0.336E-12
     Chemical potential (mu):       0.05711
 
 PAO| energy:  -191.52138864813648      penalty:   3.9242677438360295E-004
 PAO|LS| adapt:  T T T
 PAO|LS| adapt: scan_steps:    0.0000000000000000       0.40362016340919893       0.80724032681839786     
 PAO|LS| adapt: energies:   -191.52097348964182       -191.52366916269003       -191.52138864813648     
 PAO|LS| adapt: suggested step_size:   0.42045698236240375     
 PAO|LS| adapt: predicted energy  -191.52367349222374     
 PAO| ======================= Iteration:        29 =============================

     Lanczos converged:  F threshold:   0.100E-02
     Est. extremal eigenvalues:    0.478E+01   0.131E+00
     Est. condition number :    0.365E+02

 Order=           3
     NS sqrt iter    1 1.00000000   0.123E+01       0.021     2674.581
     NS sqrt iter    2 1.00000000   0.626E+00       0.034     3366.997
     NS sqrt iter    3 1.00000000   0.200E+00       0.034     3361.701
     NS sqrt iter    4 1.00000000   0.250E-01       0.034     3352.854
     NS sqrt iter    5 1.00000000   0.108E-03       0.034     3348.205
     NS sqrt iter    6 1.00000000   0.270E-10       0.018     2198.718
     Symmetrizing Results
     Final NS sqrt iter    6 1.00000000   0.217E-11

     Est. extremal eigenvalues     -0.83879     2.59090  converged:  T
     TRS4 it   1 1.00000000   0.286E+02       0.007     2132.507   0.100E-11
     TRS4 it   2 1.00000000   0.235E+02       0.013     2207.321   0.100E-11
     TRS4 it   3 1.00000000   0.155E+02       0.013     2207.402   0.100E-11
     TRS4 it   4 1.00000000   0.894E+01       0.013     2178.090   0.100E-11
     TRS4 it   5 1.00000000   0.366E+01       0.013     2234.905   0.100E-11
     TRS4 it   6 1.00000000   0.911E+00       0.013     2195.760   0.100E-11
     TRS4 it   7 1.00000000   0.104E+00       0.013     2192.544   0.100E-11
     TRS4 it   8 1.00000000   0.195E-02       0.013     2214.444   0.100E-11
     TRS4 it   9 1.00000000   0.853E-06       0.013     2214.263   0.100E-11
[...]
     TRS4 it   3 1.00000000   0.156E+02       0.015     1957.682   0.100E-11
     TRS4 it   4 1.00000000   0.927E+01       0.014     1962.881   0.100E-11
     TRS4 it   5 1.00000000   0.414E+01       0.015     1909.677   0.100E-11
     TRS4 it   6 1.00000000   0.128E+01       0.015     1945.545   0.100E-11
     TRS4 it   7 1.00000000   0.228E+00       0.013     2110.235   0.100E-11
     TRS4 it   8 1.00000000   0.112E-01       0.014     1969.683   0.100E-11
     TRS4 it   9 1.00000000   0.338E-04       0.014     1972.284   0.100E-11
     TRS4 it  10 1.00000000   0.490E-09       0.015     1954.881   0.100E-11
     TRS4 it  11 1.00000000   0.160E-13       0.015     1890.492   0.100E-11
     Final TRS4 iteration   11 1.00000000   0.160E-13
     Chemical potential (mu):       0.02290
 
 PAO| energy:  -191.14900464654440      penalty:   1.3818549839227107E-008
 PAO| Writing restart file.
     Est. extremal eigenvalues     -0.83922     2.58848  converged:  T
     TRS4 it   1 1.00000000   0.289E+02       0.007     1969.300   0.100E-11
     TRS4 it   2 1.00000000   0.237E+02       0.014     2080.887   0.100E-11
     TRS4 it   3 1.00000000   0.156E+02       0.014     2094.513   0.100E-11
     TRS4 it   4 1.00000000   0.927E+01       0.015     1961.551   0.100E-11
     TRS4 it   5 1.00000000   0.414E+01       0.015     1957.797   0.100E-11
     TRS4 it   6 1.00000000   0.128E+01       0.013     2117.412   0.100E-11
     TRS4 it   7 1.00000000   0.228E+00       0.013     2170.782   0.100E-11
     TRS4 it   8 1.00000000   0.112E-01       0.013     2113.558   0.100E-11
     TRS4 it   9 1.00000000   0.338E-04       0.014     2031.565   0.100E-11
     TRS4 it  10 1.00000000   0.490E-09       0.015     1931.945   0.100E-11
     TRS4 it  11 1.00000000   0.160E-13       0.015     1918.445   0.100E-11
     Final TRS4 iteration   11 1.00000000   0.160E-13
     Chemical potential (mu):       0.02290

 SCF     1     -1103.055870814     -1103.055870814    2.015046

*********************************************************
 Using MIXING_FRACTION=0.450 to mix KS matrix:  iscf=  2
 KS_nw=0.450*KS + 0.550*KS_old
*********************************************************
     Est. extremal eigenvalues     -0.83922     2.58848  converged:  T
     TRS4 it   1 1.00000000   0.289E+02       0.008     1893.881   0.100E-11
     TRS4 it   2 1.00000000   0.237E+02       0.014     2004.763   0.100E-11
     TRS4 it   3 1.00000000   0.156E+02       0.014     2037.256   0.100E-11
     TRS4 it   4 1.00000000   0.927E+01       0.014     1971.059   0.100E-11
     TRS4 it   5 1.00000000   0.414E+01       0.014     2015.134   0.100E-11
     TRS4 it   6 1.00000000   0.128E+01       0.014     2019.316   0.100E-11
     TRS4 it   7 1.00000000   0.228E+00       0.014     2035.984   0.100E-11
     TRS4 it   8 1.00000000   0.112E-01       0.014     2008.346   0.100E-11
     TRS4 it   9 1.00000000   0.338E-04       0.014     2015.678   0.100E-11
     TRS4 it  10 1.00000000   0.490E-09       0.015     1926.311   0.100E-11
     TRS4 it  11 1.00000000   0.107E-13       0.014     2013.197   0.100E-11
     Final TRS4 iteration   11 1.00000000   0.107E-13
     Chemical potential (mu):       0.02290

 SCF     2     -1103.055870814        -0.000000000    1.999759


 SCF run converged in     2 steps.

 PAO| Storing density matrix for ASPC guess in slot:           1

 ENERGY| Total FORCE_EVAL ( QS ) energy [a.u.]:            -1103.055870814387163

 -------------------------------------------------------------------------------
 -                                                                             -
 -                                DBCSR STATISTICS                             -
 -                                                                             -
 -------------------------------------------------------------------------------
 COUNTER                                    TOTAL       BLAS       SMM       ACC
 flops     5 x     5 x     4             23116800       0.0%    100.0%      0.0%     
 flops    13 x     5 x     4             29818880       0.0%    100.0%      0.0%     
 flops     5 x    13 x     4             29818880       0.0%    100.0%      0.0%     
 flops    13 x    13 x     4             39370240       0.0%    100.0%      0.0%     
 flops     4 x     4 x     5           6491996160       0.0%    100.0%      0.0%     
 flops     5 x     4 x     5           8015052800       0.0%    100.0%      0.0%     
 flops     4 x     4 x    13           8439595008       0.0%    100.0%      0.0%     
 flops    13 x     4 x     5          10419568640       0.0%    100.0%      0.0%     
 flops     5 x     4 x    13          10419568640       0.0%    100.0%      0.0%     
 flops    13 x     4 x    13          13545439232       0.0%    100.0%      0.0%     
 flops     5 x     4 x     4         404218804960       0.0%    100.0%      0.0%     
 flops    13 x     4 x     4         533728967200       0.0%    100.0%      0.0%     
 flops     4 x     4 x     4       29780855829888       0.0%    100.0%      0.0%     
 flops inhomo. stacks                           0       0.0%      0.0%      0.0%
 flops total                        30.776257E+12       0.0%    100.0%      0.0%
 flops max/rank                    972.126386E+09       0.0%    100.0%      0.0%
 matmuls inhomo. stacks                         0       0.0%      0.0%      0.0%
 matmuls total                       236623597227       0.0%    100.0%      0.0%
 number of processed stacks             241733896       0.0%    100.0%      0.0%
 average stack size                                     0.0     978.9       0.0
 marketing flops                    53.343494E+12
 -------------------------------------------------------------------------------
 # multiplications                          50046
 max memory usage/rank             618.557440E+06
 # max total images/rank                        2
 # max 3D layers                                1
 # MPI messages exchanged                20819136
 MPI messages size (bytes):
  total size                         2.468341E+12
  min size                           0.000000E+00
  max size                         541.696000E+03
  average size                     118.561141E+03
 MPI breakdown and total messages size (bytes):
             size <=      128              890712                    15744
       128 < size <=     8192              337203               1303263360
      8192 < size <=    32768               54796               1330826880
     32768 < size <=   131072             8930861             663750133760
    131072 < size <=  4194304            10605564            1802400473088
   4194304 < size <= 16777216                   0                        0
  16777216 < size                               0                        0
 -------------------------------------------------------------------------------

 *** WARNING in dbcsr_mm.F:301 :: Using a non-square number of MPI ranks ***
 *** might lead to poor performance. Used ranks: 32 Suggested: 36 64     ***

 -------------------------------------------------------------------------------
 -                                                                             -
 -                      DBCSR MESSAGE PASSING PERFORMANCE                      -
 -                                                                             -
 -------------------------------------------------------------------------------
 ROUTINE             CALLS      AVE VOLUME [Bytes]
 MP_Bcast               14                     12.
 MP_Allreduce       301149                     37.
 MP_Alltoall        129250                  14593.
 MP_ISend          1674744                  55150.
 MP_IRecv          1638108                  56463.
 -------------------------------------------------------------------------------

 -------------------------------------------------------------------------------
 -                                                                             -
 -                                DBM STATISTICS                               -
 -                                                                             -
 -------------------------------------------------------------------------------
    M  x    N  x    K                                          COUNT     PERCENT
 -------------------------------------------------------------------------------

 -------------------------------------------------------------------------------
 -                                                                             -
 -                                GRID STATISTICS                              -
 -                                                                             -
 -------------------------------------------------------------------------------
 LP    KERNEL             BACKEND                              COUNT     PERCENT
 2     collocate ortho    CPU                               11473210      28.83%
 2     integrate ortho    CPU                               11473210      28.83%
 3     collocate ortho    CPU                                7373506      18.53%
 3     integrate ortho    CPU                                7373506      18.53%
 4     collocate ortho    CPU                                1045716       2.63%
 4     integrate ortho    CPU                                1045716       2.63%
 0     collocate general  CPU                                   6144       0.02%
 -------------------------------------------------------------------------------

 MEMORY| Estimated peak process memory [MiB]                                 590

 -------------------------------------------------------------------------------
 -                                                                             -
 -                         MESSAGE PASSING PERFORMANCE                         -
 -                                                                             -
 -------------------------------------------------------------------------------

 ROUTINE             CALLS      AVE VOLUME [Bytes]
 MP_Group                5
 MP_Bcast           395748                   1871.
 MP_Allreduce       983207                    514.
 MP_Sync                 5
 MP_Alltoall           369
 MP_SendRecv          1302                  18832.
 MP_ISendRecv         1302                  18832.
 MP_Wait              3696
 MP_ISend             2166                 108220.
 MP_IRecv             2166                 108236.
 -------------------------------------------------------------------------------


 -------------------------------------------------------------------------------
 -                                                                             -
 -                           R E F E R E N C E S                               -
 -                                                                             -
 -------------------------------------------------------------------------------
 
 CP2K version 2024.3 (Development Version), the CP2K developers group (2024).
 CP2K is freely available from https://www.cp2k.org/ .
 
 T. D. Kuehne, M. Iannuzzi, M. Del Ben, V. V. Rybkin, P. Seewald, F. Stein, T. 
 Laino, R. Z. Khaliullin, O. Schuett, F. Schiffmann, D. Golze, J. Wilhelm, S. 
 Chulkov, M. H. Bani-Hashemian, V. Weber, U. Borstnik, M. Taillefumier, A. S. 
 Jakobovits, A. Lazzaro, H. Pabst, T. Mueller, R. Schade, M. Guidon, S. 
 Andermatt, N. Holmberg, G. K. Schenter, A. Hehn, A. Bussy, F. Belleflamme, G. 
 Tabacchi, A. Gloess, M. Lass, I. Bethune, C. J. Mundy, C. Plessl, M. Watkins, 
 J. VandeVondele, M. Krack, J. Hutter.
 J. Chem. Phys. 152, 194103 (2020).
 CP2K: An electronic structure and molecular dynamics software package - 
 Quickstep: Efficient and accurate electronic structure calculations.
 https://doi.org/10.1063/5.0007045

 O. Schuett, J. VandeVondele.
 J. Chem. Theory Comput. 14, 4168-4175 (2018).
 Machine Learning Adaptive Basis Sets for Efficient Large Scale Density 
 Functional Theory Simulation.
 https://doi.org/10.1021/acs.jctc.8b00378

 O. Schuett, P. Messmer, J. Hutter, J. VandeVondele.
 Electronic Structure Calculations on Graphics Processing Units, 173-190 (2016).
 GPU-Accelerated Sparse Matrix-Matrix Multiplication for Linear Scaling Density 
 Functional Theory.
 https://doi.org/10.1002/9781118670712.ch8

 A. Heinecke, G. Henry, M. Hutchinson, H. Pabst.
 Proceedings of Intl. Supercomputing Conference, 981-991 (2016).
 LIBXSMM: Accelerating Small Matrix Multiplications by Runtime Code Generation.
 https://doi.org/10.1109/SC.2016.83

 J. Hutter, M. Iannuzzi, F. Schiffmann, J. VandeVondele.
 WIREs Comput Mol Sci. 4, 15-25 (2014).
 CP2K: atomistic simulations of condensed matter systems.
 https://doi.org/10.1002/wcms.1159

 U. Borstnik, J. VandeVondele, V. Weber, J. Hutter.
 Parallel Comput. 40, 47-58 (2014).
 Sparse matrix multiplication: The distributed block-compressed sparse row 
 library.
 https://doi.org/10.1016/j.parco.2014.03.012

 A. Marek, V. Blum, R. Johanni, V. Havu, B. Lang, T. Auckenthaler, A. Heinecke, 
 H. Bungartz, H. Lederer.
 J. Phys. Condens. Matter 26, 213201 (2014).
 The ELPA library: scalable parallel eigenvalue solutions for electronic 
 structure theory and computational science.
 https://doi.org/10.1088/0953-8984/26/21/213201

 J. VandeVondele, U. Borstnik, J. Hutter.
 J. Chem. Theory Comput. 8, 3565-3573 (2012).
 Linear Scaling Self-Consistent Field Calculations with Millions of Atoms in the 
 Condensed Phase.
 https://doi.org/10.1021/ct200897x

 J. VandeVondele, J. Hutter.
 J. Chem. Phys. 127, 114105 (2007).
 Gaussian basis sets for accurate calculations on molecular systems in gas and 
 condensed phases.
 https://doi.org/10.1063/1.2770708

 J. VandeVondele, M. Krack, F. Mohamed, M. Parrinello, T. Chassaing, J. Hutter.
 Comput. Phys. Commun. 167, 103-128 (2005).
 QUICKSTEP: Fast and accurate density functional calculations using a mixed 
 Gaussian and plane waves approach.
 https://doi.org/10.1016/j.cpc.2004.12.014

 M. Krack.
 Theor. Chem. Acc. 114, 145-152 (2005).
 Pseudopotentials for H to Kr optimized for gradient-corrected 
 exchange-correlation functionals.
 https://doi.org/10.1007/s00214-005-0655-y

 M. Frigo, S. G. Johnson.
 Proc. IEEE 93, 216-231 (2005).
 The design and implementation of FFTW3.
 https://doi.org/10.1109/JPROC.2004.840301

 A. M. N. Niklasson, C. J. Tymczak, M. Challacombe.
 J. Chem. Phys. 118, 8611-8620 (2003).
 Trace resetting density matrix purification in O(N) self-consistent-field 
 theory.
 https://doi.org/10.1063/1.1559913

 C. Hartwigsen, S. Goedecker, J. Hutter.
 Phys. Rev. B 58, 3641-3662 (1998).
 Relativistic separable dual-space Gaussian pseudopotentials from H to Rn.
 https://doi.org/10.1103/PhysRevB.58.3641

 G. Lippert, J. Hutter, M. Parrinello.
 Mol. Phys. 92, 477-487 (1997).
 A hybrid Gaussian and plane wave density functional scheme.
 https://doi.org/10.1080/002689797170220

 S. Goedecker, M. Teter, J. Hutter.
 Phys. Rev. B 54, 1703-1710 (1996).
 Separable dual-space Gaussian pseudopotentials.
 https://doi.org/10.1103/PhysRevB.54.1703

 J. P. Perdew, K. Burke, M. Ernzerhof.
 Phys. Rev. Lett. 77, 3865-3868 (1996).
 Generalized gradient approximation made simple.
 https://doi.org/10.1103/PhysRevLett.77.3865


 -------------------------------------------------------------------------------
 -                                                                             -
 -                                T I M I N G                                  -
 -                                                                             -
 -------------------------------------------------------------------------------
 SUBROUTINE                       CALLS  ASD         SELF TIME        TOTAL TIME
                                MAXIMUM       AVERAGE  MAXIMUM  AVERAGE  MAXIMUM
 CP2K                                 1  1.0    0.013    0.016  469.016  469.027
 qs_energies                          1  2.0    0.000    0.000  468.854  468.865
 ls_scf                               1  3.0    0.000    0.000  467.739  467.749
 pao_update                           6  4.0    0.006    0.025  437.623  437.632
 pao_calc_energy                    816  5.0    0.003    0.017  393.483  393.492
 dbcsr_multiply_generic           50046  8.4    1.405    1.457  356.831  357.152
 multiply_cannon                  50046  9.4    2.618    2.960  281.648  285.460
 multiply_cannon_loop             50046 10.4    1.884    2.201  270.709  275.002
 ls_scf_init_matrix_S               822  7.0    0.008    0.009  222.508  222.595
 pao_rebuild_S                      816  6.0    0.003    0.003  220.706  220.792
 matrix_sqrt_Newton_Schulz          822  8.0    0.172    0.291  207.184  207.213
 multiply_cannon_multrec         400368 11.4  177.814  180.057  178.642  180.854
 pao_dm_trs4                        816  6.0    0.006    0.007  172.207  172.238
 density_matrix_trs4                829  7.0    0.219    0.363  166.199  166.304
 mp_waitall_1                   3204474 12.6   88.502   94.883   88.502   94.883
 multiply_cannon_metrocomm3      400368 11.4    0.698    0.763   70.884   75.727
 arnoldi_extremal                  1651  8.5    0.013    0.015   72.216   72.253
 arnoldi_normal_ev                 1651  9.5    0.038    0.065   72.200   72.235
 build_subspace                    6392 10.6    0.392    0.421   64.113   64.183
 dbcsr_matrix_vector_mult        195062 11.6    0.837    1.259   56.313   58.193
 make_m2s                        100092  9.4    0.543    0.761   52.321   53.396
 make_images                     100092 10.4    7.377    7.572   50.959   52.105
 dbcsr_matrix_vector_mult_local  195062 12.6   46.134   47.149   46.353   47.378
 pao_calc_AB                       1082  5.8    0.002    0.002   43.676   43.678
 pao_calc_AB_equi                  1082  6.8    0.040    0.099   43.674   43.677
 pao_calc_grad_lnv_wrt_AB           265  7.0    0.020    0.024   43.192   43.241
 ls_scf_main                          6  4.0    0.000    0.001   26.611   26.612
 make_images_data                100092 11.4    0.873    1.104   21.638   23.888
 ls_scf_dm_to_ks                     13  5.0    0.000    0.000   23.681   23.685
 hybrid_alltoall_any             101732 12.4    0.916    1.718   16.934   20.292
 mp_sum_l                        204478  9.5   15.320   19.530   15.320   19.530
 matrix_qs_to_ls                   1651  7.5    0.016    0.023   17.342   17.424
 qs_ks_update_qs_env                 14  6.0    0.000    0.000   13.911   13.915
 rebuild_ks_matrix                   14  7.0    0.000    0.000   13.902   13.905
 qs_ks_build_kohn_sham_matrix        14  8.0    0.002    0.003   13.901   13.905
 dbcsr_multiply_generic_mpsum_f   36721  9.5    0.027    0.034   10.178   13.408
 calculate_norms                 747456 11.4   11.712   13.019   11.712   13.019
 mp_sum_dv                       776946 12.9   11.020   11.699   11.020   11.699
 make_images_pack                100092 11.4   11.139   11.504   11.275   11.643
 qs_rho_update_rho_low               14  6.0    0.000    0.000   11.233   11.235
 calculate_rho_elec                  14  7.0    0.005    0.005   11.233   11.235
 sum_up_and_integrate                14  9.0    0.000    0.000   10.891   10.895
 integrate_v_rspace                  14 10.0    0.000    0.001   10.877   10.882
 -------------------------------------------------------------------------------

 The number of warnings for this run is : 1
 
 -------------------------------------------------------------------------------
  **** **** ******  **  PROGRAM ENDED AT                 2024-09-24 06:56:07.270
 ***** ** ***  *** **   PROGRAM RAN ON                                    moritz
 **    ****   ******    PROGRAM RAN BY                                       ole
 ***** **    ** ** **   PROGRAM PROCESS ID                                170585
  **** **  *******  **  PROGRAM STOPPED IN /home/ole/git/pao_ml_equivar/64H2O_MD
                                           /Frame6900
