     192
 i =     6900, time =    10350.000, E =     -1100.0741408964
  O         5.9722797251       -3.2720878365        3.3420698163
  H         6.0261342306       -4.0245988624        2.7420816513
  H         6.7412583380       -3.4267244307        3.9449876682
  O        -5.6766161101        2.1937992372        5.2601316621
  H        -5.3821726824        1.4528416875        4.7409138952
  H        -5.2277015588        1.9881261197        6.1279919899
  O         6.7021983615        4.9691418247        5.3755655661
  H         5.7811331251        5.0513824661        5.2323456859
  H         6.7408513572        3.9943239212        5.2201544332
  O        -2.0910653605        0.7778299012       -3.6850921253
  H        -1.9482904441        1.3677060736       -2.9383055547
  H        -1.3428319151        0.1543553853       -3.5808968930
  O        -3.6216699125        5.1023468860        3.8753167161
  H        -4.5049817315        5.1972017703        4.2333560075
  H        -3.4769010506        5.9727592300        3.3684305714
  O         7.6498563957       -0.2754119276        3.9379394736
  H         7.7139826989       -1.0356017305        4.5879301581
  H         7.1021022606       -0.6386917478        3.1544874963
  O         3.4473930213       -5.4019379062        0.2803981427
  H         3.9125103817       -4.6490987105       -0.1249798437
  H         3.4339508478       -6.0610578561       -0.4387011754
  O        -0.8972733157       -2.0606871880       -0.6535096681
  H        -1.5922063831       -2.7368059457       -0.8345076499
  H        -1.4292421168       -1.2582966223       -0.4833381727
  O         3.1446585460       -2.9794225956        3.8323845546
  H         4.0891539994       -3.2689429073        3.6451200159
  H         2.8088352361       -2.9596120282        2.9172442638
  O         3.7830005823        2.7730495023        5.3607348083
  H         4.7489802210        2.5544021933        5.3790499791
  H         3.6538056245        3.2625801952        6.2283602464
  O         5.3339776826       -4.8613242518       -4.5292418676
  H         5.0898058292       -4.0564683530       -3.9945831279
  H         4.5031985471       -5.0779442139       -5.0604911365
  O         2.5907326303       -2.1960851542        1.4084697149
  H         1.7322568899       -2.6486605935        1.2129871794
  H         3.3535440727       -2.4672922045        0.8399464134
  O         2.9926820693       -5.5726559070       -5.8916085708
  H         2.8149085911       -6.5623998503       -5.6784649292
  H         2.6315826388       -5.5435922568       -6.7856450189
  O         4.7731755264        3.7779322792       -2.8729776876
  H         5.3941682787        3.0263875650       -2.6269759050
  H         5.2865070184        4.6127941651       -2.7766607457
  O         2.4769792350       -1.1203502794        5.9038555578
  H         2.7622635643       -1.6941164013        5.1707308828
  H         2.2604324053       -0.2645634053        5.3046583199
  O        -1.4154217945        2.2540641278        6.7328903195
  H        -1.4111207133        1.9490783756        5.7803959904
  H        -1.4762258844        1.4463613407        7.2503612317
  O        -1.5946065270       -3.3443031601        3.4665150831
  H        -0.9046477064       -3.2611077509        2.7516840744
  H        -1.1106193645       -3.8674111305        4.1645378690
  O        -2.7549163750        2.8935423702        2.2152469877
  H        -1.8933384931        2.6659142092        2.6047632756
  H        -3.0248213826        3.6620614172        2.7682966223
  O         2.0388628557       -1.1504875576       -3.9663676331
  H         2.2713946629       -1.1369240746       -4.9265842621
  H         2.5695587372       -0.5176184144       -3.4854849590
  O        -2.4053184635       -0.0146620087        0.3760431395
  H        -3.3049110617        0.3199061463        0.0728237917
  H        -2.5476021999       -0.2765794849        1.2774705362
  O        -4.0325029348        4.0697301934       -2.8432462122
  H        -4.9619981701        4.4071701458       -2.8971530012
  H        -3.9784888194        3.6547868385       -1.9317950283
  O         5.3890539682        6.3191610877        2.0187269320
  H         4.4879857526        6.5124518532        1.6347695905
  H         5.1749118931        5.8840970618        2.8599876725
  O         5.6252781565       -1.8779494722       -3.5326213252
  H         5.4986308551       -1.6329616482       -4.4903092263
  H         6.5491607947       -1.6435302834       -3.2930109433
  O        -5.9386098922        6.0648283396       -2.5678436938
  H        -5.9638150238        6.3541244376       -1.6183399876
  H        -6.2597923519        6.7161702099       -3.2034215558
  O         7.4412539848        0.8440751166        0.0929830357
  H         7.3559663914        1.6637309066        0.6069359162
  H         6.9134049894        1.0293156141       -0.7371703956
  O         2.3289282482        0.5314041518        1.8720626226
  H         2.0650532896        1.1221937568        1.1594642914
  H         2.3592783473       -0.3405341867        1.4747256030
  O        -5.5951811482       -5.1141622126       -0.0635692778
  H        -4.6798722853       -5.2156963439        0.2671146690
  H        -6.0898358121       -5.5980770115        0.5992860761
  O        -3.4054076826        3.7869318356       -0.0672166607
  H        -4.3322358036        3.9733998437        0.2113788158
  H        -3.1329584011        3.3572841421        0.8186698012
  O         5.3463067496       -0.8994691648       -6.2792623530
  H         5.4435220694        0.0409141554       -6.3944350309
  H         4.4028348767       -1.0598967703       -6.5269629364
  O         4.5325042987       -3.0625585338       -0.7528824762
  H         5.5108340330       -2.8789001835       -0.7434751542
  H         4.2068241309       -2.8166996197       -1.6170143680
  O         1.8431884945        1.8337727971       -0.5554227387
  H         2.0204985572        2.8138520239       -0.6522684884
  H         0.8595633880        1.7300660622       -0.7703866354
  O        -2.3874285021       -0.6016262604        3.0023421938
  H        -2.1362329460       -1.4230054477        3.3803934727
  H        -3.2678660832       -0.4103944003        3.3098394186
  O         2.4676917049       -8.2021699080        1.7473073908
  H         2.8858397284       -7.8239727838        0.9317527603
  H         3.2001998731       -7.9814906439        2.3586958709
  O         1.2779075526       -3.7572187655       -2.0002948677
  H         1.6423615457       -3.1081301406       -2.6232233831
  H         0.8135790724       -3.2021794174       -1.4109609645
  O        -6.1575725301        4.0718968861        0.3558063094
  H        -6.7002605818        3.2174248874        0.4840069769
  H        -6.4338157030        4.5678562506        1.1057002444
  O         1.8236873653       -5.5697776194       -8.4510322427
  H         1.0542540166       -5.3636162226       -7.9155724633
  H         2.3081842958       -4.7894343820       -8.7913186815
  O         0.6141615643        3.5543569798       -4.1769498254
  H         0.0274625405        3.0457501631       -4.7844367038
  H        -0.0032156498        4.1652868380       -3.7981124030
  O        -3.4032733052       -5.2520285115        2.2666783078
  H        -2.7891065932       -4.5597394682        2.5774526942
  H        -2.8936325695       -5.5562924643        1.4729311830
  O         3.9589253705        5.1050313502        3.9460273765
  H         3.1807924647        5.6566822200        3.9724072470
  H         3.6208449938        4.2848898009        4.3738693426
  O        -4.4931069762        1.9020099891       -4.5046540827
  H        -3.6807214791        1.4300457145       -4.5651023291
  H        -4.3103855897        2.7054553222       -4.0444410599
  O         1.7626481856        1.0593886754        4.5083093990
  H         2.3203485006        1.7175789692        4.9361651472
  H         2.1237685603        1.0058574473        3.5485589971
  O        -7.5692165539        1.6665099202        1.3947629543
  H        -8.5001067759        1.5794725051        1.6818353684
  H        -7.2565152993        0.7592292938        1.5878364653
  O        -0.9161551462        1.5735321004        3.9947784417
  H         0.0694284556        1.3081360215        4.1864508772
  H        -1.3146383349        0.8057252621        3.5272209750
  O        -2.0916537465        6.3274892703       -0.0868376418
  H        -1.0999360146        6.3673781944       -0.0205064651
  H        -2.3639418864        5.4363052254       -0.3820158446
  O        -0.4774385626       -1.4162273072       -3.4091812669
  H        -0.5999424876       -1.5824184826       -2.4354314823
  H         0.4634806503       -1.1064887784       -3.4873282732
  O        -6.2804804757        1.3307329569       -2.3409172545
  H        -5.6234409889        1.3534355866       -3.0527148443
  H        -6.9250901858        0.7411316380       -2.6021749067
  O         7.1100926172       -2.3158508865       -0.4837230960
  H         7.1147056525       -3.2037827387       -0.0911636878
  H         7.7007563751       -2.2898762615       -1.2254144624
  O        -1.0960880151        2.0123910362       -1.1804827997
  H        -1.4432975864        2.8886742426       -0.9259289029
  H        -1.3221622357        1.4745291942       -0.3824349916
  O         0.4178094601        6.2493438685       -2.1405596654
  H         0.5698383903        7.2039742348       -2.1597461214
  H        -0.3395662425        5.9452908003       -2.6627251846
  O         8.4309238653       -2.6647169058        4.9539615860
  H         9.2163684145       -2.9239723546        4.4572646197
  H         8.3058781732       -3.3276484655        5.6231501380
  O        -1.6513319608       -7.1483504786       -3.6592960533
  H        -1.9675447666       -7.1757777711       -4.5897228520
  H        -2.4929024835       -7.1905964492       -3.1423535950
  O        -4.2008815995       -1.6275919470       -2.8730243666
  H        -3.7958751107       -2.1508981401       -3.5640628717
  H        -3.6928894889       -0.7601144896       -2.8460933429
  O         2.7214985240        4.9305679386       -1.4018540855
  H         2.0901100350        5.2176938994       -2.0686962491
  H         3.5207224666        4.5961521629       -1.8404857149
  O        -3.0303453600       -3.8106327254       -4.0240082950
  H        -2.1043690736       -4.0440324051       -4.3420066347
  H        -3.5898980113       -4.3683701674       -4.6224405254
  O         0.5299838053        6.1008769352        0.7949480094
  H         0.7631087460        5.4288911199        1.4339546548
  H         1.1051189595        5.8910150304        0.0458775268
  O        -0.4110307256       -3.9651546569       -4.7087774167
  H         0.0718415436       -4.4065499386       -3.9773727489
  H        -0.3962594060       -3.0213907290       -4.5032325567
  O        -6.3417304503       -0.7761176218        1.9127089126
  H        -5.7077474817       -1.1097224601        1.2501597640
  H        -6.7587512543       -1.6276216629        2.1439156270
  O         2.9936747131        4.1595548246       -4.9877557462
  H         3.6663538024        3.9729568283       -4.2881369913
  H         2.0345198596        4.0417724088       -4.5724541508
  O         3.5059750966        0.4355802571       -1.9721468579
  H         2.8830846782        0.9788997417       -1.4574076095
  H         3.8733259037       -0.1403073498       -1.2735384242
  O        -1.9127517787        4.8318078464        5.8168057876
  H        -1.7026802097        3.9456955585        5.9128072155
  H        -2.4778465750        4.9563906940        4.9855216645
  O         0.2060677903       -3.2050804959        1.3531872207
  H         0.3232152950       -4.1649226828        1.2272492477
  H        -0.2200422832       -2.7942629744        0.5382131795
  O         7.5596797888        7.5442170624        6.5548659270
  H         6.7384542888        7.6648663256        7.0350844691
  H         7.5523591847        6.6785187943        6.3149312434
  O        -0.4672037475       -5.3708137744        5.5422803353
  H        -0.7539477057       -6.2699777882        5.5673937136
  H        -0.3014049389       -5.0477678289        6.4117272990
  O        -2.7256666541       -3.7579825252       -1.1159655931
  H        -2.4672782185       -4.6799759838       -0.9298920398
  H        -2.8256796559       -3.6930189567       -2.0663420221
