 DBCSR| CPU Multiplication driver                                           XSMM (U)
 DBCSR| Multrec recursion limit                                              512 (U)
 DBCSR| Multiplication stack size                                           1000 (D)
 DBCSR| Maximum elements for images                                    UNLIMITED (U)
 DBCSR| Multiplicative factor virtual images                                   1 (U)
 DBCSR| Use multiplication densification                                       T (D)
 DBCSR| Multiplication size stacks                                             3 (U)
 DBCSR| Use memory pool for CPU allocation                                     F (U)
 DBCSR| Number of 3D layers                                               SINGLE (U)
 DBCSR| Use MPI memory allocation                                              F (U)
 DBCSR| Use RMA algorithm                                                      F (U)
 DBCSR| Use Communication thread                                               T (U)
 DBCSR| Communication thread load                                             87 (D)
 DBCSR| MPI: My process id                                                     0
 DBCSR| MPI: Number of processes                                              32
 DBCSR| OMP: Current number of threads                                         1
 DBCSR| OMP: Max number of threads                                             1
 DBCSR| Split modifier for TAS multiplication algorithm                  1.0E+00 (U)


  **** **** ******  **  PROGRAM STARTED AT               2024-09-24 03:07:32.944
 ***** ** ***  *** **   PROGRAM STARTED ON                                moritz
 **    ****   ******    PROGRAM STARTED BY                                   ole
 ***** **    ** ** **   PROGRAM PROCESS ID                                167498
  **** **  *******  **  PROGRAM STARTED IN /home/ole/git/pao_ml_equivar/64H2O_MD
                                           /Frame3900

 CP2K| version string:                 CP2K version 2024.3 (Development Version)
 CP2K| source code revision number:                                  git:3f890bb
 CP2K| cp2kflags: omp libint fftw3 libxc libgrpp pexsi elpa parallel scalapack c
 CP2K|            osma quip deepmd xsmm plumed2 spglib libdftd4 sirius libvori l
 CP2K|            libbqb libvdwxc hdf5
 CP2K| is freely available from                            https://www.cp2k.org/
 CP2K| Program compiled at                          Mo 23 Sep 2024 17:17:04 CEST
 CP2K| Program compiled on                                                moritz
 CP2K| Program compiled for                                                local
 CP2K| Data directory path                               /home/ole/git/cp2k/data
 CP2K| Input file name                                           64H2O_pao44.inp

 GLOBAL| Force Environment number                                              1
 GLOBAL| Basis set file name                                        BASIS_MOLOPT
 GLOBAL| Potential file name                                      GTH_POTENTIALS
 GLOBAL| MM Potential file name                                     MM_POTENTIAL
 GLOBAL| Coordinate file name                                         coords.xyz
 GLOBAL| Method name                                                        CP2K
 GLOBAL| Project name                                                64H2O_pao44
 GLOBAL| Run type                                                         ENERGY
 GLOBAL| FFT library                                                       FFTW3
 GLOBAL| Diagonalization library                                            ELPA
 GLOBAL| DGEMM library                                                      BLAS
 GLOBAL| Minimum number of eigenvectors for ELPA usage                        16
 GLOBAL| Orthonormality check for eigenvectors                          DISABLED
 GLOBAL| Matrix multiplication library                                     COSMA
 GLOBAL| All-to-all communication in single precision                          F
 GLOBAL| FFTs using library dependent lengths                                  F
 GLOBAL| Grid backend                                                       AUTO
 GLOBAL| Global print level                                                  LOW
 GLOBAL| MPI I/O enabled                                                       T
 GLOBAL| Total number of message passing processes                            32
 GLOBAL| Number of threads for this process                                    1
 GLOBAL| This output is from process                                           0
 GLOBAL| Stack size for threads created by OpenMP (OMP_STACKSIZE)        default
 GLOBAL| CPU model name           AMD Ryzen Threadripper 3970X 32-Core Processor
 GLOBAL| CPUID                                                              1002

 MEMORY| system memory details [Kb]
 MEMORY|                        rank 0           min           max       average
 MEMORY| MemTotal            131752136     131752136     131752136     131752136
 MEMORY| MemFree             114304844     114304844     114304844     114304844
 MEMORY| Buffers               2010636       2010636       2010636       2010636
 MEMORY| Cached                8673436       8673436       8673440       8673438
 MEMORY| Slab                  1643556       1643556       1643556       1643556
 MEMORY| SReclaimable          1144712       1144712       1144712       1144712
 MEMORY| MemLikelyFree       126133628     126133628     126133632     126133630


 GENERATE|  Preliminary Number of Bonds generated:                             0
 GENERATE|  Achieved consistency in connectivity generation.

 *******************************************************************************
 *******************************************************************************
 **                                                                           **
 **     #####                         ##              ##                      **
 **    ##   ##            ##          ##              ##                      **
 **   ##     ##                       ##            ######                    **
 **   ##     ##  ##   ##  ##   #####  ##  ##   ####   ##    #####    #####    **
 **   ##     ##  ##   ##  ##  ##      ## ##   ##      ##   ##   ##  ##   ##   **
 **   ##  ## ##  ##   ##  ##  ##      ####     ###    ##   ######   ######    **
 **    ##  ###   ##   ##  ##  ##      ## ##      ##   ##   ##       ##        **
 **     #######   #####   ##   #####  ##  ##  ####    ##    #####   ##        **
 **           ##                                                    ##        **
 **                                                                           **
 **                                                ... make the atoms dance   **
 **                                                                           **
 **            Copyright (C) by CP2K developers group (2000-2024)             **
 **                      J. Chem. Phys. 152, 194103 (2020)                    **
 **                                                                           **
 *******************************************************************************


 TOTAL NUMBERS AND MAXIMUM NUMBERS

  Total number of            - Atomic kinds:                                   2
                             - Atoms:                                        192
                             - Shell sets:                                   192
                             - Shells:                                       704
                             - Primitive Cartesian functions:               1344
                             - Cartesian basis functions:                   1536
                             - Spherical basis functions:                   1472

  Maximum angular momentum of- Orbital basis functions:                        2
                             - Local part of the GTH pseudopotential:          2
                             - Non-local part of the GTH pseudopotential:      0

 ------------------------------ Linear scaling SCF -----------------------------
 eps_scf:                                                              0.100E-07
 eps_filter:                                                           0.100E-11
 mixing_fraction:                                                      0.450E+00
 max_scf:                                                                     25
 fixed chemical potential (mu)                                                 F
 has unit metric:                                                              F
 Computing inv(S):                                                             T
 Computing sqrt(S):                                                            T
 Computing S preconditioner                                                    F
 S sqrt method:                                                     NEWTONSCHULZ
 S sqrt order:                                                                 3
 Extrapolation order:                                                          1
 S preconditioner type                                                      NONE
 Polarized Atomic Orbitals (PAO)                                               T
 Purification method                                   Trace resetting 4th order
 Cluster type                                                             ATOMIC
 Computing Chebyshev                                                       FALSE
 Using PAO                                                                     T
 -------------------------------------------------------------------------------

 
 PAO|                                  EPS_PAO                           0.5E-06
 PAO|                                  MIXING                            0.5E+00
 PAO|                                  MAX_PAO                              1500
 PAO|                                  MAX_CYCLES                           1000
 PAO|                                  PARAMETERIZATION              EQUIVARIANT
 PAO|                                  PRECONDITION                            F
 PAO|                                  REGULARIZATION                    0.0E+00
 PAO|                                  EPS_PGF                           0.1E-09
 PAO|                                  PENALTY_DISTANCE                  0.1E+00
 PAO|                                  PENALTY_STRENGTH                  0.5E-02
 PAO|                                  LINPOT_PRECONDITION_DELTA         0.0E+00
 PAO|                                  LINPOT_INITGUESS_DELT             0.0E+00
 PAO|                                  LINPOT_REGULARIZATION_DELTA       0.0E+00
 PAO|                                  LINPOT_REGULARIZATION_STRENGTH    0.0E+00
 PAO|                                  OPTIMIZER                              CG
 PAO|                                  CG_INIT_STEPS                           2
 PAO|                                  CG_RESET_LIMIT                    0.1E+00
 PAO|                                  CHECK_UNITARY_TOL                -0.1E+01
 PAO|                                  CHECK_GRADIENT_TOL               -0.1E+01
 PAO|                                  NUM_GRADIENT_ORDER                      2
 PAO|                                  NUM_GRADIENT_EPS                  0.1E-07
 PAO|                                  PRINT%RESTART%WRITE_CYCLES            100
 PAO|                                  RESTART_FILE 
 PAO|                                  PREOPT_DM_FILE 64H2O_ref_LS_DM_SPIN_1_RESTART.dm
 PAO|                                  MACHINE_LEARNING%METHOD       GAUSSIAN_PR
 PAO|                                  MACHINE_LEARNING%PRIOR               ZERO
 PAO|                                  MACHINE_LEARNING%DESCRIPTOR     POTENTIAL
 PAO|                                  MACHINE_LEARNING%TOLERANCE        0.1E-01
 PAO|                                  MACHINE_LEARNING%GP_NOISE_VAR     0.1E+00
 PAO|                                  MACHINE_LEARNING%GP_SCALE         0.5E-01
 

 Calculating atomic Fock matrix for atomic kind: O

 Electronic structure
    Total number of core electrons                                          2.00
    Total number of valence electrons                                       6.00
    Total number of electrons                                               8.00
    Multiplicity                                                   not specified
    S   [  2.00] 2.00
    P      4.00


 *******************************************************************************
                  Iteration          Convergence                     Energy [au]
 *******************************************************************************
                          1        0.708315                     -15.576645311500
                          2        0.608879                     -15.587933561584
                          3        0.102828E-01                 -15.656849565404
                          4        0.113889E-02                 -15.656866888140
                          5        0.434197E-03                 -15.656867072159
                          6        0.263771E-03                 -15.656867091904
                          7        0.478536E-06                 -15.656867103452

 Energy components [Hartree]           Total Energy ::          -15.656867103452
                                        Band Energy ::           -3.000198112285
                                     Kinetic Energy ::           11.759971203220
                                   Potential Energy ::          -27.416838306672
                                      Virial (-V/T) ::            2.331369510426
                                        Core Energy ::          -26.140716385623
                                          XC Energy ::           -3.154051012914
                                     Coulomb Energy ::           13.637900295084
                       Total Pseudopotential Energy ::          -37.935781716540
                       Local Pseudopotential Energy ::          -39.218907440693
                    Nonlocal Pseudopotential Energy ::            1.283125724153
                                        Confinement ::            0.350941276976

 Orbital energies  State     L     Occupation   Energy[a.u.]          Energy[eV]

                       1     0          2.000      -0.864471          -23.523463

                       1     1          4.000      -0.317814           -8.648154


 Total Electron Density at R=0:                                         0.000068

 Calculating atomic Fock matrix for atomic kind: H

 Electronic structure
    Total number of core electrons                                          0.00
    Total number of valence electrons                                       1.00
    Total number of electrons                                               1.00
    Multiplicity                                                   not specified
    S      1.00


 *******************************************************************************
                  Iteration          Convergence                     Energy [au]
 *******************************************************************************
                          1        0.437545E-02                  -0.424159432110
                          2        0.531356E-03                  -0.424178438213
                          3        0.259176E-06                  -0.424178722480

 Energy components [Hartree]           Total Energy ::           -0.424178722480
                                        Band Energy ::           -0.199015229016
                                     Kinetic Energy ::            0.464007633961
                                   Potential Energy ::           -0.888186356441
                                      Virial (-V/T) ::            1.914163240935
                                        Core Energy ::           -0.479160803564
                                          XC Energy ::           -0.244352904054
                                     Coulomb Energy ::            0.299334985138
                       Total Pseudopotential Energy ::           -0.962295316385
                       Local Pseudopotential Energy ::           -0.962295316385
                    Nonlocal Pseudopotential Energy ::            0.000000000000
                                        Confinement ::            0.191268788606

 Orbital energies  State     L     Occupation   Energy[a.u.]          Energy[eV]

                       1     0          1.000      -0.199015           -5.415480


 Total Electron Density at R=0:                                         0.242907
 PAO| Made initial guess for matrix_X with norm:   27.712812921102035     

     Lanczos converged:  F threshold:   0.100E-02
     Est. extremal eigenvalues:    0.639E+01   0.912E-01
     Est. condition number :    0.701E+02

 Order=           3
     NS sqrt iter    1 1.00000000   0.156E+01       0.021     2672.727
     NS sqrt iter    2 1.00000000   0.846E+00       0.034     3347.052
     NS sqrt iter    3 1.00000000   0.341E+00       0.034     3351.354
     NS sqrt iter    4 1.00000000   0.974E-01       0.034     3345.357
     NS sqrt iter    5 1.00000000   0.388E-02       0.034     3337.769
     NS sqrt iter    6 1.00000000   0.460E-06       0.029     2908.287
     Symmetrizing Results
     Final NS sqrt iter    6 1.00000000   0.322E-12

 PAO| Read restart DM 64H2O_ref_LS_DM_SPIN_1_RESTART.dm with checksum:    6216.5533869544724     
 PAO| Quickstep energy from restart density:  -1103.1273486828684     
 PAO| ======================= Iteration:         1 =============================

     Lanczos converged:  F threshold:   0.100E-02
     Est. extremal eigenvalues:    0.639E+01   0.912E-01
     Est. condition number :    0.701E+02

 Order=           3
     NS sqrt iter    1 1.00000000   0.156E+01       0.021     2701.448
     NS sqrt iter    2 1.00000000   0.846E+00       0.034     3340.338
     NS sqrt iter    3 1.00000000   0.341E+00       0.034     3339.581
     NS sqrt iter    4 1.00000000   0.974E-01       0.034     3333.532
     NS sqrt iter    5 1.00000000   0.388E-02       0.034     3358.213
     NS sqrt iter    6 1.00000000   0.460E-06       0.029     2921.938
     Symmetrizing Results
     Final NS sqrt iter    6 1.00000000   0.322E-12

     Est. extremal eigenvalues     -0.81916     2.62683  converged:  T
     TRS4 it   1 1.00000000   0.272E+02       0.007     2140.927   0.100E-11
     TRS4 it   2 1.00000000   0.236E+02       0.013     2178.801   0.100E-11
     TRS4 it   3 1.00000000   0.159E+02       0.013     2194.584   0.100E-11
     TRS4 it   4 1.00000000   0.992E+01       0.013     2176.806   0.100E-11
     TRS4 it   5 1.00000000   0.476E+01       0.013     2197.003   0.100E-11
     TRS4 it   6 1.00000000   0.157E+01       0.013     2189.254   0.100E-11
     TRS4 it   7 1.00000000   0.304E+00       0.013     2178.543   0.100E-11
     TRS4 it   8 1.00000000   0.205E-01       0.013     2179.482   0.100E-11
     TRS4 it   9 1.00000000   0.142E-03       0.013     2155.999   0.100E-11
     TRS4 it  10 1.00000000   0.520E-08       0.013     2176.448   0.100E-11
     TRS4 it  11 1.00000000   0.355E-14       0.013     2164.382   0.100E-11
     Final TRS4 iteration   11 1.00000000   0.355E-14
     Chemical potential (mu):       0.00792
 
 PAO| energy:  -186.97385167500346      penalty:   1.3835880720477902E-031
 PAO|CG| warming up with steepest descent
 PAO|CG| beta:    0.0000000000000000     
 PAO| norm of gradient:   3.9861132747402088     
 PAO|LS| adapt:  T F F
 PAO|LS| adapt: scan_steps:    0.0000000000000000        0.0000000000000000        0.0000000000000000     
 PAO|LS| adapt: energies:   -186.97385167500346        0.0000000000000000        0.0000000000000000     
 PAO| ======================= Iteration:         2 =============================

     Lanczos converged:  F threshold:   0.100E-02
     Est. extremal eigenvalues:    0.618E+01   0.974E-01
     Est. condition number :    0.634E+02

 Order=           3
     NS sqrt iter    1 1.00000000   0.152E+01       0.021     2674.868
     NS sqrt iter    2 1.00000000   0.817E+00       0.034     3360.200
     NS sqrt iter    3 1.00000000   0.320E+00       0.034     3337.132
     NS sqrt iter    4 1.00000000   0.825E-01       0.034     3379.446
     NS sqrt iter    5 1.00000000   0.247E-02       0.034     3347.109
     NS sqrt iter    6 1.00000000   0.141E-06       0.029     2918.342
     Symmetrizing Results
     Final NS sqrt iter    6 1.00000000   0.630E-13

     Est. extremal eigenvalues     -0.82238     2.62597  converged:  T
     TRS4 it   1 1.00000000   0.275E+02       0.007     2116.229   0.100E-11
     TRS4 it   2 1.00000000   0.236E+02       0.013     2178.187   0.100E-11
     TRS4 it   3 1.00000000   0.158E+02       0.013     2183.488   0.100E-11
     TRS4 it   4 1.00000000   0.972E+01       0.013     2181.294   0.100E-11
     TRS4 it   5 1.00000000   0.455E+01       0.013     2189.825   0.100E-11
     TRS4 it   6 1.00000000   0.144E+01       0.013     2197.431   0.100E-11
     TRS4 it   7 1.00000000   0.260E+00       0.013     2162.369   0.100E-11
     TRS4 it   8 1.00000000   0.146E-01       0.013     2188.982   0.100E-11
     TRS4 it   9 1.00000000   0.652E-04       0.013     2184.791   0.100E-11
     TRS4 it  10 1.00000000   0.126E-08       0.013     2193.709   0.100E-11
     TRS4 it  11 1.00000000   0.178E-13       0.013     2184.112   0.100E-11
     Final TRS4 iteration   11 1.00000000   0.178E-13
     Chemical potential (mu):       0.01341
 
 PAO| energy:  -188.43232653180303      penalty:   4.7334279255182761E-007
 PAO|LS| adapt:  T T F
 PAO|LS| adapt: scan_steps:    0.0000000000000000       0.10000000000000001        0.0000000000000000     
 PAO|LS| adapt: energies:   -186.97385167500346       -188.43232653180303        0.0000000000000000     
 PAO| ======================= Iteration:         3 =============================

     Lanczos converged:  F threshold:   0.100E-02
     Est. extremal eigenvalues:    0.596E+01   0.103E+00
     Est. condition number :    0.577E+02

 Order=           3
     NS sqrt iter    1 1.00000000   0.148E+01       0.021     2690.891
     NS sqrt iter    2 1.00000000   0.788E+00       0.034     3359.362
     NS sqrt iter    3 1.00000000   0.300E+00       0.034     3351.104
     NS sqrt iter    4 1.00000000   0.696E-01       0.034     3363.423
     NS sqrt iter    5 1.00000000   0.159E-02       0.034     3345.863
     NS sqrt iter    6 1.00000000   0.444E-07       0.029     2904.998
     Symmetrizing Results
     Final NS sqrt iter    6 1.00000000   0.587E-14

     Est. extremal eigenvalues     -0.82544     2.63043  converged:  T
     TRS4 it   1 1.00000000   0.277E+02       0.007     2104.704   0.100E-11
     TRS4 it   2 1.00000000   0.236E+02       0.013     2186.567   0.100E-11
     TRS4 it   3 1.00000000   0.157E+02       0.013     2188.177   0.100E-11
     TRS4 it   4 1.00000000   0.953E+01       0.013     2196.562   0.100E-11
     TRS4 it   5 1.00000000   0.435E+01       0.013     2192.442   0.100E-11
     TRS4 it   6 1.00000000   0.132E+01       0.013     2182.119   0.100E-11
     TRS4 it   7 1.00000000   0.221E+00       0.013     2188.499   0.100E-11
     TRS4 it   8 1.00000000   0.102E-01       0.013     2194.388   0.100E-11
     TRS4 it   9 1.00000000   0.279E-04       0.013     2192.040   0.100E-11
     TRS4 it  10 1.00000000   0.271E-09       0.013     2195.585   0.100E-11
     TRS4 it  11 1.00000000   0.355E-14       0.013     2201.035   0.100E-11
     Final TRS4 iteration   11 1.00000000   0.355E-14
     Chemical potential (mu):       0.01966
 
 PAO| energy:  -189.61365535250778      penalty:   7.5734846808659496E-006
 PAO|LS| adapt:  T T F
 PAO|LS| adapt: scan_steps:    0.0000000000000000       0.20000000000000001        0.0000000000000000     
 PAO|LS| adapt: energies:   -186.97385167500346       -189.61365535250778        0.0000000000000000     
 PAO| ======================= Iteration:         4 =============================

     Lanczos converged:  F threshold:   0.100E-02
     Est. extremal eigenvalues:    0.554E+01   0.115E+00
     Est. condition number :    0.481E+02

 Order=           3
     NS sqrt iter    1 1.00000000   0.140E+01       0.021     2665.553
     NS sqrt iter    2 1.00000000   0.732E+00       0.034     3342.779
     NS sqrt iter    3 1.00000000   0.263E+00       0.034     3350.362
     NS sqrt iter    4 1.00000000   0.496E-01       0.034     3356.225
     NS sqrt iter    5 1.00000000   0.677E-03       0.034     3354.978
     NS sqrt iter    6 1.00000000   0.450E-08       0.029     2867.463
     Symmetrizing Results
     Final NS sqrt iter    6 1.00000000   0.915E-14

     Est. extremal eigenvalues     -0.83051     2.63895  converged:  T
     TRS4 it   1 1.00000000   0.282E+02       0.007     2100.879   0.100E-11
     TRS4 it   2 1.00000000   0.236E+02       0.013     2173.935   0.100E-11
     TRS4 it   3 1.00000000   0.156E+02       0.013     2216.577   0.100E-11
     TRS4 it   4 1.00000000   0.921E+01       0.013     2178.481   0.100E-11
     TRS4 it   5 1.00000000   0.400E+01       0.013     2188.847   0.100E-11
     TRS4 it   6 1.00000000   0.111E+01       0.013     2204.148   0.100E-11
     TRS4 it   7 1.00000000   0.158E+00       0.013     2204.291   0.100E-11
     TRS4 it   8 1.00000000   0.473E-02       0.013     2206.568   0.100E-11
     TRS4 it   9 1.00000000   0.478E-05       0.013     2175.701   0.100E-11
     TRS4 it  10 1.00000000   0.931E-11       0.013     2186.360   0.100E-11
     Final TRS4 iteration   10 1.00000000   0.931E-11
     Chemical potential (mu):       0.03852
 
 PAO| energy:  -191.10385011675837      penalty:   1.2117575489414950E-004
 PAO|LS| Need extra step
 PAO|LS| adapt:  T T F
 PAO|LS| adapt: scan_steps:    0.0000000000000000       0.40000000000000002        0.0000000000000000     
 PAO|LS| adapt: energies:   -186.97385167500346       -191.10385011675837        0.0000000000000000     
 PAO| ======================= Iteration:         5 =============================

     Lanczos converged:  T threshold:   0.100E-02
     Est. extremal eigenvalues:    0.484E+01   0.129E+00
     Est. condition number :    0.376E+02

 Order=           3
     NS sqrt iter    1 1.00000000   0.126E+01       0.021     2687.743
     NS sqrt iter    2 1.00000000   0.638E+00       0.034     3345.028
     NS sqrt iter    3 1.00000000   0.203E+00       0.034     3341.813
     NS sqrt iter    4 1.00000000   0.262E-01       0.034     3349.672
     NS sqrt iter    5 1.00000000   0.133E-03       0.034     3358.369
     NS sqrt iter    6 1.00000000   0.496E-10       0.022     2366.728
     Symmetrizing Results
     Final NS sqrt iter    6 1.00000000   0.215E-11

     Est. extremal eigenvalues     -0.83404     2.63875  converged:  T
     TRS4 it   1 1.00000000   0.288E+02       0.007     2132.866   0.100E-11
     TRS4 it   2 1.00000000   0.237E+02       0.013     2209.024   0.100E-11
     TRS4 it   3 1.00000000   0.153E+02       0.013     2199.975   0.100E-11
     TRS4 it   4 1.00000000   0.874E+01       0.013     2198.077   0.100E-11
     TRS4 it   5 1.00000000   0.350E+01       0.013     2192.496   0.100E-11
     TRS4 it   6 1.00000000   0.832E+00       0.013     2183.812   0.100E-11
     TRS4 it   7 1.00000000   0.868E-01       0.013     2180.691   0.100E-11
     TRS4 it   8 1.00000000   0.132E-02       0.013     2192.535   0.100E-11
     TRS4 it   9 1.00000000   0.359E-06       0.013     2221.218   0.100E-11
     TRS4 it  10 1.00000000   0.533E-13       0.013     2180.992   0.100E-11
     Final TRS4 iteration   10 1.00000000   0.533E-13
     Chemical potential (mu):       0.06043
 
 PAO| energy:  -190.73069770882151      penalty:   1.9388120783087582E-003
 PAO|LS| Need extra step
 PAO|LS| adapt:  T T T
 PAO|LS| adapt: scan_steps:    0.0000000000000000       0.40000000000000002       0.80000000000000004     
 PAO|LS| adapt: energies:   -186.97385167500346       -191.10385011675837       -190.73069770882151     
 PAO|LS| adapt: suggested step_size:   0.56685410545708026     
 PAO|LS| adapt: predicted energy  -191.49562835695380     
 PAO| ======================= Iteration:         6 =============================

     Lanczos converged:  F threshold:   0.100E-02
     Est. extremal eigenvalues:    0.522E+01   0.120E+00
     Est. condition number :    0.434E+02

 Order=           3
     NS sqrt iter    1 1.00000000   0.133E+01       0.021     2690.262
     NS sqrt iter    2 1.00000000   0.689E+00       0.034     3367.788
     NS sqrt iter    3 1.00000000   0.235E+00       0.034     3336.798
     NS sqrt iter    4 1.00000000   0.376E-01       0.034     3329.017
     NS sqrt iter    5 1.00000000   0.337E-03       0.034     3353.191
     NS sqrt iter    6 1.00000000   0.663E-09       0.029     2757.684
     Symmetrizing Results
     Final NS sqrt iter    6 1.00000000   0.107E-12

     Est. extremal eigenvalues     -0.83321     2.64127  converged:  T
     TRS4 it   1 1.00000000   0.284E+02       0.007     2115.556   0.100E-11
     TRS4 it   2 1.00000000   0.237E+02       0.013     2201.279   0.100E-11
     TRS4 it   3 1.00000000   0.155E+02       0.013     2199.287   0.100E-11
     TRS4 it   4 1.00000000   0.899E+01       0.013     2184.521   0.100E-11
     TRS4 it   5 1.00000000   0.376E+01       0.013     2199.169   0.100E-11
     TRS4 it   6 1.00000000   0.975E+00       0.013     2211.272   0.100E-11
     TRS4 it   7 1.00000000   0.120E+00       0.013     2194.286   0.100E-11
     TRS4 it   8 1.00000000   0.260E-02       0.013     2187.550   0.100E-11
     TRS4 it   9 1.00000000   0.133E-05       0.013     2190.329   0.100E-11
     TRS4 it  10 1.00000000   0.727E-12       0.013     2216.687   0.100E-11
     Final TRS4 iteration   10 1.00000000   0.727E-12
     Chemical potential (mu):       0.04889
 
 PAO| energy:  -191.46788985317744      penalty:   4.8872094753014375E-004
 PAO|CG| warming up with steepest descent
 PAO|CG| beta:    0.0000000000000000     
 PAO| norm of gradient:   2.0941478160232805     
 PAO| energy improvement:  -4.4940381781739802     
 PAO| step      6                 -191.467889853  0.409E-02  0.567E+00     2.581
 PAO|LS| adapt:  T F F
 PAO|LS| adapt: scan_steps:    0.0000000000000000        0.0000000000000000        0.0000000000000000     
 PAO|LS| adapt: energies:   -191.46788985317744        0.0000000000000000        0.0000000000000000     
 PAO| ======================= Iteration:         7 =============================

     Lanczos converged:  T threshold:   0.100E-02
     Est. extremal eigenvalues:    0.506E+01   0.128E+00
     Est. condition number :    0.396E+02

 Order=           3
     NS sqrt iter    1 1.00000000   0.130E+01       0.021     2688.944
     NS sqrt iter    2 1.00000000   0.663E+00       0.034     3361.715
     NS sqrt iter    3 1.00000000   0.218E+00       0.034     3377.168
     NS sqrt iter    4 1.00000000   0.306E-01       0.034     3360.122
     NS sqrt iter    5 1.00000000   0.191E-03       0.034     3349.735
     NS sqrt iter    6 1.00000000   0.130E-09       0.026     2539.309
     Symmetrizing Results
     Final NS sqrt iter    6 1.00000000   0.137E-11

     Est. extremal eigenvalues     -0.83327     2.63180  converged:  T
     TRS4 it   1 1.00000000   0.285E+02       0.007     2125.868   0.100E-11
     TRS4 it   2 1.00000000   0.237E+02       0.013     2184.264   0.100E-11
     TRS4 it   3 1.00000000   0.155E+02       0.013     2197.719   0.100E-11
     TRS4 it   4 1.00000000   0.911E+01       0.013     2208.568   0.100E-11
     TRS4 it   5 1.00000000   0.385E+01       0.013     2207.475   0.100E-11
     TRS4 it   6 1.00000000   0.999E+00       0.013     2204.804   0.100E-11
     TRS4 it   7 1.00000000   0.122E+00       0.013     2188.576   0.100E-11
     TRS4 it   8 1.00000000   0.265E-02       0.013     2208.941   0.100E-11
     TRS4 it   9 1.00000000   0.145E-05       0.013     2176.805   0.100E-11
     TRS4 it  10 1.00000000   0.984E-12       0.013     2197.580   0.100E-11
     Final TRS4 iteration   10 1.00000000   0.984E-12
     Chemical potential (mu):       0.05127
 
 PAO| energy:  -190.56850166741384      penalty:   6.8166868639876429E-004
 PAO|LS| adapt:  T F T
 PAO|LS| adapt: scan_steps:    0.0000000000000000        0.0000000000000000       0.56685410545708026     
 PAO|LS| adapt: energies:   -191.46788985317744        0.0000000000000000       -190.56850166741384     
 PAO| ======================= Iteration:         8 =============================

     Lanczos converged:  T threshold:   0.100E-02
     Est. extremal eigenvalues:    0.514E+01   0.124E+00
     Est. condition number :    0.414E+02

 Order=           3
     NS sqrt iter    1 1.00000000   0.132E+01       0.021     2670.574
     NS sqrt iter    2 1.00000000   0.676E+00       0.034     3354.522
     NS sqrt iter    3 1.00000000   0.226E+00       0.034     3345.652
     NS sqrt iter    4 1.00000000   0.340E-01       0.034     3340.074
     NS sqrt iter    5 1.00000000   0.255E-03       0.034     3332.965
     NS sqrt iter    6 1.00000000   0.297E-09       0.028     2651.619
     Symmetrizing Results
     Final NS sqrt iter    6 1.00000000   0.513E-12

     Est. extremal eigenvalues     -0.83427     2.63712  converged:  T
     TRS4 it   1 1.00000000   0.285E+02       0.007     2094.136   0.100E-11
     TRS4 it   2 1.00000000   0.237E+02       0.013     2186.395   0.100E-11
     TRS4 it   3 1.00000000   0.155E+02       0.013     2210.432   0.100E-11
     TRS4 it   4 1.00000000   0.902E+01       0.013     2198.729   0.100E-11
     TRS4 it   5 1.00000000   0.378E+01       0.013     2211.025   0.100E-11
     TRS4 it   6 1.00000000   0.978E+00       0.013     2165.632   0.100E-11
     TRS4 it   7 1.00000000   0.120E+00       0.013     2212.092   0.100E-11
     TRS4 it   8 1.00000000   0.258E-02       0.013     2185.178   0.100E-11
     TRS4 it   9 1.00000000   0.134E-05       0.013     2193.294   0.100E-11
     TRS4 it  10 1.00000000   0.714E-12       0.013     2211.219   0.100E-11
     Final TRS4 iteration   10 1.00000000   0.714E-12
     Chemical potential (mu):       0.04875
 
 PAO| energy:  -191.85121229567429      penalty:   5.1749524674535525E-004
 PAO|LS| adapt:  T T T
 PAO|LS| adapt: scan_steps:    0.0000000000000000       0.28342705272854013       0.56685410545708026     
 PAO|LS| adapt: energies:   -191.46788985317744       -191.85121229567429       -190.56850166741384     
 PAO|LS| adapt: suggested step_size:   0.20692468695197846     
 PAO|LS| adapt: predicted energy  -191.91190280077956     
 PAO| ======================= Iteration:         9 =============================

     Lanczos converged:  F threshold:   0.100E-02
     Est. extremal eigenvalues:    0.516E+01   0.123E+00
     Est. condition number :    0.420E+02

 Order=           3
     NS sqrt iter    1 1.00000000   0.132E+01       0.021     2683.816
     NS sqrt iter    2 1.00000000   0.679E+00       0.034     3359.309
     NS sqrt iter    3 1.00000000   0.229E+00       0.034     3359.686
     NS sqrt iter    4 1.00000000   0.349E-01       0.034     3344.350
     NS sqrt iter    5 1.00000000   0.275E-03       0.034     3343.417
     NS sqrt iter    6 1.00000000   0.370E-09       0.028     2683.323
     Symmetrizing Results
     Final NS sqrt iter    6 1.00000000   0.340E-12

     Est. extremal eigenvalues     -0.83419     2.63838  converged:  T
     TRS4 it   1 1.00000000   0.285E+02       0.007     2123.572   0.100E-11
     TRS4 it   2 1.00000000   0.237E+02       0.013     2197.181   0.100E-11
     TRS4 it   3 1.00000000   0.155E+02       0.013     2186.856   0.100E-11
     TRS4 it   4 1.00000000   0.901E+01       0.013     2230.652   0.100E-11
     TRS4 it   5 1.00000000   0.377E+01       0.013     2183.870   0.100E-11
     TRS4 it   6 1.00000000   0.975E+00       0.013     2190.960   0.100E-11
     TRS4 it   7 1.00000000   0.120E+00       0.013     2203.559   0.100E-11
     TRS4 it   8 1.00000000   0.258E-02       0.013     2197.724   0.100E-11
     TRS4 it   9 1.00000000   0.133E-05       0.013     2193.552   0.100E-11
     TRS4 it  10 1.00000000   0.680E-12       0.013     2195.246   0.100E-11
     Final TRS4 iteration   10 1.00000000   0.680E-12
     Chemical potential (mu):       0.04853
 
 PAO| energy:  -191.91608211310336      penalty:   5.0070544002195827E-004
 PAO|CG| trace_G_new   0.72904953502628878     
 PAO|CG| trace_G_prev    4.3854550753550745     
 PAO|CG| trace_G_mix   -4.2100931906288545E-002
 PAO|CG| trace_D    4.3854550753550745     
 PAO|CG| trace_D_Gnew   4.2100931906288545E-002
 PAO|CG| beta:   0.17584274691723756     
 PAO| norm of gradient:  0.85384397580956717     
 PAO| energy improvement: -0.44819225992591782     
 PAO| step      9                 -191.916082113  0.167E-02  0.207E+00     1.586
 PAO|LS| adapt:  T F F
 PAO|LS| adapt: scan_steps:    0.0000000000000000        0.0000000000000000        0.0000000000000000     
 PAO|LS| adapt: energies:   -191.91608211310336        0.0000000000000000        0.0000000000000000     
 PAO| ======================= Iteration:        10 =============================

     Lanczos converged:  F threshold:   0.100E-02
     Est. extremal eigenvalues:    0.511E+01   0.126E+00
     Est. condition number :    0.404E+02

 Order=           3
     NS sqrt iter    1 1.00000000   0.131E+01       0.021     2677.980
     NS sqrt iter    2 1.00000000   0.670E+00       0.034     3349.843
     NS sqrt iter    3 1.00000000   0.223E+00       0.034     3360.698
     NS sqrt iter    4 1.00000000   0.325E-01       0.034     3376.394
     NS sqrt iter    5 1.00000000   0.222E-03       0.034     3351.196
     NS sqrt iter    6 1.00000000   0.193E-09       0.027     2585.886
     Symmetrizing Results
     Final NS sqrt iter    6 1.00000000   0.981E-12

     Est. extremal eigenvalues     -0.83476     2.62384  converged:  T
     TRS4 it   1 1.00000000   0.285E+02       0.007     2132.910   0.100E-11
     TRS4 it   2 1.00000000   0.236E+02       0.013     2187.452   0.100E-11
     TRS4 it   3 1.00000000   0.155E+02       0.013     2189.195   0.100E-11
     TRS4 it   4 1.00000000   0.899E+01       0.013     2200.132   0.100E-11
     TRS4 it   5 1.00000000   0.375E+01       0.013     2198.351   0.100E-11
     TRS4 it   6 1.00000000   0.964E+00       0.013     2196.593   0.100E-11
     TRS4 it   7 1.00000000   0.116E+00       0.013     2176.775   0.100E-11
     TRS4 it   8 1.00000000   0.244E-02       0.013     2204.903   0.100E-11
     TRS4 it   9 1.00000000   0.120E-05       0.013     2194.846   0.100E-11
     TRS4 it  10 1.00000000   0.584E-12       0.013     2189.649   0.100E-11
     Final TRS4 iteration   10 1.00000000   0.584E-12
     Chemical potential (mu):       0.04931
 
 PAO| energy:  -192.01732984436416      penalty:   5.0305938020967964E-004
 PAO|LS| adapt:  T T F
 PAO|LS| adapt: scan_steps:    0.0000000000000000       0.20692468695197846        0.0000000000000000     
 PAO|LS| adapt: energies:   -191.91608211310336       -192.01732984436416        0.0000000000000000     
 PAO| ======================= Iteration:        11 =============================

     Lanczos converged:  T threshold:   0.100E-02
     Est. extremal eigenvalues:    0.505E+01   0.130E+00
     Est. condition number :    0.389E+02

 Order=           3
     NS sqrt iter    1 1.00000000   0.130E+01       0.021     2656.266
     NS sqrt iter    2 1.00000000   0.661E+00       0.034     3373.512
     NS sqrt iter    3 1.00000000   0.217E+00       0.034     3356.514
     NS sqrt iter    4 1.00000000   0.302E-01       0.034     3354.358
     NS sqrt iter    5 1.00000000   0.178E-03       0.034     3346.728
     NS sqrt iter    6 1.00000000   0.997E-10       0.025     2503.364
     Symmetrizing Results
     Final NS sqrt iter    6 1.00000000   0.168E-11

     Est. extremal eigenvalues     -0.83494     2.60879  converged:  T
     TRS4 it   1 1.00000000   0.284E+02       0.007     2094.900   0.100E-11
     TRS4 it   2 1.00000000   0.235E+02       0.013     2203.952   0.100E-11
     TRS4 it   3 1.00000000   0.154E+02       0.013     2184.110   0.100E-11
     TRS4 it   4 1.00000000   0.896E+01       0.013     2202.901   0.100E-11
     TRS4 it   5 1.00000000   0.373E+01       0.013     2179.627   0.100E-11
     TRS4 it   6 1.00000000   0.950E+00       0.013     2197.577   0.100E-11
     TRS4 it   7 1.00000000   0.113E+00       0.013     2193.863   0.100E-11
     TRS4 it   8 1.00000000   0.230E-02       0.013     2195.319   0.100E-11
     TRS4 it   9 1.00000000   0.106E-05       0.013     2182.716   0.100E-11
     TRS4 it  10 1.00000000   0.453E-12       0.013     2182.146   0.100E-11
     Final TRS4 iteration   10 1.00000000   0.453E-12
     Chemical potential (mu):       0.05015
 
 PAO| energy:  -192.02501489892830      penalty:   5.1546654210657384E-004
 PAO|LS| adapt:  T T F
 PAO|LS| adapt: scan_steps:    0.0000000000000000       0.41384937390395693        0.0000000000000000     
 PAO|LS| adapt: energies:   -191.91608211310336       -192.02501489892830        0.0000000000000000     
 PAO| ======================= Iteration:        12 =============================

     Lanczos converged:  T threshold:   0.100E-02
     Est. extremal eigenvalues:    0.494E+01   0.137E+00
     Est. condition number :    0.361E+02

 Order=           3
     NS sqrt iter    1 1.00000000   0.128E+01       0.021     2701.241
     NS sqrt iter    2 1.00000000   0.644E+00       0.034     3371.229
     NS sqrt iter    3 1.00000000   0.206E+00       0.034     3370.705
     NS sqrt iter    4 1.00000000   0.260E-01       0.034     3359.494
     NS sqrt iter    5 1.00000000   0.114E-03       0.033     3384.411
     NS sqrt iter    6 1.00000000   0.257E-10       0.018     2186.771
     Symmetrizing Results
     Final NS sqrt iter    6 1.00000000   0.216E-11

     Est. extremal eigenvalues     -0.83424     2.57798  converged:  T
     TRS4 it   1 1.00000000   0.284E+02       0.007     2133.867   0.100E-11
     TRS4 it   2 1.00000000   0.233E+02       0.013     2185.853   0.100E-11
     TRS4 it   3 1.00000000   0.154E+02       0.013     2220.941   0.100E-11
     TRS4 it   4 1.00000000   0.890E+01       0.013     2194.073   0.100E-11
     TRS4 it   5 1.00000000   0.367E+01       0.013     2190.882   0.100E-11
     TRS4 it   6 1.00000000   0.917E+00       0.013     2196.949   0.100E-11
     TRS4 it   7 1.00000000   0.105E+00       0.013     2169.781   0.100E-11
     TRS4 it   8 1.00000000   0.199E-02       0.013     2178.377   0.100E-11
     TRS4 it   9 1.00000000   0.813E-06       0.013     2174.624   0.100E-11
     TRS4 it  10 1.00000000   0.275E-12       0.013     2203.919   0.100E-11
     Final TRS4 iteration   10 1.00000000   0.275E-12
     Chemical potential (mu):       0.05205
 
 PAO| energy:  -191.77603261120865      penalty:   5.7752061158276619E-004
 PAO|LS| Need extra step
 PAO|LS| adapt:  T T T
 PAO|LS| adapt: scan_steps:    0.0000000000000000       0.41384937390395693       0.82769874780791386     
 PAO|LS| adapt: energies:   -191.91608211310336       -192.02501489892830       -191.77603261120865     
 PAO|LS| adapt: suggested step_size:   0.33288128544000017     
 PAO|LS| adapt: predicted energy  -192.03186493977273     
 PAO| ======================= Iteration:        13 =============================

     Lanczos converged:  T threshold:   0.100E-02
     Est. extremal eigenvalues:    0.507E+01   0.128E+00
     Est. condition number :    0.395E+02

 Order=           3
     NS sqrt iter    1 1.00000000   0.130E+01       0.021     2691.046
     NS sqrt iter    2 1.00000000   0.665E+00       0.034     3326.355
     NS sqrt iter    3 1.00000000   0.219E+00       0.034     3358.039
     NS sqrt iter    4 1.00000000   0.311E-01       0.034     3356.070
     NS sqrt iter    5 1.00000000   0.194E-03       0.034     3359.227
     NS sqrt iter    6 1.00000000   0.129E-09       0.026     2507.403
     Symmetrizing Results
     Final NS sqrt iter    6 1.00000000   0.146E-11

     Est. extremal eigenvalues     -0.83491     2.61473  converged:  T
     TRS4 it   1 1.00000000   0.284E+02       0.007     2135.093   0.100E-11
     TRS4 it   2 1.00000000   0.235E+02       0.013     2192.494   0.100E-11
     TRS4 it   3 1.00000000   0.154E+02       0.013     2206.773   0.100E-11
     TRS4 it   4 1.00000000   0.897E+01       0.013     2223.558   0.100E-11
     TRS4 it   5 1.00000000   0.374E+01       0.013     2190.077   0.100E-11
     TRS4 it   6 1.00000000   0.955E+00       0.013     2183.951   0.100E-11
     TRS4 it   7 1.00000000   0.114E+00       0.013     2184.046   0.100E-11
     TRS4 it   8 1.00000000   0.235E-02       0.013     2204.986   0.100E-11
     TRS4 it   9 1.00000000   0.111E-05       0.013     2208.234   0.100E-11
     TRS4 it  10 1.00000000   0.531E-12       0.013     2179.989   0.100E-11
     Final TRS4 iteration   10 1.00000000   0.531E-12
     Chemical potential (mu):       0.04982
 
 PAO| energy:  -192.03289568203610      penalty:   5.0933300308550304E-004
 PAO|CG| trace_G_new   0.27924663540931677     
 PAO|CG| trace_G_prev   0.72904953502628878     
 PAO|CG| trace_G_mix   -1.2339970291278117E-002
 PAO|CG| trace_D   0.84984446438986905     
 PAO|CG| trace_D_Gnew   1.1671068530353214E-002
 PAO|CG| beta:   0.39995444985789691     
 PAO| norm of gradient:  0.52843792010918067     
 PAO| energy improvement: -0.11681356893274142     
 PAO| step     13                 -192.032895682  0.103E-02  0.333E+00     2.037
 PAO|LS| adapt:  T F F
 PAO|LS| adapt: scan_steps:    0.0000000000000000        0.0000000000000000        0.0000000000000000     
 PAO|LS| adapt: energies:   -192.03289568203610        0.0000000000000000        0.0000000000000000     
 PAO| ======================= Iteration:        14 =============================

     Lanczos converged:  T threshold:   0.100E-02
     Est. extremal eigenvalues:    0.499E+01   0.131E+00
     Est. condition number :    0.381E+02

 Order=           3
     NS sqrt iter    1 1.00000000   0.129E+01       0.021     2679.730
     NS sqrt iter    2 1.00000000   0.653E+00       0.034     3349.355
     NS sqrt iter    3 1.00000000   0.212E+00       0.034     3367.512
     NS sqrt iter    4 1.00000000   0.287E-01       0.034     3347.686
     NS sqrt iter    5 1.00000000   0.155E-03       0.034     3354.788
     NS sqrt iter    6 1.00000000   0.679E-10       0.023     2412.676
     Symmetrizing Results
     Final NS sqrt iter    6 1.00000000   0.197E-11

     Est. extremal eigenvalues     -0.83536     2.60996  converged:  T
     TRS4 it   1 1.00000000   0.285E+02       0.007     2114.823   0.100E-11
     TRS4 it   2 1.00000000   0.235E+02       0.013     2167.148   0.100E-11
     TRS4 it   3 1.00000000   0.154E+02       0.013     2210.786   0.100E-11
     TRS4 it   4 1.00000000   0.892E+01       0.013     2189.900   0.100E-11
     TRS4 it   5 1.00000000   0.368E+01       0.013     2172.713   0.100E-11
     TRS4 it   6 1.00000000   0.926E+00       0.013     2193.799   0.100E-11
     TRS4 it   7 1.00000000   0.108E+00       0.013     2185.378   0.100E-11
     TRS4 it   8 1.00000000   0.208E-02       0.013     2192.231   0.100E-11
     TRS4 it   9 1.00000000   0.879E-06       0.013     2188.002   0.100E-11
     TRS4 it  10 1.00000000   0.320E-12       0.013     2183.981   0.100E-11
     Final TRS4 iteration   10 1.00000000   0.320E-12
     Chemical potential (mu):       0.05160
 
 PAO| energy:  -192.08558165713816      penalty:   5.1156711584656215E-004
 PAO|LS| adapt:  T T F
 PAO|LS| adapt: scan_steps:    0.0000000000000000       0.33288128544000017        0.0000000000000000     
 PAO|LS| adapt: energies:   -192.03289568203610       -192.08558165713816        0.0000000000000000     
 PAO| ======================= Iteration:        15 =============================

     Lanczos converged:  T threshold:   0.100E-02
     Est. extremal eigenvalues:    0.491E+01   0.133E+00
     Est. condition number :    0.368E+02

 Order=           3
     NS sqrt iter    1 1.00000000   0.127E+01       0.021     2676.094
     NS sqrt iter    2 1.00000000   0.641E+00       0.034     3377.879
     NS sqrt iter    3 1.00000000   0.206E+00       0.034     3351.943
     NS sqrt iter    4 1.00000000   0.265E-01       0.034     3373.230
     NS sqrt iter    5 1.00000000   0.125E-03       0.034     3367.252
     NS sqrt iter    6 1.00000000   0.358E-10       0.020     2278.930
     Symmetrizing Results
     Final NS sqrt iter    6 1.00000000   0.222E-11

     Est. extremal eigenvalues     -0.83539     2.60492  converged:  T
     TRS4 it   1 1.00000000   0.285E+02       0.007     2116.522   0.100E-11
     TRS4 it   2 1.00000000   0.235E+02       0.013     2200.928   0.100E-11
     TRS4 it   3 1.00000000   0.154E+02       0.013     2188.551   0.100E-11
     TRS4 it   4 1.00000000   0.886E+01       0.013     2194.933   0.100E-11
     TRS4 it   5 1.00000000   0.362E+01       0.013     2191.439   0.100E-11
     TRS4 it   6 1.00000000   0.898E+00       0.013     2197.495   0.100E-11
     TRS4 it   7 1.00000000   0.101E+00       0.013     2175.538   0.100E-11
     TRS4 it   8 1.00000000   0.184E-02       0.013     2176.187   0.100E-11
     TRS4 it   9 1.00000000   0.696E-06       0.013     2172.763   0.100E-11
     TRS4 it  10 1.00000000   0.185E-12       0.013     2213.852   0.100E-11
     Final TRS4 iteration   10 1.00000000   0.185E-12
     Chemical potential (mu):       0.05329
 
 PAO| energy:  -192.06206791480838      penalty:   5.2944351279750747E-004
 PAO|LS| adapt:  T T T
 PAO|LS| adapt: scan_steps:    0.0000000000000000       0.33288128544000017       0.66576257088000035     
 PAO|LS| adapt: energies:   -192.03289568203610       -192.08558165713816       -192.06206791480838     
 PAO|LS| adapt: suggested step_size:   0.39660127464519324     
 PAO|LS| adapt: predicted energy  -192.08697769112885     
 PAO| ======================= Iteration:        16 =============================

     Lanczos converged:  T threshold:   0.100E-02
     Est. extremal eigenvalues:    0.498E+01   0.131E+00
     Est. condition number :    0.379E+02

 Order=           3
     NS sqrt iter    1 1.00000000   0.128E+01       0.021     2671.700
     NS sqrt iter    2 1.00000000   0.651E+00       0.034     3379.661
     NS sqrt iter    3 1.00000000   0.211E+00       0.034     3360.106
     NS sqrt iter    4 1.00000000   0.282E-01       0.034     3362.266
     NS sqrt iter    5 1.00000000   0.149E-03       0.034     3360.966
     NS sqrt iter    6 1.00000000   0.600E-10       0.023     2371.151
     Symmetrizing Results
     Final NS sqrt iter    6 1.00000000   0.205E-11

     Est. extremal eigenvalues     -0.83540     2.60901  converged:  T
     TRS4 it   1 1.00000000   0.285E+02       0.007     2103.848   0.100E-11
     TRS4 it   2 1.00000000   0.235E+02       0.013     2176.219   0.100E-11
     TRS4 it   3 1.00000000   0.154E+02       0.013     2187.898   0.100E-11
     TRS4 it   4 1.00000000   0.891E+01       0.013     2200.926   0.100E-11
     TRS4 it   5 1.00000000   0.367E+01       0.013     2200.368   0.100E-11
     TRS4 it   6 1.00000000   0.921E+00       0.013     2182.638   0.100E-11
     TRS4 it   7 1.00000000   0.106E+00       0.013     2188.041   0.100E-11
     TRS4 it   8 1.00000000   0.203E-02       0.013     2184.405   0.100E-11
     TRS4 it   9 1.00000000   0.840E-06       0.013     2184.465   0.100E-11
     TRS4 it  10 1.00000000   0.295E-12       0.013     2165.031   0.100E-11
     Final TRS4 iteration   10 1.00000000   0.295E-12
     Chemical potential (mu):       0.05194
 
 PAO| energy:  -192.08692003170648      penalty:   5.1372998274512235E-004
 PAO|CG| trace_G_new   0.10599480046943313     
 PAO|CG| trace_G_prev   0.27924663540931677     
 PAO|CG| trace_G_mix    4.1561276781448093E-003
 PAO|CG| trace_D   0.40585499145944898     
 PAO|CG| trace_D_Gnew   8.3811856156969255E-004
 PAO|CG| beta:   0.36469077825061086     
 PAO| norm of gradient:  0.32556842670847724     
 PAO| energy improvement:  -5.4024349670385163E-002
 PAO| step     16                 -192.086920032  0.636E-03  0.397E+00     1.560
 PAO|LS| adapt:  T F F
 PAO|LS| adapt: scan_steps:    0.0000000000000000        0.0000000000000000        0.0000000000000000     
 PAO|LS| adapt: energies:   -192.08692003170648        0.0000000000000000        0.0000000000000000     
 PAO| ======================= Iteration:        17 =============================

     Lanczos converged:  T threshold:   0.100E-02
     Est. extremal eigenvalues:    0.493E+01   0.132E+00
     Est. condition number :    0.373E+02

 Order=           3
     NS sqrt iter    1 1.00000000   0.127E+01       0.022     2644.129
     NS sqrt iter    2 1.00000000   0.645E+00       0.034     3359.537
     NS sqrt iter    3 1.00000000   0.208E+00       0.034     3349.861
     NS sqrt iter    4 1.00000000   0.273E-01       0.034     3371.726
     NS sqrt iter    5 1.00000000   0.135E-03       0.033     3386.229
     NS sqrt iter    6 1.00000000   0.456E-10       0.021     2320.805
     Symmetrizing Results
     Final NS sqrt iter    6 1.00000000   0.220E-11

     Est. extremal eigenvalues     -0.83545     2.60763  converged:  T
     TRS4 it   1 1.00000000   0.285E+02       0.007     2125.386   0.100E-11
     TRS4 it   2 1.00000000   0.235E+02       0.013     2173.581   0.100E-11
     TRS4 it   3 1.00000000   0.154E+02       0.013     2182.725   0.100E-11
     TRS4 it   4 1.00000000   0.886E+01       0.013     2191.363   0.100E-11
     TRS4 it   5 1.00000000   0.363E+01       0.013     2192.420   0.100E-11
     TRS4 it   6 1.00000000   0.901E+00       0.013     2196.762   0.100E-11
     TRS4 it   7 1.00000000   0.102E+00       0.013     2188.748   0.100E-11
     TRS4 it   8 1.00000000   0.187E-02       0.013     2170.122   0.100E-11
     TRS4 it   9 1.00000000   0.717E-06       0.013     2174.920   0.100E-11
     TRS4 it  10 1.00000000   0.215E-12       0.013     2199.285   0.100E-11
     Final TRS4 iteration   10 1.00000000   0.215E-12
     Chemical potential (mu):       0.05305
 
 PAO| energy:  -192.09158500470807      penalty:   5.0649764169652931E-004
 PAO|LS| adapt:  T T F
 PAO|LS| adapt: scan_steps:    0.0000000000000000       0.39660127464519324        0.0000000000000000     
 PAO|LS| adapt: energies:   -192.08692003170648       -192.09158500470807        0.0000000000000000     
 PAO| ======================= Iteration:        18 =============================

     Lanczos converged:  T threshold:   0.100E-02
     Est. extremal eigenvalues:    0.489E+01   0.133E+00
     Est. condition number :    0.368E+02

 Order=           3
     NS sqrt iter    1 1.00000000   0.126E+01       0.021     2682.719
     NS sqrt iter    2 1.00000000   0.639E+00       0.034     3343.198
     NS sqrt iter    3 1.00000000   0.205E+00       0.034     3346.661
     NS sqrt iter    4 1.00000000   0.264E-01       0.034     3334.820
     NS sqrt iter    5 1.00000000   0.123E-03       0.034     3359.687
     NS sqrt iter    6 1.00000000   0.349E-10       0.020     2245.954
     Symmetrizing Results
     Final NS sqrt iter    6 1.00000000   0.222E-11

     Est. extremal eigenvalues     -0.83534     2.60608  converged:  T
     TRS4 it   1 1.00000000   0.286E+02       0.007     2113.259   0.100E-11
     TRS4 it   2 1.00000000   0.235E+02       0.013     2175.608   0.100E-11
     TRS4 it   3 1.00000000   0.154E+02       0.013     2171.195   0.100E-11
     TRS4 it   4 1.00000000   0.882E+01       0.013     2202.398   0.100E-11
     TRS4 it   5 1.00000000   0.359E+01       0.013     2191.372   0.100E-11
     TRS4 it   6 1.00000000   0.882E+00       0.013     2172.879   0.100E-11
     TRS4 it   7 1.00000000   0.982E-01       0.013     2206.176   0.100E-11
     TRS4 it   8 1.00000000   0.173E-02       0.013     2184.397   0.100E-11
     TRS4 it   9 1.00000000   0.613E-06       0.013     2191.834   0.100E-11
     TRS4 it  10 1.00000000   0.131E-12       0.013     2200.516   0.100E-11
     Final TRS4 iteration   10 1.00000000   0.131E-12
     Chemical potential (mu):       0.05420
 
 PAO| energy:  -192.02156621242798      penalty:   5.0712092026471969E-004
 PAO|LS| adapt:  T T T
 PAO|LS| adapt: scan_steps:    0.0000000000000000       0.39660127464519324       0.79320254929038647     
 PAO|LS| adapt: energies:   -192.08692003170648       -192.09158500470807       -192.02156621242798     
 PAO|LS| adapt: suggested step_size:   0.22307354789606662     
 PAO|LS| adapt: predicted energy  -192.09873368300211     
 PAO| ======================= Iteration:        19 =============================

     Lanczos converged:  T threshold:   0.100E-02
     Est. extremal eigenvalues:    0.495E+01   0.132E+00
     Est. condition number :    0.375E+02

 Order=           3
     NS sqrt iter    1 1.00000000   0.128E+01       0.021     2695.459
     NS sqrt iter    2 1.00000000   0.647E+00       0.034     3364.492
     NS sqrt iter    3 1.00000000   0.209E+00       0.034     3352.050
     NS sqrt iter    4 1.00000000   0.277E-01       0.034     3324.411
     NS sqrt iter    5 1.00000000   0.141E-03       0.034     3377.000
     NS sqrt iter    6 1.00000000   0.514E-10       0.022     2338.149
     Symmetrizing Results
     Final NS sqrt iter    6 1.00000000   0.215E-11

     Est. extremal eigenvalues     -0.83544     2.60826  converged:  T
     TRS4 it   1 1.00000000   0.285E+02       0.007     2102.332   0.100E-11
     TRS4 it   2 1.00000000   0.235E+02       0.013     2200.683   0.100E-11
     TRS4 it   3 1.00000000   0.154E+02       0.013     2180.071   0.100E-11
     TRS4 it   4 1.00000000   0.888E+01       0.013     2200.280   0.100E-11
     TRS4 it   5 1.00000000   0.365E+01       0.013     2176.733   0.100E-11
     TRS4 it   6 1.00000000   0.910E+00       0.013     2189.492   0.100E-11
     TRS4 it   7 1.00000000   0.104E+00       0.013     2180.763   0.100E-11
     TRS4 it   8 1.00000000   0.194E-02       0.013     2174.282   0.100E-11
     TRS4 it   9 1.00000000   0.768E-06       0.013     2188.202   0.100E-11
     TRS4 it  10 1.00000000   0.259E-12       0.013     2172.552   0.100E-11
     Final TRS4 iteration   10 1.00000000   0.259E-12
     Chemical potential (mu):       0.05255
 
 PAO| energy:  -192.09871913534150      penalty:   5.0871065757387328E-004
 PAO|CG| trace_G_new    2.2475124015579526E-002
 PAO|CG| trace_G_prev   0.10599480046943313     
 PAO|CG| trace_G_mix   -3.4115385999505940E-004
 PAO|CG| trace_D   0.15936194788369326     
 PAO|CG| trace_D_Gnew  -5.0625951507708342E-005
 PAO|CG| beta:   0.21525846338240301     
 PAO| norm of gradient:  0.14991705712019404     
 PAO| energy improvement:  -1.1799103635013353E-002
 PAO| step     19                 -192.098719135  0.293E-03  0.223E+00     1.560
 PAO|LS| adapt:  T F F
 PAO|LS| adapt: scan_steps:    0.0000000000000000        0.0000000000000000        0.0000000000000000     
 PAO|LS| adapt: energies:   -192.09871913534150        0.0000000000000000        0.0000000000000000     
 PAO| ======================= Iteration:        20 =============================

     Lanczos converged:  T threshold:   0.100E-02
     Est. extremal eigenvalues:    0.494E+01   0.132E+00
     Est. condition number :    0.375E+02

 Order=           3
     NS sqrt iter    1 1.00000000   0.128E+01       0.021     2686.968
     NS sqrt iter    2 1.00000000   0.647E+00       0.034     3349.673
     NS sqrt iter    3 1.00000000   0.209E+00       0.034     3366.268
     NS sqrt iter    4 1.00000000   0.277E-01       0.034     3316.175
     NS sqrt iter    5 1.00000000   0.140E-03       0.034     3351.620
     NS sqrt iter    6 1.00000000   0.504E-10       0.022     2335.770
     Symmetrizing Results
     Final NS sqrt iter    6 1.00000000   0.216E-11

     Est. extremal eigenvalues     -0.83545     2.60690  converged:  T
     TRS4 it   1 1.00000000   0.285E+02       0.007     2097.139   0.100E-11
     TRS4 it   2 1.00000000   0.235E+02       0.013     2194.100   0.100E-11
     TRS4 it   3 1.00000000   0.154E+02       0.013     2206.994   0.100E-11
     TRS4 it   4 1.00000000   0.887E+01       0.013     2198.580   0.100E-11
     TRS4 it   5 1.00000000   0.364E+01       0.013     2196.849   0.100E-11
     TRS4 it   6 1.00000000   0.905E+00       0.013     2198.378   0.100E-11
     TRS4 it   7 1.00000000   0.103E+00       0.013     2211.064   0.100E-11
     TRS4 it   8 1.00000000   0.191E-02       0.013     2177.068   0.100E-11
     TRS4 it   9 1.00000000   0.743E-06       0.013     2201.107   0.100E-11
     TRS4 it  10 1.00000000   0.236E-12       0.013     2212.422   0.100E-11
     Final TRS4 iteration   10 1.00000000   0.236E-12
     Chemical potential (mu):       0.05275
 
 PAO| energy:  -192.10274933397164      penalty:   4.9885670932154767E-004
 PAO|LS| adapt:  T T F
 PAO|LS| adapt: scan_steps:    0.0000000000000000       0.22307354789606662        0.0000000000000000     
 PAO|LS| adapt: energies:   -192.09871913534150       -192.10274933397164        0.0000000000000000     
 PAO| ======================= Iteration:        21 =============================

     Lanczos converged:  T threshold:   0.100E-02
     Est. extremal eigenvalues:    0.494E+01   0.132E+00
     Est. condition number :    0.374E+02

 Order=           3
     NS sqrt iter    1 1.00000000   0.127E+01       0.021     2698.369
     NS sqrt iter    2 1.00000000   0.646E+00       0.034     3354.409
     NS sqrt iter    3 1.00000000   0.209E+00       0.034     3337.469
     NS sqrt iter    4 1.00000000   0.276E-01       0.034     3345.076
     NS sqrt iter    5 1.00000000   0.140E-03       0.034     3336.829
     NS sqrt iter    6 1.00000000   0.495E-10       0.022     2320.630
     Symmetrizing Results
     Final NS sqrt iter    6 1.00000000   0.216E-11

     Est. extremal eigenvalues     -0.83546     2.60552  converged:  T
     TRS4 it   1 1.00000000   0.285E+02       0.007     2122.498   0.100E-11
     TRS4 it   2 1.00000000   0.235E+02       0.013     2165.508   0.100E-11
     TRS4 it   3 1.00000000   0.154E+02       0.013     2164.520   0.100E-11
     TRS4 it   4 1.00000000   0.886E+01       0.013     2213.205   0.100E-11
     TRS4 it   5 1.00000000   0.363E+01       0.013     2169.803   0.100E-11
     TRS4 it   6 1.00000000   0.901E+00       0.013     2207.418   0.100E-11
     TRS4 it   7 1.00000000   0.102E+00       0.013     2168.272   0.100E-11
     TRS4 it   8 1.00000000   0.188E-02       0.013     2205.846   0.100E-11
     TRS4 it   9 1.00000000   0.720E-06       0.013     2199.152   0.100E-11
     TRS4 it  10 1.00000000   0.226E-12       0.013     2180.781   0.100E-11
     Final TRS4 iteration   10 1.00000000   0.226E-12
     Chemical potential (mu):       0.05295
 
 PAO| energy:  -192.10479318605377      penalty:   4.8947029921850792E-004
 PAO|LS| adapt:  T T F
 PAO|LS| adapt: scan_steps:    0.0000000000000000       0.44614709579213324        0.0000000000000000     
 PAO|LS| adapt: energies:   -192.09871913534150       -192.10479318605377        0.0000000000000000     
 PAO| ======================= Iteration:        22 =============================

     Lanczos converged:  F threshold:   0.100E-02
     Est. extremal eigenvalues:    0.492E+01   0.132E+00
     Est. condition number :    0.373E+02

 Order=           3
     NS sqrt iter    1 1.00000000   0.127E+01       0.021     2689.472
     NS sqrt iter    2 1.00000000   0.645E+00       0.034     3344.760
     NS sqrt iter    3 1.00000000   0.209E+00       0.034     3357.591
     NS sqrt iter    4 1.00000000   0.276E-01       0.034     3339.937
     NS sqrt iter    5 1.00000000   0.138E-03       0.034     3362.204
     NS sqrt iter    6 1.00000000   0.478E-10       0.022     2332.185
     Symmetrizing Results
     Final NS sqrt iter    6 1.00000000   0.218E-11

     Est. extremal eigenvalues     -0.83546     2.60272  converged:  T
     TRS4 it   1 1.00000000   0.285E+02       0.007     2118.169   0.100E-11
     TRS4 it   2 1.00000000   0.234E+02       0.013     2212.938   0.100E-11
     TRS4 it   3 1.00000000   0.154E+02       0.013     2198.030   0.100E-11
     TRS4 it   4 1.00000000   0.883E+01       0.013     2177.647   0.100E-11
     TRS4 it   5 1.00000000   0.361E+01       0.013     2200.212   0.100E-11
     TRS4 it   6 1.00000000   0.893E+00       0.013     2228.579   0.100E-11
     TRS4 it   7 1.00000000   0.101E+00       0.013     2170.938   0.100E-11
     TRS4 it   8 1.00000000   0.182E-02       0.013     2187.395   0.100E-11
     TRS4 it   9 1.00000000   0.675E-06       0.013     2186.956   0.100E-11
     TRS4 it  10 1.00000000   0.226E-12       0.013     2202.326   0.100E-11
     Final TRS4 iteration   10 1.00000000   0.226E-12
     Chemical potential (mu):       0.05335
 
 PAO| energy:  -192.10283308717320      penalty:   4.7206995423689548E-004
 PAO|LS| Need extra step
 PAO|LS| adapt:  T T T
 PAO|LS| adapt: scan_steps:    0.0000000000000000       0.44614709579213324       0.89229419158426648     
 PAO|LS| adapt: energies:   -192.09871913534150       -192.10479318605377       -192.10283308717320     
 PAO|LS| adapt: suggested step_size:   0.56037372555114473     
 PAO|LS| adapt: predicted energy  -192.10505650887777     
 PAO| ======================= Iteration:        23 =============================

     Lanczos converged:  T threshold:   0.100E-02
     Est. extremal eigenvalues:    0.493E+01   0.132E+00
     Est. condition number :    0.374E+02

 Order=           3
     NS sqrt iter    1 1.00000000   0.127E+01       0.021     2689.722
     NS sqrt iter    2 1.00000000   0.646E+00       0.034     3356.053
     NS sqrt iter    3 1.00000000   0.209E+00       0.034     3326.614
     NS sqrt iter    4 1.00000000   0.276E-01       0.034     3339.368
     NS sqrt iter    5 1.00000000   0.139E-03       0.034     3326.239
     NS sqrt iter    6 1.00000000   0.490E-10       0.022     2334.497
     Symmetrizing Results
     Final NS sqrt iter    6 1.00000000   0.218E-11

     Est. extremal eigenvalues     -0.83546     2.60481  converged:  T
     TRS4 it   1 1.00000000   0.285E+02       0.007     2086.643   0.100E-11
     TRS4 it   2 1.00000000   0.235E+02       0.013     2199.724   0.100E-11
     TRS4 it   3 1.00000000   0.154E+02       0.013     2203.051   0.100E-11
     TRS4 it   4 1.00000000   0.885E+01       0.013     2193.018   0.100E-11
     TRS4 it   5 1.00000000   0.362E+01       0.013     2174.538   0.100E-11
     TRS4 it   6 1.00000000   0.899E+00       0.013     2201.500   0.100E-11
     TRS4 it   7 1.00000000   0.102E+00       0.013     2191.247   0.100E-11
     TRS4 it   8 1.00000000   0.186E-02       0.013     2188.234   0.100E-11
     TRS4 it   9 1.00000000   0.708E-06       0.013     2192.224   0.100E-11
     TRS4 it  10 1.00000000   0.217E-12       0.013     2207.252   0.100E-11
     Final TRS4 iteration   10 1.00000000   0.217E-12
     Chemical potential (mu):       0.05305
 
 PAO| energy:  -192.10506360932501      penalty:   4.8484225625764854E-004
 PAO|CG| trace_G_new    1.7214287755961809E-002
 PAO|CG| trace_G_prev    2.2475124015579526E-002
 PAO|CG| trace_G_mix    1.1988403792630628E-004
 PAO|CG| trace_D    2.9881147399540935E-002
 PAO|CG| trace_D_Gnew  -5.3503087109883765E-005
 PAO|CG| beta:   0.76059218655193350     
 PAO| norm of gradient:  0.13120323073751580     
 PAO| energy improvement:  -6.3444739835176733E-003
 PAO| step     23                 -192.105063609  0.256E-03  0.560E+00     2.026
 PAO|LS| adapt:  T F F
 PAO|LS| adapt: scan_steps:    0.0000000000000000        0.0000000000000000        0.0000000000000000     
 PAO|LS| adapt: energies:   -192.10506360932501        0.0000000000000000        0.0000000000000000     
 PAO| ======================= Iteration:        24 =============================

     Lanczos converged:  T threshold:   0.100E-02
     Est. extremal eigenvalues:    0.492E+01   0.132E+00
     Est. condition number :    0.373E+02

 Order=           3
     NS sqrt iter    1 1.00000000   0.127E+01       0.021     2665.937
     NS sqrt iter    2 1.00000000   0.644E+00       0.034     3358.393
     NS sqrt iter    3 1.00000000   0.208E+00       0.034     3313.791
     NS sqrt iter    4 1.00000000   0.275E-01       0.034     3355.991
     NS sqrt iter    5 1.00000000   0.139E-03       0.034     3368.316
     NS sqrt iter    6 1.00000000   0.479E-10       0.022     2325.287
     Symmetrizing Results
     Final NS sqrt iter    6 1.00000000   0.217E-11

     Est. extremal eigenvalues     -0.83547     2.60100  converged:  T
     TRS4 it   1 1.00000000   0.285E+02       0.007     2136.481   0.100E-11
     TRS4 it   2 1.00000000   0.234E+02       0.013     2191.065   0.100E-11
     TRS4 it   3 1.00000000   0.154E+02       0.013     2182.259   0.100E-11
     TRS4 it   4 1.00000000   0.883E+01       0.013     2207.348   0.100E-11
     TRS4 it   5 1.00000000   0.360E+01       0.013     2181.105   0.100E-11
     TRS4 it   6 1.00000000   0.890E+00       0.013     2187.627   0.100E-11
     TRS4 it   7 1.00000000   0.100E+00       0.013     2196.342   0.100E-11
     TRS4 it   8 1.00000000   0.180E-02       0.013     2172.886   0.100E-11
     TRS4 it   9 1.00000000   0.660E-06       0.013     2182.156   0.100E-11
     TRS4 it  10 1.00000000   0.203E-12       0.013     2199.618   0.100E-11
     Final TRS4 iteration   10 1.00000000   0.203E-12
     Chemical potential (mu):       0.05347
 
 PAO| energy:  -192.10877863709680      penalty:   4.4772164712752300E-004
 PAO|LS| adapt:  T T F
 PAO|LS| adapt: scan_steps:    0.0000000000000000       0.56037372555114473        0.0000000000000000     
 PAO|LS| adapt: energies:   -192.10506360932501       -192.10877863709680        0.0000000000000000     
 PAO| ======================= Iteration:        25 =============================

     Lanczos converged:  T threshold:   0.100E-02
     Est. extremal eigenvalues:    0.490E+01   0.131E+00
     Est. condition number :    0.373E+02

 Order=           3
     NS sqrt iter    1 1.00000000   0.126E+01       0.021     2688.690
     NS sqrt iter    2 1.00000000   0.642E+00       0.034     3356.436
     NS sqrt iter    3 1.00000000   0.208E+00       0.034     3328.762
     NS sqrt iter    4 1.00000000   0.274E-01       0.034     3345.220
     NS sqrt iter    5 1.00000000   0.138E-03       0.034     3350.387
     NS sqrt iter    6 1.00000000   0.471E-10       0.022     2330.543
     Symmetrizing Results
     Final NS sqrt iter    6 1.00000000   0.218E-11

     Est. extremal eigenvalues     -0.83547     2.59699  converged:  T
     TRS4 it   1 1.00000000   0.285E+02       0.007     2105.610   0.100E-11
     TRS4 it   2 1.00000000   0.234E+02       0.013     2187.360   0.100E-11
     TRS4 it   3 1.00000000   0.153E+02       0.013     2190.618   0.100E-11
     TRS4 it   4 1.00000000   0.880E+01       0.013     2213.527   0.100E-11
     TRS4 it   5 1.00000000   0.358E+01       0.013     2188.817   0.100E-11
     TRS4 it   6 1.00000000   0.881E+00       0.013     2197.799   0.100E-11
     TRS4 it   7 1.00000000   0.982E-01       0.013     2195.038   0.100E-11
     TRS4 it   8 1.00000000   0.174E-02       0.013     2207.653   0.100E-11
     TRS4 it   9 1.00000000   0.616E-06       0.013     2193.982   0.100E-11
     TRS4 it  10 1.00000000   0.167E-12       0.013     2192.787   0.100E-11
     Final TRS4 iteration   10 1.00000000   0.167E-12
     Chemical potential (mu):       0.05390
 
 PAO| energy:  -192.10036717240774      penalty:   4.1468852189133367E-004
 PAO|LS| adapt:  T T T
 PAO|LS| adapt: scan_steps:    0.0000000000000000       0.56037372555114473        1.1207474511022895     
 PAO|LS| adapt: energies:   -192.10506360932501       -192.10877863709680       -192.10036717240774     
 PAO|LS| adapt: suggested step_size:   0.45186090287618053     
 PAO|LS| adapt: predicted energy  -192.10900599591250     
 PAO| ======================= Iteration:        26 =============================

     Lanczos converged:  T threshold:   0.100E-02
     Est. extremal eigenvalues:    0.492E+01   0.132E+00
     Est. condition number :    0.374E+02

 Order=           3
     NS sqrt iter    1 1.00000000   0.127E+01       0.021     2678.513
     NS sqrt iter    2 1.00000000   0.644E+00       0.034     3356.119
     NS sqrt iter    3 1.00000000   0.208E+00       0.034     3369.089
     NS sqrt iter    4 1.00000000   0.275E-01       0.034     3361.445
     NS sqrt iter    5 1.00000000   0.139E-03       0.034     3373.703
     NS sqrt iter    6 1.00000000   0.481E-10       0.022     2300.551
     Symmetrizing Results
     Final NS sqrt iter    6 1.00000000   0.218E-11

     Est. extremal eigenvalues     -0.83547     2.60175  converged:  T
     TRS4 it   1 1.00000000   0.285E+02       0.007     2107.797   0.100E-11
     TRS4 it   2 1.00000000   0.234E+02       0.013     2199.011   0.100E-11
     TRS4 it   3 1.00000000   0.154E+02       0.013     2179.734   0.100E-11
     TRS4 it   4 1.00000000   0.883E+01       0.013     2211.128   0.100E-11
     TRS4 it   5 1.00000000   0.360E+01       0.013     2177.601   0.100E-11
     TRS4 it   6 1.00000000   0.892E+00       0.013     2203.520   0.100E-11
     TRS4 it   7 1.00000000   0.100E+00       0.013     2194.667   0.100E-11
     TRS4 it   8 1.00000000   0.181E-02       0.013     2165.504   0.100E-11
     TRS4 it   9 1.00000000   0.669E-06       0.013     2203.250   0.100E-11
     TRS4 it  10 1.00000000   0.211E-12       0.013     2198.594   0.100E-11
     Final TRS4 iteration   10 1.00000000   0.211E-12
     Chemical potential (mu):       0.05339
 
 PAO| energy:  -192.10899574075012      penalty:   4.5458483792573234E-004
 PAO|CG| trace_G_new    1.4267710386786571E-002
 PAO|CG| trace_G_prev    1.7214287755961809E-002
 PAO|CG| trace_G_mix    2.7859773827571162E-004
 PAO|CG| trace_D    3.4581933757571029E-002
 PAO|CG| trace_D_Gnew  -8.6937946165183242E-005
 PAO|CG| beta:   0.81264545166360558     
 PAO| norm of gradient:  0.11944752147611340     
 PAO| energy improvement:  -3.9321314251026251E-003
 PAO| step     26                 -192.108995741  0.233E-03  0.452E+00     1.559
 PAO|LS| adapt:  T F F
 PAO|LS| adapt: scan_steps:    0.0000000000000000        0.0000000000000000        0.0000000000000000     
 PAO|LS| adapt: energies:   -192.10899574075012        0.0000000000000000        0.0000000000000000     
 PAO| ======================= Iteration:        27 =============================

     Lanczos converged:  T threshold:   0.100E-02
     Est. extremal eigenvalues:    0.490E+01   0.131E+00
     Est. condition number :    0.373E+02

 Order=           3
     NS sqrt iter    1 1.00000000   0.126E+01       0.021     2686.467
     NS sqrt iter    2 1.00000000   0.642E+00       0.033     3382.105
     NS sqrt iter    3 1.00000000   0.208E+00       0.034     3375.734
     NS sqrt iter    4 1.00000000   0.274E-01       0.034     3331.986
     NS sqrt iter    5 1.00000000   0.138E-03       0.033     3383.425
     NS sqrt iter    6 1.00000000   0.478E-10       0.022     2316.776
     Symmetrizing Results
     Final NS sqrt iter    6 1.00000000   0.217E-11

     Est. extremal eigenvalues     -0.83549     2.59893  converged:  T
     TRS4 it   1 1.00000000   0.285E+02       0.007     2103.914   0.100E-11
     TRS4 it   2 1.00000000   0.234E+02       0.013     2216.969   0.100E-11
     TRS4 it   3 1.00000000   0.153E+02       0.013     2204.491   0.100E-11
     TRS4 it   4 1.00000000   0.881E+01       0.013     2200.601   0.100E-11
     TRS4 it   5 1.00000000   0.358E+01       0.013     2212.347   0.100E-11
     TRS4 it   6 1.00000000   0.883E+00       0.013     2180.933   0.100E-11
     TRS4 it   7 1.00000000   0.985E-01       0.013     2196.523   0.100E-11
     TRS4 it   8 1.00000000   0.175E-02       0.013     2203.837   0.100E-11
     TRS4 it   9 1.00000000   0.623E-06       0.013     2204.317   0.100E-11
     TRS4 it  10 1.00000000   0.139E-12       0.013     2180.554   0.100E-11
     Final TRS4 iteration   10 1.00000000   0.139E-12
     Chemical potential (mu):       0.05385
 
 PAO| energy:  -192.11174946859407      penalty:   4.1624847023270925E-004
 PAO|LS| adapt:  T T F
 PAO|LS| adapt: scan_steps:    0.0000000000000000       0.45186090287618053        0.0000000000000000     
 PAO|LS| adapt: energies:   -192.10899574075012       -192.11174946859407        0.0000000000000000     
 PAO| ======================= Iteration:        28 =============================

     Lanczos converged:  T threshold:   0.100E-02
     Est. extremal eigenvalues:    0.488E+01   0.131E+00
     Est. condition number :    0.373E+02

 Order=           3
     NS sqrt iter    1 1.00000000   0.126E+01       0.021     2658.645
     NS sqrt iter    2 1.00000000   0.640E+00       0.034     3351.822
     NS sqrt iter    3 1.00000000   0.207E+00       0.034     3370.477
     NS sqrt iter    4 1.00000000   0.272E-01       0.034     3367.293
     NS sqrt iter    5 1.00000000   0.137E-03       0.034     3346.894
     NS sqrt iter    6 1.00000000   0.477E-10       0.022     2330.112
     Symmetrizing Results
     Final NS sqrt iter    6 1.00000000   0.220E-11

     Est. extremal eigenvalues     -0.83549     2.59592  converged:  T
     TRS4 it   1 1.00000000   0.285E+02       0.007     2094.734   0.100E-11
     TRS4 it   2 1.00000000   0.234E+02       0.013     2199.268   0.100E-11
     TRS4 it   3 1.00000000   0.153E+02       0.013     2201.159   0.100E-11
     TRS4 it   4 1.00000000   0.878E+01       0.013     2176.578   0.100E-11
     TRS4 it   5 1.00000000   0.356E+01       0.013     2187.281   0.100E-11
     TRS4 it   6 1.00000000   0.874E+00       0.013     2210.324   0.100E-11
     TRS4 it   7 1.00000000   0.967E-01       0.013     2191.741   0.100E-11
     TRS4 it   8 1.00000000   0.168E-02       0.013     2188.845   0.100E-11
     TRS4 it   9 1.00000000   0.581E-06       0.013     2165.350   0.100E-11
     TRS4 it  10 1.00000000   0.158E-12       0.013     2205.239   0.100E-11
     Final TRS4 iteration   10 1.00000000   0.158E-12
     Chemical potential (mu):       0.05432
 
 PAO| energy:  -192.10697794524015      penalty:   3.8159123230699788E-004
 PAO|LS| adapt:  T T T
 PAO|LS| adapt: scan_steps:    0.0000000000000000       0.45186090287618053       0.90372180575236105     
 PAO|LS| adapt: energies:   -192.10899574075012       -192.11174946859407       -192.10697794524015     
 PAO|LS| adapt: suggested step_size:   0.39128067259679727     
 PAO|LS| adapt: predicted energy  -192.11181709920555     
 PAO| ======================= Iteration:        29 =============================

     Lanczos converged:  T threshold:   0.100E-02
     Est. extremal eigenvalues:    0.490E+01   0.131E+00
     Est. condition number :    0.373E+02

 Order=           3
     NS sqrt iter    1 1.00000000   0.126E+01       0.021     2672.618
     NS sqrt iter    2 1.00000000   0.642E+00       0.034     3362.658
     NS sqrt iter    3 1.00000000   0.208E+00       0.034     3350.889
     NS sqrt iter    4 1.00000000   0.274E-01       0.034     3358.384
     NS sqrt iter    5 1.00000000   0.138E-03       0.034     3367.564
     NS sqrt iter    6 1.00000000   0.478E-10       0.022     2326.015
     Symmetrizing Results
     Final NS sqrt iter    6 1.00000000   0.217E-11

     Est. extremal eigenvalues     -0.83548     2.59932  converged:  T
     TRS4 it   1 1.00000000   0.285E+02       0.007     2135.881   0.100E-11
     TRS4 it   2 1.00000000   0.234E+02       0.013     2190.756   0.100E-11
     TRS4 it   3 1.00000000   0.153E+02       0.013     2182.706   0.100E-11
     TRS4 it   4 1.00000000   0.881E+01       0.013     2208.139   0.100E-11
     TRS4 it   5 1.00000000   0.359E+01       0.013     2178.709   0.100E-11
     TRS4 it   6 1.00000000   0.884E+00       0.013     2197.526   0.100E-11
     TRS4 it   7 1.00000000   0.988E-01       0.013     2204.155   0.100E-11
     TRS4 it   8 1.00000000   0.175E-02       0.013     2183.334   0.100E-11
     TRS4 it   9 1.00000000   0.629E-06       0.013     2188.233   0.100E-11
[...]
     NS sqrt iter    6 1.00000000   0.234E-09       0.026     2494.922
     Symmetrizing Results
     Final NS sqrt iter    6 1.00000000   0.140E-11

     Est. extremal eigenvalues     -0.83570     2.58942  converged:  T
     TRS4 it   1 1.00000000   0.287E+02       0.007     2134.132   0.100E-11
     TRS4 it   2 1.00000000   0.236E+02       0.013     2200.247   0.100E-11
     TRS4 it   3 1.00000000   0.155E+02       0.013     2165.060   0.100E-11
     TRS4 it   4 1.00000000   0.913E+01       0.013     2179.387   0.100E-11
     TRS4 it   5 1.00000000   0.407E+01       0.013     2173.070   0.100E-11
     TRS4 it   6 1.00000000   0.125E+01       0.013     2205.562   0.100E-11
     TRS4 it   7 1.00000000   0.214E+00       0.013     2174.852   0.100E-11
     TRS4 it   8 1.00000000   0.967E-02       0.013     2173.408   0.100E-11
     TRS4 it   9 1.00000000   0.236E-04       0.013     2188.271   0.100E-11
     TRS4 it  10 1.00000000   0.181E-09       0.013     2188.748   0.100E-11
     Final TRS4 iteration   10 1.00000000   0.181E-09
     Chemical potential (mu):       0.02691
 
 PAO| energy:  -191.73039041135044      penalty:   2.3250707939936209E-008
 PAO| Writing restart file.
     Est. extremal eigenvalues     -0.83570     2.58942  converged:  T
     TRS4 it   1 1.00000000   0.287E+02       0.007     2117.964   0.100E-11
     TRS4 it   2 1.00000000   0.236E+02       0.013     2195.820   0.100E-11
     TRS4 it   3 1.00000000   0.155E+02       0.013     2196.698   0.100E-11
     TRS4 it   4 1.00000000   0.913E+01       0.013     2194.950   0.100E-11
     TRS4 it   5 1.00000000   0.407E+01       0.013     2194.911   0.100E-11
     TRS4 it   6 1.00000000   0.125E+01       0.013     2188.849   0.100E-11
     TRS4 it   7 1.00000000   0.214E+00       0.013     2201.801   0.100E-11
     TRS4 it   8 1.00000000   0.967E-02       0.013     2196.479   0.100E-11
     TRS4 it   9 1.00000000   0.236E-04       0.013     2177.009   0.100E-11
     TRS4 it  10 1.00000000   0.181E-09       0.013     2187.684   0.100E-11
     Final TRS4 iteration   10 1.00000000   0.181E-09
     Chemical potential (mu):       0.02691

 SCF     1     -1103.032898977     -1103.032898977    1.766148

*********************************************************
 Using MIXING_FRACTION=0.450 to mix KS matrix:  iscf=  2
 KS_nw=0.450*KS + 0.550*KS_old
*********************************************************
     Est. extremal eigenvalues     -0.83570     2.58942  converged:  T
     TRS4 it   1 1.00000000   0.287E+02       0.007     2122.887   0.100E-11
     TRS4 it   2 1.00000000   0.236E+02       0.013     2214.607   0.100E-11
     TRS4 it   3 1.00000000   0.155E+02       0.013     2190.432   0.100E-11
     TRS4 it   4 1.00000000   0.913E+01       0.013     2198.901   0.100E-11
     TRS4 it   5 1.00000000   0.407E+01       0.013     2193.373   0.100E-11
     TRS4 it   6 1.00000000   0.125E+01       0.013     2193.163   0.100E-11
     TRS4 it   7 1.00000000   0.214E+00       0.013     2194.975   0.100E-11
     TRS4 it   8 1.00000000   0.967E-02       0.013     2194.752   0.100E-11
     TRS4 it   9 1.00000000   0.236E-04       0.013     2188.138   0.100E-11
     TRS4 it  10 1.00000000   0.181E-09       0.013     2197.667   0.100E-11
     Final TRS4 iteration   10 1.00000000   0.181E-09
     Chemical potential (mu):       0.02691

 SCF     2     -1103.032898978        -0.000000000    1.765172


 SCF run converged in     2 steps.

 PAO| Storing density matrix for ASPC guess in slot:           1

 ENERGY| Total FORCE_EVAL ( QS ) energy [a.u.]:            -1103.032898977500736

 -------------------------------------------------------------------------------
 -                                                                             -
 -                                DBCSR STATISTICS                             -
 -                                                                             -
 -------------------------------------------------------------------------------
 COUNTER                                    TOTAL       BLAS       SMM       ACC
 flops     5 x     5 x     4             23116800       0.0%    100.0%      0.0%     
 flops    13 x     5 x     4             29818880       0.0%    100.0%      0.0%     
 flops     5 x    13 x     4             29818880       0.0%    100.0%      0.0%     
 flops    13 x    13 x     4             39370240       0.0%    100.0%      0.0%     
 flops     4 x     4 x     5           6311116800       0.0%    100.0%      0.0%     
 flops     5 x     4 x     5           7775846400       0.0%    100.0%      0.0%     
 flops     4 x     4 x    13           8204451840       0.0%    100.0%      0.0%     
 flops    13 x     4 x     5          10108600320       0.0%    100.0%      0.0%     
 flops     5 x     4 x    13          10108600320       0.0%    100.0%      0.0%     
 flops    13 x     4 x    13          13141180416       0.0%    100.0%      0.0%     
 flops     5 x     4 x     4         400663534720       0.0%    100.0%      0.0%     
 flops    13 x     4 x     4         546936523744       0.0%    100.0%      0.0%     
 flops     4 x     4 x     4       28594615646592       0.0%    100.0%      0.0%     
 flops inhomo. stacks                           0       0.0%      0.0%      0.0%
 flops total                        29.597988E+12       0.0%    100.0%      0.0%
 flops max/rank                    933.877453E+09       0.0%    100.0%      0.0%
 matmuls inhomo. stacks                         0       0.0%      0.0%      0.0%
 matmuls total                       227361237474       0.0%    100.0%      0.0%
 number of processed stacks             232185869       0.0%    100.0%      0.0%
 average stack size                                     0.0     979.2       0.0
 marketing flops                    50.726768E+12
 -------------------------------------------------------------------------------
 # multiplications                          47420
 max memory usage/rank             619.110400E+06
 # max total images/rank                        2
 # max 3D layers                                1
 # MPI messages exchanged                19726720
 MPI messages size (bytes):
  total size                         2.352547E+12
  min size                           0.000000E+00
  max size                         541.696000E+03
  average size                     119.256852E+03
 MPI breakdown and total messages size (bytes):
             size <=      128              865386                    19584
       128 < size <=     8192              292038               1092801152
      8192 < size <=    32768               28422                667232640
     32768 < size <=   131072             8327350             615877719552
    131072 < size <=  4194304            10213524            1735283144704
   4194304 < size <= 16777216                   0                        0
  16777216 < size                               0                        0
 -------------------------------------------------------------------------------

 *** WARNING in dbcsr_mm.F:301 :: Using a non-square number of MPI ranks ***
 *** might lead to poor performance. Used ranks: 32 Suggested: 36 64     ***

 -------------------------------------------------------------------------------
 -                                                                             -
 -                      DBCSR MESSAGE PASSING PERFORMANCE                      -
 -                                                                             -
 -------------------------------------------------------------------------------
 ROUTINE             CALLS      AVE VOLUME [Bytes]
 MP_Bcast               14                     12.
 MP_Allreduce       283620                     37.
 MP_Alltoall        123159                  14870.
 MP_ISend          1583838                  55582.
 MP_IRecv          1550638                  56852.
 -------------------------------------------------------------------------------

 -------------------------------------------------------------------------------
 -                                                                             -
 -                                DBM STATISTICS                               -
 -                                                                             -
 -------------------------------------------------------------------------------
    M  x    N  x    K                                          COUNT     PERCENT
 -------------------------------------------------------------------------------

 -------------------------------------------------------------------------------
 -                                                                             -
 -                                GRID STATISTICS                              -
 -                                                                             -
 -------------------------------------------------------------------------------
 LP    KERNEL             BACKEND                              COUNT     PERCENT
 2     collocate ortho    CPU                               11474316      28.83%
 2     integrate ortho    CPU                               11474316      28.83%
 3     collocate ortho    CPU                                7373100      18.53%
 3     integrate ortho    CPU                                7373100      18.53%
 4     collocate ortho    CPU                                1047984       2.63%
 4     integrate ortho    CPU                                1047984       2.63%
 0     collocate general  CPU                                   6144       0.02%
 -------------------------------------------------------------------------------

 MEMORY| Estimated peak process memory [MiB]                                 591

 -------------------------------------------------------------------------------
 -                                                                             -
 -                         MESSAGE PASSING PERFORMANCE                         -
 -                                                                             -
 -------------------------------------------------------------------------------

 ROUTINE             CALLS      AVE VOLUME [Bytes]
 MP_Group                5
 MP_Bcast           446278                   1761.
 MP_Allreduce      1108242                    514.
 MP_Sync                 5
 MP_Alltoall           369                 234110.
 MP_SendRecv          1302                  18832.
 MP_ISendRecv         1302                  18832.
 MP_Wait              3696
 MP_ISend             2166                 108220.
 MP_IRecv             2166                 108236.
 -------------------------------------------------------------------------------


 -------------------------------------------------------------------------------
 -                                                                             -
 -                           R E F E R E N C E S                               -
 -                                                                             -
 -------------------------------------------------------------------------------
 
 CP2K version 2024.3 (Development Version), the CP2K developers group (2024).
 CP2K is freely available from https://www.cp2k.org/ .
 
 T. D. Kuehne, M. Iannuzzi, M. Del Ben, V. V. Rybkin, P. Seewald, F. Stein, T. 
 Laino, R. Z. Khaliullin, O. Schuett, F. Schiffmann, D. Golze, J. Wilhelm, S. 
 Chulkov, M. H. Bani-Hashemian, V. Weber, U. Borstnik, M. Taillefumier, A. S. 
 Jakobovits, A. Lazzaro, H. Pabst, T. Mueller, R. Schade, M. Guidon, S. 
 Andermatt, N. Holmberg, G. K. Schenter, A. Hehn, A. Bussy, F. Belleflamme, G. 
 Tabacchi, A. Gloess, M. Lass, I. Bethune, C. J. Mundy, C. Plessl, M. Watkins, 
 J. VandeVondele, M. Krack, J. Hutter.
 J. Chem. Phys. 152, 194103 (2020).
 CP2K: An electronic structure and molecular dynamics software package - 
 Quickstep: Efficient and accurate electronic structure calculations.
 https://doi.org/10.1063/5.0007045

 O. Schuett, J. VandeVondele.
 J. Chem. Theory Comput. 14, 4168-4175 (2018).
 Machine Learning Adaptive Basis Sets for Efficient Large Scale Density 
 Functional Theory Simulation.
 https://doi.org/10.1021/acs.jctc.8b00378

 O. Schuett, P. Messmer, J. Hutter, J. VandeVondele.
 Electronic Structure Calculations on Graphics Processing Units, 173-190 (2016).
 GPU-Accelerated Sparse Matrix-Matrix Multiplication for Linear Scaling Density 
 Functional Theory.
 https://doi.org/10.1002/9781118670712.ch8

 A. Heinecke, G. Henry, M. Hutchinson, H. Pabst.
 Proceedings of Intl. Supercomputing Conference, 981-991 (2016).
 LIBXSMM: Accelerating Small Matrix Multiplications by Runtime Code Generation.
 https://doi.org/10.1109/SC.2016.83

 J. Hutter, M. Iannuzzi, F. Schiffmann, J. VandeVondele.
 WIREs Comput Mol Sci. 4, 15-25 (2014).
 CP2K: atomistic simulations of condensed matter systems.
 https://doi.org/10.1002/wcms.1159

 U. Borstnik, J. VandeVondele, V. Weber, J. Hutter.
 Parallel Comput. 40, 47-58 (2014).
 Sparse matrix multiplication: The distributed block-compressed sparse row 
 library.
 https://doi.org/10.1016/j.parco.2014.03.012

 A. Marek, V. Blum, R. Johanni, V. Havu, B. Lang, T. Auckenthaler, A. Heinecke, 
 H. Bungartz, H. Lederer.
 J. Phys. Condens. Matter 26, 213201 (2014).
 The ELPA library: scalable parallel eigenvalue solutions for electronic 
 structure theory and computational science.
 https://doi.org/10.1088/0953-8984/26/21/213201

 J. VandeVondele, U. Borstnik, J. Hutter.
 J. Chem. Theory Comput. 8, 3565-3573 (2012).
 Linear Scaling Self-Consistent Field Calculations with Millions of Atoms in the 
 Condensed Phase.
 https://doi.org/10.1021/ct200897x

 J. VandeVondele, J. Hutter.
 J. Chem. Phys. 127, 114105 (2007).
 Gaussian basis sets for accurate calculations on molecular systems in gas and 
 condensed phases.
 https://doi.org/10.1063/1.2770708

 J. VandeVondele, M. Krack, F. Mohamed, M. Parrinello, T. Chassaing, J. Hutter.
 Comput. Phys. Commun. 167, 103-128 (2005).
 QUICKSTEP: Fast and accurate density functional calculations using a mixed 
 Gaussian and plane waves approach.
 https://doi.org/10.1016/j.cpc.2004.12.014

 M. Krack.
 Theor. Chem. Acc. 114, 145-152 (2005).
 Pseudopotentials for H to Kr optimized for gradient-corrected 
 exchange-correlation functionals.
 https://doi.org/10.1007/s00214-005-0655-y

 M. Frigo, S. G. Johnson.
 Proc. IEEE 93, 216-231 (2005).
 The design and implementation of FFTW3.
 https://doi.org/10.1109/JPROC.2004.840301

 A. M. N. Niklasson, C. J. Tymczak, M. Challacombe.
 J. Chem. Phys. 118, 8611-8620 (2003).
 Trace resetting density matrix purification in O(N) self-consistent-field 
 theory.
 https://doi.org/10.1063/1.1559913

 C. Hartwigsen, S. Goedecker, J. Hutter.
 Phys. Rev. B 58, 3641-3662 (1998).
 Relativistic separable dual-space Gaussian pseudopotentials from H to Rn.
 https://doi.org/10.1103/PhysRevB.58.3641

 G. Lippert, J. Hutter, M. Parrinello.
 Mol. Phys. 92, 477-487 (1997).
 A hybrid Gaussian and plane wave density functional scheme.
 https://doi.org/10.1080/002689797170220

 S. Goedecker, M. Teter, J. Hutter.
 Phys. Rev. B 54, 1703-1710 (1996).
 Separable dual-space Gaussian pseudopotentials.
 https://doi.org/10.1103/PhysRevB.54.1703

 J. P. Perdew, K. Burke, M. Ernzerhof.
 Phys. Rev. Lett. 77, 3865-3868 (1996).
 Generalized gradient approximation made simple.
 https://doi.org/10.1103/PhysRevLett.77.3865


 -------------------------------------------------------------------------------
 -                                                                             -
 -                                T I M I N G                                  -
 -                                                                             -
 -------------------------------------------------------------------------------
 SUBROUTINE                       CALLS  ASD         SELF TIME        TOTAL TIME
                                MAXIMUM       AVERAGE  MAXIMUM  AVERAGE  MAXIMUM
 CP2K                                 1  1.0    0.013    0.017  441.909  441.910
 qs_energies                          1  2.0    0.000    0.000  441.747  441.747
 ls_scf                               1  3.0    0.000    0.000  440.629  440.630
 pao_update                           6  4.0    0.006    0.023  414.347  414.348
 pao_calc_energy                    793  5.0    0.003    0.017  372.485  372.488
 dbcsr_multiply_generic           47420  8.4    1.317    1.366  333.370  333.534
 multiply_cannon                  47420  9.4    2.465    2.841  269.787  273.578
 multiply_cannon_loop             47420 10.4    1.786    2.042  259.694  262.411
 ls_scf_init_matrix_S               799  7.0    0.008    0.010  209.390  209.440
 pao_rebuild_S                      793  6.0    0.002    0.003  207.811  207.860
 matrix_sqrt_Newton_Schulz          799  8.0    0.165    0.272  194.476  194.516
 multiply_cannon_multrec         379360 11.4  169.999  171.517  170.783  172.289
 pao_dm_trs4                        793  6.0    0.006    0.007  164.310  164.356
 density_matrix_trs4                806  7.0    0.194    0.329  158.413  158.472
 mp_waitall_1                   3036410 12.6   85.976   92.791   85.976   92.791
 arnoldi_extremal                  1605  8.5    0.012    0.014   73.848   73.891
 arnoldi_normal_ev                 1605  9.5    0.040    0.071   73.833   73.876
 multiply_cannon_metrocomm3      379360 11.4    0.665    0.710   68.833   72.675
 build_subspace                    7223 10.5    0.438    0.468   64.618   64.659
 dbcsr_matrix_vector_mult        219900 11.5    0.942    1.420   60.777   61.281
 dbcsr_matrix_vector_mult_local  219900 12.5   51.919   52.479   52.165   52.725
 make_m2s                         94840  9.4    0.522    0.674   49.035   49.965
 make_images                      94840 10.4    6.999    7.193   47.737   48.772
 pao_calc_AB                       1050  5.8    0.002    0.002   41.414   41.416
 pao_calc_AB_equi                  1050  6.8    0.039    0.096   41.412   41.414
 pao_calc_grad_lnv_wrt_AB           256  7.0    0.019    0.023   41.019   41.052
 make_images_data                 94840 11.4    0.824    0.974   20.970   23.780
 ls_scf_main                          6  4.0    0.000    0.001   22.991   22.992
 ls_scf_dm_to_ks                     13  5.0    0.000    0.000   20.300   20.301
 hybrid_alltoall_any              96434 12.4    0.867    1.811   16.473   19.927
 matrix_qs_to_ls                   1605  7.5    0.016    0.020   16.800   16.944
 mp_sum_l                        193297  9.5    7.384   12.549    7.384   12.549
 qs_ks_update_qs_env                 14  6.0    0.000    0.000   12.192   12.194
 rebuild_ks_matrix                   14  7.0    0.000    0.000   12.182   12.184
 qs_ks_build_kohn_sham_matrix        14  8.0    0.002    0.002   12.182   12.184
 calculate_norms                 706912 11.4   11.063   12.070   11.063   12.070
 make_images_pack                 94840 11.4   10.476   10.894   10.605   11.031
 qs_rho_update_rho_low               14  6.0    0.000    0.000    9.586    9.588
 calculate_rho_elec                  14  7.0    0.005    0.005    9.586    9.588
 sum_up_and_integrate                14  9.0    0.000    0.000    9.227    9.229
 integrate_v_rspace                  14 10.0    0.000    0.000    9.214    9.216
 -------------------------------------------------------------------------------

 The number of warnings for this run is : 1
 
 -------------------------------------------------------------------------------
  **** **** ******  **  PROGRAM ENDED AT                 2024-09-24 03:14:55.474
 ***** ** ***  *** **   PROGRAM RAN ON                                    moritz
 **    ****   ******    PROGRAM RAN BY                                       ole
 ***** **    ** ** **   PROGRAM PROCESS ID                                167498
  **** **  *******  **  PROGRAM STOPPED IN /home/ole/git/pao_ml_equivar/64H2O_MD
                                           /Frame3900
