 DBCSR| CPU Multiplication driver                                           XSMM (U)
 DBCSR| Multrec recursion limit                                              512 (U)
 DBCSR| Multiplication stack size                                           1000 (D)
 DBCSR| Maximum elements for images                                    UNLIMITED (U)
 DBCSR| Multiplicative factor virtual images                                   1 (U)
 DBCSR| Use multiplication densification                                       T (D)
 DBCSR| Multiplication size stacks                                             3 (U)
 DBCSR| Use memory pool for CPU allocation                                     F (U)
 DBCSR| Number of 3D layers                                               SINGLE (U)
 DBCSR| Use MPI memory allocation                                              F (U)
 DBCSR| Use RMA algorithm                                                      F (U)
 DBCSR| Use Communication thread                                               T (U)
 DBCSR| Communication thread load                                             87 (D)
 DBCSR| MPI: My process id                                                     0
 DBCSR| MPI: Number of processes                                              32
 DBCSR| OMP: Current number of threads                                         1
 DBCSR| OMP: Max number of threads                                             1
 DBCSR| Split modifier for TAS multiplication algorithm                  1.0E+00 (U)


  **** **** ******  **  PROGRAM STARTED AT               2024-09-23 17:43:17.127
 ***** ** ***  *** **   PROGRAM STARTED ON                                moritz
 **    ****   ******    PROGRAM STARTED BY                                   ole
 ***** **    ** ** **   PROGRAM PROCESS ID                                158518
  **** **  *******  **  PROGRAM STARTED IN /home/ole/git/pao_ml_equivar/64H2O_MD
                                           /Frame3900

 CP2K| version string:                 CP2K version 2024.3 (Development Version)
 CP2K| source code revision number:                                  git:3f890bb
 CP2K| cp2kflags: omp libint fftw3 libxc libgrpp pexsi elpa parallel scalapack c
 CP2K|            osma quip deepmd xsmm plumed2 spglib libdftd4 sirius libvori l
 CP2K|            libbqb libvdwxc hdf5
 CP2K| is freely available from                            https://www.cp2k.org/
 CP2K| Program compiled at                          Mo 23 Sep 2024 17:17:04 CEST
 CP2K| Program compiled on                                                moritz
 CP2K| Program compiled for                                                local
 CP2K| Data directory path                               /home/ole/git/cp2k/data
 CP2K| Input file name                                             64H2O_ref.inp

 GLOBAL| Force Environment number                                              1
 GLOBAL| Basis set file name                                        BASIS_MOLOPT
 GLOBAL| Potential file name                                      GTH_POTENTIALS
 GLOBAL| MM Potential file name                                     MM_POTENTIAL
 GLOBAL| Coordinate file name                                         coords.xyz
 GLOBAL| Method name                                                        CP2K
 GLOBAL| Project name                                                  64H2O_ref
 GLOBAL| Run type                                                         ENERGY
 GLOBAL| FFT library                                                       FFTW3
 GLOBAL| Diagonalization library                                            ELPA
 GLOBAL| DGEMM library                                                      BLAS
 GLOBAL| Minimum number of eigenvectors for ELPA usage                        16
 GLOBAL| Orthonormality check for eigenvectors                          DISABLED
 GLOBAL| Matrix multiplication library                                     COSMA
 GLOBAL| All-to-all communication in single precision                          F
 GLOBAL| FFTs using library dependent lengths                                  F
 GLOBAL| Grid backend                                                       AUTO
 GLOBAL| Global print level                                                  LOW
 GLOBAL| MPI I/O enabled                                                       T
 GLOBAL| Total number of message passing processes                            32
 GLOBAL| Number of threads for this process                                    1
 GLOBAL| This output is from process                                           0
 GLOBAL| Stack size for threads created by OpenMP (OMP_STACKSIZE)        default
 GLOBAL| CPU model name           AMD Ryzen Threadripper 3970X 32-Core Processor
 GLOBAL| CPUID                                                              1002

 MEMORY| system memory details [Kb]
 MEMORY|                        rank 0           min           max       average
 MEMORY| MemTotal            131752136     131752136     131752136     131752136
 MEMORY| MemFree             118184416     118184416     118184416     118184416
 MEMORY| Buffers                260276        260276        260276        260276
 MEMORY| Cached                7373568       7373568       7373572       7373568
 MEMORY| Slab                   716180        716180        716180        716180
 MEMORY| SReclaimable           278596        278596        278596        278596
 MEMORY| MemLikelyFree       126096856     126096856     126096860     126096856


 GENERATE|  Preliminary Number of Bonds generated:                             0
 GENERATE|  Achieved consistency in connectivity generation.

 *******************************************************************************
 *******************************************************************************
 **                                                                           **
 **     #####                         ##              ##                      **
 **    ##   ##            ##          ##              ##                      **
 **   ##     ##                       ##            ######                    **
 **   ##     ##  ##   ##  ##   #####  ##  ##   ####   ##    #####    #####    **
 **   ##     ##  ##   ##  ##  ##      ## ##   ##      ##   ##   ##  ##   ##   **
 **   ##  ## ##  ##   ##  ##  ##      ####     ###    ##   ######   ######    **
 **    ##  ###   ##   ##  ##  ##      ## ##      ##   ##   ##       ##        **
 **     #######   #####   ##   #####  ##  ##  ####    ##    #####   ##        **
 **           ##                                                    ##        **
 **                                                                           **
 **                                                ... make the atoms dance   **
 **                                                                           **
 **            Copyright (C) by CP2K developers group (2000-2024)             **
 **                      J. Chem. Phys. 152, 194103 (2020)                    **
 **                                                                           **
 *******************************************************************************


 TOTAL NUMBERS AND MAXIMUM NUMBERS

  Total number of            - Atomic kinds:                                   2
                             - Atoms:                                        192
                             - Shell sets:                                   192
                             - Shells:                                       704
                             - Primitive Cartesian functions:               1344
                             - Cartesian basis functions:                   1536
                             - Spherical basis functions:                   1472

  Maximum angular momentum of- Orbital basis functions:                        2
                             - Local part of the GTH pseudopotential:          2
                             - Non-local part of the GTH pseudopotential:      0

 ------------------------------ Linear scaling SCF -----------------------------
 eps_scf:                                                              0.100E-07
 eps_filter:                                                           0.100E-11
 mixing_fraction:                                                      0.450E+00
 max_scf:                                                                     25
 fixed chemical potential (mu)                                                 F
 has unit metric:                                                              F
 Computing inv(S):                                                             T
 Computing sqrt(S):                                                            T
 Computing S preconditioner                                                    F
 S sqrt method:                                                     NEWTONSCHULZ
 S sqrt order:                                                                 3
 Extrapolation order:                                                          1
 S preconditioner type                                                      NONE
 Polarized Atomic Orbitals (PAO)                                               F
 Purification method                                   Trace resetting 4th order
 Cluster type                                                             ATOMIC
 Computing Chebyshev                                                       FALSE
 Using PAO                                                                     F
 -------------------------------------------------------------------------------


     Lanczos converged:  F threshold:   0.100E-02
     Est. extremal eigenvalues:    0.889E+01   0.552E-02
     Est. condition number :    0.161E+04

 Order=           3
     NS sqrt iter    1 1.00000000   0.229E+01       0.065     6155.949
     NS sqrt iter    2 1.00000000   0.120E+01       0.100     8013.738
     NS sqrt iter    3 1.00000000   0.591E+00       0.098     8130.535
     NS sqrt iter    4 1.00000000   0.339E+00       0.098     8104.822
     NS sqrt iter    5 1.00000000   0.229E+00       0.100     8011.326
     NS sqrt iter    6 1.00000000   0.110E+00       0.098     8122.459
     NS sqrt iter    7 1.00000000   0.148E-01       0.098     8112.572
     NS sqrt iter    8 1.00000000   0.936E-04       0.098     8133.484
     NS sqrt iter    9 1.00000000   0.103E-09       0.073     6087.398
     Symmetrizing Results
     Final NS sqrt iter    9 1.00000000   0.593E-11



 Guess for atomic kind: O

 Electronic structure
    Total number of core electrons                                          2.00
    Total number of valence electrons                                       6.00
    Total number of electrons                                               8.00
    Multiplicity                                                   not specified
    S   [  2.00] 2.00
    P      4.00


 *******************************************************************************
                  Iteration          Convergence                     Energy [au]
 *******************************************************************************
                          1        0.708315                     -15.576645311500
                          2        0.608879                     -15.587933561584
                          3        0.102828E-01                 -15.656849565404
                          4        0.113889E-02                 -15.656866888140
                          5        0.434197E-03                 -15.656867072159
                          6        0.263771E-03                 -15.656867091904
                          7        0.478536E-06                 -15.656867103452

 Energy components [Hartree]           Total Energy ::          -15.656867103452
                                        Band Energy ::           -3.000198112285
                                     Kinetic Energy ::           11.759971203220
                                   Potential Energy ::          -27.416838306672
                                      Virial (-V/T) ::            2.331369510426
                                        Core Energy ::          -26.140716385623
                                          XC Energy ::           -3.154051012914
                                     Coulomb Energy ::           13.637900295084
                       Total Pseudopotential Energy ::          -37.935781716540
                       Local Pseudopotential Energy ::          -39.218907440693
                    Nonlocal Pseudopotential Energy ::            1.283125724153
                                        Confinement ::            0.350941276976

 Orbital energies  State     L     Occupation   Energy[a.u.]          Energy[eV]

                       1     0          2.000      -0.864471          -23.523463

                       1     1          4.000      -0.317814           -8.648154


 Total Electron Density at R=0:                                         0.000068

 Guess for atomic kind: H

 Electronic structure
    Total number of core electrons                                          0.00
    Total number of valence electrons                                       1.00
    Total number of electrons                                               1.00
    Multiplicity                                                   not specified
    S      1.00


 *******************************************************************************
                  Iteration          Convergence                     Energy [au]
 *******************************************************************************
                          1        0.437545E-02                  -0.424159432110
                          2        0.531356E-03                  -0.424178438213
                          3        0.259176E-06                  -0.424178722480

 Energy components [Hartree]           Total Energy ::           -0.424178722480
                                        Band Energy ::           -0.199015229016
                                     Kinetic Energy ::            0.464007633961
                                   Potential Energy ::           -0.888186356441
                                      Virial (-V/T) ::            1.914163240935
                                        Core Energy ::           -0.479160803564
                                          XC Energy ::           -0.244352904054
                                     Coulomb Energy ::            0.299334985138
                       Total Pseudopotential Energy ::           -0.962295316385
                       Local Pseudopotential Energy ::           -0.962295316385
                    Nonlocal Pseudopotential Energy ::            0.000000000000
                                        Confinement ::            0.191268788606

 Orbital energies  State     L     Occupation   Energy[a.u.]          Energy[eV]

                       1     0          1.000      -0.199015           -5.415480


 Total Electron Density at R=0:                                         0.242907
 Re-scaling the density matrix to get the right number of electrons
                  # Electrons              Trace(P)               Scaling factor
                          512               512.001                        1.000
 Energy with the initial guess:     -1095.991364716

     Est. extremal eigenvalues     -0.94343     5.24200  converged:  T
     TRS4 it   1 1.00000000   0.565E+02       0.019     5330.104   0.100E-11
     TRS4 it   2 1.00000000   0.538E+02       0.019     5350.230   0.100E-11
     TRS4 it   3 1.00000000   0.337E+02       0.037     5440.929   0.100E-11
     TRS4 it   4 1.00000000   0.176E+02       0.036     5641.564   0.100E-11
     TRS4 it   5 1.00000000   0.106E+02       0.035     5720.843   0.100E-11
     TRS4 it   6 1.00000000   0.476E+01       0.036     5643.179   0.100E-11
     TRS4 it   7 1.00000000   0.139E+01       0.036     5634.828   0.100E-11
     TRS4 it   8 1.00000000   0.206E+00       0.036     5531.720   0.100E-11
     TRS4 it   9 1.00000000   0.835E-02       0.036     5605.512   0.100E-11
     TRS4 it  10 1.00000000   0.204E-04       0.036     5643.233   0.100E-11
     TRS4 it  11 1.00000000   0.444E-10       0.036     5532.243   0.100E-11
     Final TRS4 iteration   11 1.00000000   0.444E-10
     Chemical potential (mu):      -0.10658

 SCF     1     -1097.924168622     -1097.924168622    2.047930

*********************************************************
 Using MIXING_FRACTION=0.450 to mix KS matrix:  iscf=  2
 KS_nw=0.450*KS + 0.550*KS_old
*********************************************************
     Est. extremal eigenvalues     -0.83422     5.33140  converged:  F
     TRS4 it   1 1.00000000   0.558E+02       0.018     5429.790   0.100E-11
     TRS4 it   2 1.00000000   0.540E+02       0.018     5436.867   0.100E-11
     TRS4 it   3 1.00000000   0.350E+02       0.036     5500.090   0.100E-11
     TRS4 it   4 1.00000000   0.183E+02       0.036     5547.947   0.100E-11
     TRS4 it   5 1.00000000   0.118E+02       0.035     5685.901   0.100E-11
     TRS4 it   6 1.00000000   0.613E+01       0.036     5590.113   0.100E-11
     TRS4 it   7 1.00000000   0.243E+01       0.036     5587.707   0.100E-11
     TRS4 it   8 1.00000000   0.654E+00       0.036     5585.422   0.100E-11
     TRS4 it   9 1.00000000   0.927E-01       0.036     5577.455   0.100E-11
     TRS4 it  10 1.00000000   0.425E-02       0.037     5475.005   0.100E-11
     TRS4 it  11 1.00000000   0.378E-05       0.036     5572.469   0.100E-11
     TRS4 it  12 1.00000000   0.188E-11       0.036     5574.395   0.100E-11
     Final TRS4 iteration   12 1.00000000   0.188E-11
     Chemical potential (mu):      -0.01888

 SCF     2     -1102.969999732        -5.045831111    2.095514

*********************************************************
 Using MIXING_FRACTION=0.450 to mix KS matrix:  iscf=  3
 KS_nw=0.450*KS + 0.550*KS_old
*********************************************************
     Est. extremal eigenvalues     -0.84173     5.32287  converged:  F
     TRS4 it   1 1.00000000   0.558E+02       0.018     5427.857   0.100E-11
     TRS4 it   2 1.00000000   0.540E+02       0.018     5481.814   0.100E-11
     TRS4 it   3 1.00000000   0.348E+02       0.036     5543.092   0.100E-11
     TRS4 it   4 1.00000000   0.182E+02       0.036     5561.112   0.100E-11
     TRS4 it   5 1.00000000   0.116E+02       0.036     5604.884   0.100E-11
     TRS4 it   6 1.00000000   0.591E+01       0.036     5630.344   0.100E-11
     TRS4 it   7 1.00000000   0.226E+01       0.036     5622.044   0.100E-11
     TRS4 it   8 1.00000000   0.570E+00       0.036     5533.126   0.100E-11
     TRS4 it   9 1.00000000   0.710E-01       0.035     5666.773   0.100E-11
     TRS4 it  10 1.00000000   0.235E-02       0.036     5580.525   0.100E-11
     TRS4 it  11 1.00000000   0.115E-05       0.036     5616.147   0.100E-11
     TRS4 it  12 1.00000000   0.369E-12       0.036     5569.621   0.100E-11
     Final TRS4 iteration   12 1.00000000   0.369E-12
     Chemical potential (mu):      -0.02717

 SCF     3     -1103.119435083        -0.149435351    2.094485

*********************************************************
 Using MIXING_FRACTION=0.450 to mix KS matrix:  iscf=  4
 KS_nw=0.450*KS + 0.550*KS_old
*********************************************************
     Est. extremal eigenvalues     -0.83819     5.32767  converged:  F
     TRS4 it   1 1.00000000   0.558E+02       0.019     5274.243   0.100E-11
     TRS4 it   2 1.00000000   0.540E+02       0.019     5270.881   0.100E-11
     TRS4 it   3 1.00000000   0.349E+02       0.036     5523.671   0.100E-11
     TRS4 it   4 1.00000000   0.183E+02       0.035     5700.322   0.100E-11
     TRS4 it   5 1.00000000   0.117E+02       0.036     5569.078   0.100E-11
     TRS4 it   6 1.00000000   0.600E+01       0.035     5682.564   0.100E-11
     TRS4 it   7 1.00000000   0.232E+01       0.036     5578.308   0.100E-11
     TRS4 it   8 1.00000000   0.605E+00       0.036     5528.360   0.100E-11
     TRS4 it   9 1.00000000   0.802E-01       0.036     5587.690   0.100E-11
     TRS4 it  10 1.00000000   0.311E-02       0.036     5539.015   0.100E-11
     TRS4 it  11 1.00000000   0.229E-05       0.036     5623.752   0.100E-11
     TRS4 it  12 1.00000000   0.167E-11       0.036     5602.815   0.100E-11
     Final TRS4 iteration   12 1.00000000   0.167E-11
     Chemical potential (mu):      -0.02132

 SCF     4     -1103.126654292        -0.007219209    2.096432

*********************************************************
 Using MIXING_FRACTION=0.450 to mix KS matrix:  iscf=  5
 KS_nw=0.450*KS + 0.550*KS_old
*********************************************************
     Est. extremal eigenvalues     -0.83642     5.32833  converged:  F
     TRS4 it   1 1.00000000   0.558E+02       0.019     5274.392   0.100E-11
     TRS4 it   2 1.00000000   0.540E+02       0.019     5302.586   0.100E-11
     TRS4 it   3 1.00000000   0.349E+02       0.037     5473.381   0.100E-11
     TRS4 it   4 1.00000000   0.183E+02       0.036     5538.350   0.100E-11
     TRS4 it   5 1.00000000   0.117E+02       0.036     5620.903   0.100E-11
     TRS4 it   6 1.00000000   0.599E+01       0.035     5712.870   0.100E-11
     TRS4 it   7 1.00000000   0.232E+01       0.035     5661.887   0.100E-11
     TRS4 it   8 1.00000000   0.603E+00       0.037     5485.657   0.100E-11
     TRS4 it   9 1.00000000   0.799E-01       0.036     5622.170   0.100E-11
     TRS4 it  10 1.00000000   0.309E-02       0.036     5599.855   0.100E-11
     TRS4 it  11 1.00000000   0.233E-05       0.035     5670.679   0.100E-11
     TRS4 it  12 1.00000000   0.208E-11       0.036     5552.325   0.100E-11
     Final TRS4 iteration   12 1.00000000   0.208E-11
     Chemical potential (mu):      -0.02039

 SCF     5     -1103.127234184        -0.000579892    2.095355

*********************************************************
 Using MIXING_FRACTION=0.450 to mix KS matrix:  iscf=  6
 KS_nw=0.450*KS + 0.550*KS_old
*********************************************************
     Est. extremal eigenvalues     -0.83601     5.32899  converged:  F
     TRS4 it   1 1.00000000   0.558E+02       0.019     5352.393   0.100E-11
     TRS4 it   2 1.00000000   0.540E+02       0.019     5392.903   0.100E-11
     TRS4 it   3 1.00000000   0.349E+02       0.036     5520.647   0.100E-11
     TRS4 it   4 1.00000000   0.183E+02       0.036     5623.544   0.100E-11
     TRS4 it   5 1.00000000   0.117E+02       0.036     5568.177   0.100E-11
     TRS4 it   6 1.00000000   0.600E+01       0.036     5589.346   0.100E-11
     TRS4 it   7 1.00000000   0.233E+01       0.036     5539.468   0.100E-11
     TRS4 it   8 1.00000000   0.607E+00       0.036     5644.357   0.100E-11
     TRS4 it   9 1.00000000   0.811E-01       0.036     5643.252   0.100E-11
     TRS4 it  10 1.00000000   0.321E-02       0.036     5630.405   0.100E-11
     TRS4 it  11 1.00000000   0.260E-05       0.035     5668.137   0.100E-11
     TRS4 it  12 1.00000000   0.274E-11       0.036     5499.836   0.100E-11
     Final TRS4 iteration   12 1.00000000   0.274E-11
     Chemical potential (mu):      -0.01942

 SCF     6     -1103.127324244        -0.000090061    2.095416

*********************************************************
 Using MIXING_FRACTION=0.450 to mix KS matrix:  iscf=  7
 KS_nw=0.450*KS + 0.550*KS_old
*********************************************************
     Est. extremal eigenvalues     -0.83548     5.32926  converged:  F
     TRS4 it   1 1.00000000   0.558E+02       0.019     5377.469   0.100E-11
     TRS4 it   2 1.00000000   0.540E+02       0.018     5474.587   0.100E-11
     TRS4 it   3 1.00000000   0.349E+02       0.036     5559.094   0.100E-11
     TRS4 it   4 1.00000000   0.183E+02       0.036     5607.237   0.100E-11
     TRS4 it   5 1.00000000   0.117E+02       0.036     5565.641   0.100E-11
     TRS4 it   6 1.00000000   0.600E+01       0.036     5620.570   0.100E-11
     TRS4 it   7 1.00000000   0.233E+01       0.035     5708.376   0.100E-11
     TRS4 it   8 1.00000000   0.608E+00       0.036     5599.755   0.100E-11
     TRS4 it   9 1.00000000   0.813E-01       0.036     5526.749   0.100E-11
     TRS4 it  10 1.00000000   0.323E-02       0.036     5645.569   0.100E-11
     TRS4 it  11 1.00000000   0.265E-05       0.036     5543.164   0.100E-11
     TRS4 it  12 1.00000000   0.292E-11       0.036     5604.087   0.100E-11
     Final TRS4 iteration   12 1.00000000   0.292E-11
     Chemical potential (mu):      -0.01905

 SCF     7     -1103.127343871        -0.000019626    2.095106

*********************************************************
 Using MIXING_FRACTION=0.450 to mix KS matrix:  iscf=  8
 KS_nw=0.450*KS + 0.550*KS_old
*********************************************************
     Est. extremal eigenvalues     -0.83534     5.32942  converged:  F
     TRS4 it   1 1.00000000   0.558E+02       0.019     5331.905   0.100E-11
     TRS4 it   2 1.00000000   0.540E+02       0.019     5311.914   0.100E-11
     TRS4 it   3 1.00000000   0.349E+02       0.037     5446.852   0.100E-11
     TRS4 it   4 1.00000000   0.183E+02       0.036     5530.405   0.100E-11
     TRS4 it   5 1.00000000   0.117E+02       0.036     5598.878   0.100E-11
     TRS4 it   6 1.00000000   0.600E+01       0.036     5626.261   0.100E-11
     TRS4 it   7 1.00000000   0.233E+01       0.036     5603.319   0.100E-11
     TRS4 it   8 1.00000000   0.609E+00       0.036     5593.498   0.100E-11
     TRS4 it   9 1.00000000   0.816E-01       0.036     5586.117   0.100E-11
     TRS4 it  10 1.00000000   0.325E-02       0.036     5616.452   0.100E-11
     TRS4 it  11 1.00000000   0.271E-05       0.035     5674.011   0.100E-11
     TRS4 it  12 1.00000000   0.314E-11       0.036     5499.530   0.100E-11
     Final TRS4 iteration   12 1.00000000   0.314E-11
     Chemical potential (mu):      -0.01881

 SCF     8     -1103.127348683        -0.000004812    2.095994


 SCF run converged in     8 steps.

 Writing restart DM 64H2O_ref_LS_DM_SPIN_1_RESTART.dm with checksum:       0.62165534E+04

 ENERGY| Total FORCE_EVAL ( QS ) energy [a.u.]:            -1103.127348682868387

 -------------------------------------------------------------------------------
 -                                                                             -
 -                                DBCSR STATISTICS                             -
 -                                                                             -
 -------------------------------------------------------------------------------
 COUNTER                                    TOTAL       BLAS       SMM       ACC
 flops     5 x     5 x     5          79578695000       0.0%    100.0%      0.0%     
 flops    13 x     5 x     5         103000353950       0.0%    100.0%      0.0%     
 flops     5 x    13 x     5         103066380950       0.0%    100.0%      0.0%     
 flops     5 x     5 x    13         103548545750       0.0%    100.0%      0.0%     
 flops    13 x     5 x    13         133989491870       0.0%    100.0%      0.0%     
 flops     5 x    13 x    13         134133628590       0.0%    100.0%      0.0%     
 flops    13 x    13 x     5         135257138900       0.0%    100.0%      0.0%     
 flops    13 x    13 x    13         175977806186       0.0%    100.0%      0.0%     
 flops inhomo. stacks                           0       0.0%      0.0%      0.0%
 flops total                       968.552041E+09       0.0%    100.0%      0.0%
 flops max/rank                     31.094936E+09       0.0%    100.0%      0.0%
 matmuls inhomo. stacks                         0       0.0%      0.0%      0.0%
 matmuls total                         1073382094       0.0%    100.0%      0.0%
 number of processed stacks               1518636       0.0%    100.0%      0.0%
 average stack size                                     0.0     706.8       0.0
 marketing flops                     1.569237E+12
 -------------------------------------------------------------------------------
 # multiplications                            246
 max memory usage/rank             619.360256E+06
 # max total images/rank                        2
 # max 3D layers                                1
 # MPI messages exchanged                  102336
 MPI messages size (bytes):
  total size                        42.413621E+09
  min size                           0.000000E+00
  max size                         541.696000E+03
  average size                     414.454562E+03
 MPI breakdown and total messages size (bytes):
             size <=      128                 312                        0
       128 < size <=     8192                  42                   279312
      8192 < size <=    32768                  62                   841968
     32768 < size <=   131072                   0                        0
    131072 < size <=  4194304              101920              42412500800
   4194304 < size <= 16777216                   0                        0
  16777216 < size                               0                        0
 -------------------------------------------------------------------------------

 *** WARNING in dbcsr_mm.F:301 :: Using a non-square number of MPI ranks ***
 *** might lead to poor performance. Used ranks: 32 Suggested: 36 64     ***

 -------------------------------------------------------------------------------
 -                                                                             -
 -                      DBCSR MESSAGE PASSING PERFORMANCE                      -
 -                                                                             -
 -------------------------------------------------------------------------------
 ROUTINE             CALLS      AVE VOLUME [Bytes]
 MP_Bcast                9                     12.
 MP_Allreduce         1762                     34.
 MP_Alltoall           546                  34827.
 MP_ISend             8604                 171029.
 MP_IRecv             8238                 179234.
 -------------------------------------------------------------------------------

 -------------------------------------------------------------------------------
 -                                                                             -
 -                                DBM STATISTICS                               -
 -                                                                             -
 -------------------------------------------------------------------------------
    M  x    N  x    K                                          COUNT     PERCENT
 -------------------------------------------------------------------------------

 -------------------------------------------------------------------------------
 -                                                                             -
 -                                GRID STATISTICS                              -
 -                                                                             -
 -------------------------------------------------------------------------------
 LP    KERNEL             BACKEND                              COUNT     PERCENT
 2     collocate ortho    CPU                                7376346      28.83%
 2     integrate ortho    CPU                                7376346      28.83%
 3     collocate ortho    CPU                                4739850      18.53%
 3     integrate ortho    CPU                                4739850      18.53%
 4     collocate ortho    CPU                                 673704       2.63%
 4     integrate ortho    CPU                                 673704       2.63%
 0     collocate general  CPU                                   6144       0.02%
 -------------------------------------------------------------------------------

 MEMORY| Estimated peak process memory [MiB]                                 591

 -------------------------------------------------------------------------------
 -                                                                             -
 -                         MESSAGE PASSING PERFORMANCE                         -
 -                                                                             -
 -------------------------------------------------------------------------------

 ROUTINE             CALLS      AVE VOLUME [Bytes]
 MP_Group                5
 MP_Bcast             2784                 140270.
 MP_Allreduce         7388                    939.
 MP_Sync                 5
 MP_Alltoall           244
 MP_SendRecv           837                  18832.
 MP_ISendRecv          837                  18832.
 MP_Wait              2391
 MP_ISend             1406                 108579.
 MP_IRecv             1406                 108603.
 -------------------------------------------------------------------------------


 -------------------------------------------------------------------------------
 -                                                                             -
 -                           R E F E R E N C E S                               -
 -                                                                             -
 -------------------------------------------------------------------------------
 
 CP2K version 2024.3 (Development Version), the CP2K developers group (2024).
 CP2K is freely available from https://www.cp2k.org/ .
 
 T. D. Kuehne, M. Iannuzzi, M. Del Ben, V. V. Rybkin, P. Seewald, F. Stein, T. 
 Laino, R. Z. Khaliullin, O. Schuett, F. Schiffmann, D. Golze, J. Wilhelm, S. 
 Chulkov, M. H. Bani-Hashemian, V. Weber, U. Borstnik, M. Taillefumier, A. S. 
 Jakobovits, A. Lazzaro, H. Pabst, T. Mueller, R. Schade, M. Guidon, S. 
 Andermatt, N. Holmberg, G. K. Schenter, A. Hehn, A. Bussy, F. Belleflamme, G. 
 Tabacchi, A. Gloess, M. Lass, I. Bethune, C. J. Mundy, C. Plessl, M. Watkins, 
 J. VandeVondele, M. Krack, J. Hutter.
 J. Chem. Phys. 152, 194103 (2020).
 CP2K: An electronic structure and molecular dynamics software package - 
 Quickstep: Efficient and accurate electronic structure calculations.
 https://doi.org/10.1063/5.0007045

 O. Schuett, P. Messmer, J. Hutter, J. VandeVondele.
 Electronic Structure Calculations on Graphics Processing Units, 173-190 (2016).
 GPU-Accelerated Sparse Matrix-Matrix Multiplication for Linear Scaling Density 
 Functional Theory.
 https://doi.org/10.1002/9781118670712.ch8

 A. Heinecke, G. Henry, M. Hutchinson, H. Pabst.
 Proceedings of Intl. Supercomputing Conference, 981-991 (2016).
 LIBXSMM: Accelerating Small Matrix Multiplications by Runtime Code Generation.
 https://doi.org/10.1109/SC.2016.83

 J. Hutter, M. Iannuzzi, F. Schiffmann, J. VandeVondele.
 WIREs Comput Mol Sci. 4, 15-25 (2014).
 CP2K: atomistic simulations of condensed matter systems.
 https://doi.org/10.1002/wcms.1159

 U. Borstnik, J. VandeVondele, V. Weber, J. Hutter.
 Parallel Comput. 40, 47-58 (2014).
 Sparse matrix multiplication: The distributed block-compressed sparse row 
 library.
 https://doi.org/10.1016/j.parco.2014.03.012

 A. Marek, V. Blum, R. Johanni, V. Havu, B. Lang, T. Auckenthaler, A. Heinecke, 
 H. Bungartz, H. Lederer.
 J. Phys. Condens. Matter 26, 213201 (2014).
 The ELPA library: scalable parallel eigenvalue solutions for electronic 
 structure theory and computational science.
 https://doi.org/10.1088/0953-8984/26/21/213201

 J. VandeVondele, U. Borstnik, J. Hutter.
 J. Chem. Theory Comput. 8, 3565-3573 (2012).
 Linear Scaling Self-Consistent Field Calculations with Millions of Atoms in the 
 Condensed Phase.
 https://doi.org/10.1021/ct200897x

 J. VandeVondele, J. Hutter.
 J. Chem. Phys. 127, 114105 (2007).
 Gaussian basis sets for accurate calculations on molecular systems in gas and 
 condensed phases.
 https://doi.org/10.1063/1.2770708

 J. VandeVondele, M. Krack, F. Mohamed, M. Parrinello, T. Chassaing, J. Hutter.
 Comput. Phys. Commun. 167, 103-128 (2005).
 QUICKSTEP: Fast and accurate density functional calculations using a mixed 
 Gaussian and plane waves approach.
 https://doi.org/10.1016/j.cpc.2004.12.014

 M. Krack.
 Theor. Chem. Acc. 114, 145-152 (2005).
 Pseudopotentials for H to Kr optimized for gradient-corrected 
 exchange-correlation functionals.
 https://doi.org/10.1007/s00214-005-0655-y

 M. Frigo, S. G. Johnson.
 Proc. IEEE 93, 216-231 (2005).
 The design and implementation of FFTW3.
 https://doi.org/10.1109/JPROC.2004.840301

 A. M. N. Niklasson, C. J. Tymczak, M. Challacombe.
 J. Chem. Phys. 118, 8611-8620 (2003).
 Trace resetting density matrix purification in O(N) self-consistent-field 
 theory.
 https://doi.org/10.1063/1.1559913

 C. Hartwigsen, S. Goedecker, J. Hutter.
 Phys. Rev. B 58, 3641-3662 (1998).
 Relativistic separable dual-space Gaussian pseudopotentials from H to Rn.
 https://doi.org/10.1103/PhysRevB.58.3641

 G. Lippert, J. Hutter, M. Parrinello.
 Mol. Phys. 92, 477-487 (1997).
 A hybrid Gaussian and plane wave density functional scheme.
 https://doi.org/10.1080/002689797170220

 S. Goedecker, M. Teter, J. Hutter.
 Phys. Rev. B 54, 1703-1710 (1996).
 Separable dual-space Gaussian pseudopotentials.
 https://doi.org/10.1103/PhysRevB.54.1703

 J. P. Perdew, K. Burke, M. Ernzerhof.
 Phys. Rev. Lett. 77, 3865-3868 (1996).
 Generalized gradient approximation made simple.
 https://doi.org/10.1103/PhysRevLett.77.3865


 -------------------------------------------------------------------------------
 -                                                                             -
 -                                T I M I N G                                  -
 -                                                                             -
 -------------------------------------------------------------------------------
 SUBROUTINE                       CALLS  ASD         SELF TIME        TOTAL TIME
                                MAXIMUM       AVERAGE  MAXIMUM  AVERAGE  MAXIMUM
 CP2K                                 1  1.0    0.012    0.014   20.464   20.464
 qs_energies                          1  2.0    0.000    0.000   20.317   20.318
 ls_scf                               1  3.0    0.000    0.000   19.265   19.267
 ls_scf_main                          1  4.0    0.000    0.000   16.717   16.717
 ls_scf_dm_to_ks                      8  5.0    0.000    0.000   12.401   12.406
 qs_ks_update_qs_env                  9  6.1    0.000    0.000    7.827    7.828
 rebuild_ks_matrix                    9  7.1    0.000    0.000    7.820    7.822
 qs_ks_build_kohn_sham_matrix         9  8.1    0.001    0.002    7.820    7.822
 qs_rho_update_rho_low                9  6.1    0.000    0.000    6.124    6.130
 calculate_rho_elec                   9  7.1    0.003    0.003    6.124    6.130
 sum_up_and_integrate                 9  9.1    0.000    0.000    5.919    5.921
 integrate_v_rspace                   9 10.1    0.000    0.000    5.911    5.913
 grid_collocate_task_list             9  8.1    5.436    5.536    5.436    5.536
 grid_integrate_task_list             9 11.1    5.200    5.307    5.200    5.307
 dbcsr_multiply_generic             246  6.2    0.012    0.013    4.632    4.639
 density_matrix_trs4                  8  5.0    0.004    0.006    4.310    4.314
 multiply_cannon                    246  7.2    0.018    0.022    3.761    3.827
 multiply_cannon_loop               246  8.2    0.019    0.021    3.684    3.756
 ls_scf_init_scf                      1  4.0    0.000    0.000    2.487    2.487
 multiply_cannon_multrec           1968  9.2    2.107    2.173    2.113    2.179
 mp_waitall_1                     16729 10.5    1.711    1.825    1.711    1.825
 fft_wrap_pw1pw2                    172 11.3    0.003    0.004    1.762    1.792
 fft_wrap_pw1pw2_200                100 12.8    0.102    0.107    1.690    1.737
 qs_vxc_create                        9  9.1    0.000    0.000    1.554    1.584
 xc_vxc_pw_create                     9 10.1    0.013    0.019    1.554    1.584
 ls_scf_initial_guess                 1  5.0    0.000    0.000    1.554    1.555
 ls_scf_qs_atomic_guess               1  6.0    0.000    0.000    1.554    1.555
 multiply_cannon_metrocomm3        1968  9.2    0.005    0.006    1.330    1.433
 fft3d_ps                           172 13.3    0.719    0.804    1.327    1.396
 xc_pw_derive                        54 12.1    0.001    0.001    1.102    1.183
 qs_energies_init_hamiltonians        1  3.0    0.000    0.000    1.051    1.051
 ls_scf_init_matrix_S                 1  5.0    0.000    0.000    0.932    0.933
 matrix_sqrt_Newton_Schulz            1  6.0    0.001    0.001    0.909    0.909
 build_core_hamiltonian_matrix        1  4.0    0.000    0.000    0.694    0.863
 xc_rho_set_and_dset_create           9 11.1    0.020    0.027    0.782    0.802
 xc_pw_divergence                     9 11.1    0.000    0.000    0.739    0.780
 density_rs2pw                        9  8.1    0.000    0.001    0.655    0.761
 make_m2s                           492  7.2    0.005    0.007    0.681    0.695
 make_images                        492  8.2    0.039    0.040    0.671    0.686
 mp_alltoall_z22v                   172 15.3    0.435    0.663    0.435    0.663
 mp_waitany                        1406 12.5    0.529    0.649    0.529    0.649
 potential_pw2rs                      9 11.1    0.000    0.001    0.597    0.599
 transfer_rs2pw                      46  9.0    0.001    0.001    0.461    0.575
 build_core_ppl                       1  5.0    0.474    0.564    0.474    0.564
 arnoldi_extremal                     9  6.1    0.000    0.000    0.499    0.500
 arnoldi_normal_ev                    9  7.1    0.000    0.001    0.498    0.499
 transfer_rs2pw_200                  10  9.8    0.030    0.039    0.358    0.473
 build_subspace                      44  8.1    0.003    0.004    0.441    0.441
 yz_to_x                             64 14.2    0.059    0.073    0.285    0.427
 make_images_data                   492  9.2    0.005    0.008    0.372    0.415
 -------------------------------------------------------------------------------

 The number of warnings for this run is : 1
 
 -------------------------------------------------------------------------------
  **** **** ******  **  PROGRAM ENDED AT                 2024-09-23 17:43:38.195
 ***** ** ***  *** **   PROGRAM RAN ON                                    moritz
 **    ****   ******    PROGRAM RAN BY                                       ole
 ***** **    ** ** **   PROGRAM PROCESS ID                                158518
  **** **  *******  **  PROGRAM STOPPED IN /home/ole/git/pao_ml_equivar/64H2O_MD
                                           /Frame3900
