 DBCSR| CPU Multiplication driver                                           XSMM
 DBCSR| Multrec recursion limit                                              512
 DBCSR| Multiplication stack size                                           1000
 DBCSR| Maximum elements for images                                    UNLIMITED
 DBCSR| Multiplicative factor virtual images                                   1
 DBCSR| Use multiplication densification                                       T
 DBCSR| Multiplication size stacks                                             3


  **** **** ******  **  PROGRAM STARTED AT               2019-02-14 01:08:19.385
 ***** ** ***  *** **   PROGRAM STARTED ON                                  otto
 **    ****   ******    PROGRAM STARTED BY                                   ole
 ***** **    ** ** **   PROGRAM PROCESS ID                                  5970
  **** **  *******  **  PROGRAM STARTED IN /home/ole/git/pao_ml_equivar/2H2O_MD/
                                           frame_0125

 CP2K| version string:                    CP2K version 7.0 (Development Version)
 CP2K| source code revision number:                                git:8bf305913
 CP2K| cp2kflags: libint fftw3 libxc xsmm libderiv_max_am1=5 libint_max_am=6    
 CP2K| is freely available from                            https://www.cp2k.org/
 CP2K| Program compiled at                           So Jan 13 00:02:37 CET 2019
 CP2K| Program compiled on                                                  otto
 CP2K| Program compiled for                                                local
 CP2K| Data directory path                               /home/ole/git/cp2k/data
 CP2K| Input file name                                            2H2O_pao44.inp

 GLOBAL| Force Environment number                                              1
 GLOBAL| Basis set file name                                        BASIS_MOLOPT
 GLOBAL| Potential file name                                      GTH_POTENTIALS
 GLOBAL| MM Potential file name                                     MM_POTENTIAL
 GLOBAL| Coordinate file name                                         coords.xyz
 GLOBAL| Method name                                                        CP2K
 GLOBAL| Project name                                                 2H2O_pao44
 GLOBAL| Preferred FFT library                                             FFTW3
 GLOBAL| Preferred diagonalization lib.                                       SL
 GLOBAL| Run type                                                         ENERGY
 GLOBAL| All-to-all communication in single precision                          F
 GLOBAL| FFTs using library dependent lengths                                  F
 GLOBAL| Global print level                                                  LOW
 GLOBAL| MPI I/O enabled                                                       T
 GLOBAL| Total number of message passing processes                             1
 GLOBAL| Number of threads for this process                                    1
 GLOBAL| This output is from process                                           0
 GLOBAL| CPU model name :  Intel(R) Core(TM) i5-3320M CPU @ 2.60GHz

 MEMORY| system memory details [Kb]
 MEMORY|                        rank 0           min           max       average
 MEMORY| MemTotal              7860772       7860772       7860772       7860772
 MEMORY| MemFree               2190136       2190136       2190136       2190136
 MEMORY| Buffers                280468        280468        280468        280468
 MEMORY| Cached                1878884       1878884       1878884       1878884
 MEMORY| Slab                   255060        255060        255060        255060
 MEMORY| SReclaimable           132780        132780        132780        132780
 MEMORY| MemLikelyFree         4482268       4482268       4482268       4482268


 GENERATE|  Preliminary Number of Bonds generated:                             0
 GENERATE|  Achieved consistency in connectivity generation.

 *******************************************************************************
 *******************************************************************************
 **                                                                           **
 **     #####                         ##              ##                      **
 **    ##   ##            ##          ##              ##                      **
 **   ##     ##                       ##            ######                    **
 **   ##     ##  ##   ##  ##   #####  ##  ##   ####   ##    #####    #####    **
 **   ##     ##  ##   ##  ##  ##      ## ##   ##      ##   ##   ##  ##   ##   **
 **   ##  ## ##  ##   ##  ##  ##      ####     ###    ##   ######   ######    **
 **    ##  ###   ##   ##  ##  ##      ## ##      ##   ##   ##       ##        **
 **     #######   #####   ##   #####  ##  ##  ####    ##    #####   ##        **
 **           ##                                                    ##        **
 **                                                                           **
 **                                                ... make the atoms dance   **
 **                                                                           **
 **            Copyright (C) by CP2K developers group (2000 - 2018)           **
 **                                                                           **
 *******************************************************************************


 TOTAL NUMBERS AND MAXIMUM NUMBERS

  Total number of            - Atomic kinds:                                   2
                             - Atoms:                                          6
                             - Shell sets:                                     6
                             - Shells:                                        22
                             - Primitive Cartesian functions:                 42
                             - Cartesian basis functions:                     48
                             - Spherical basis functions:                     46

  Maximum angular momentum of- Orbital basis functions:                        2
                             - Local part of the GTH pseudopotential:          2
                             - Non-local part of the GTH pseudopotential:      0

 ------------------------------ Linear scaling SCF -----------------------------
 eps_scf:                                       0.100E-07
 eps_filter:                                    0.100E-07
 mixing_fraction:                               0.450E+00
 max_scf:                                              25
 fixed chemical potential (mu)                          F
 has unit metric:                                       F
 Computing inv(S):                                      T
 Computing sqrt(S):                                     T
 Computing s preconditioner                             F
 sign sqrt order:                                       3
 Extrapolation order:                                   1
 Use single precision matrices                          F
 S preconditioner type                               NONE
 Polarized Atomic Orbitals (PAO)                        T
 Purification method                      Trace resetting 4th order
 Cluster type                                      ATOMIC
 Computing Chebyshev                                FALSE
 Using PAO                                              T
 -------------------------------------------------------------------------------

 
 PAO|                                  EPS_PAO                           0.5E-06
 PAO|                                  MIXING                            0.5E+00
 PAO|                                  MAX_PAO                              1000
 PAO|                                  MAX_CYCLES                           1000
 PAO|                                  PARAMETERIZATION                   DIRECT
 PAO|                                  PRECONDITION                            F
 PAO|                                  REGULARIZATION                    0.0E+00
 PAO|                                  EPS_PGF                           0.1E-09
 PAO|                                  PENALTY_DISTANCE                  0.1E+00
 PAO|                                  PENALTY_STRENGTH                  0.5E-02
 PAO|                                  LINPOT_PRECONDITION_DELTA         0.0E+00
 PAO|                                  LINPOT_INITGUESS_DELT             0.0E+00
 PAO|                                  LINPOT_REGULARIZATION_DELTA       0.0E+00
 PAO|                                  LINPOT_REGULARIZATION_STRENGTH    0.0E+00
 PAO|                                  OPTIMIZER                              CG
 PAO|                                  CG_INIT_STEPS                           2
 PAO|                                  CG_RESET_LIMIT                    0.1E+00
 PAO|                                  CHECK_UNITARY_TOL                -0.1E+01
 PAO|                                  CHECK_GRADIENT_TOL               -0.1E+01
 PAO|                                  NUM_GRADIENT_ORDER                      2
 PAO|                                  NUM_GRADIENT_EPS                  0.1E-07
 PAO|                                  PRINT%RESTART%WRITE_CYCLES            100
 PAO|                                  RESTART_FILE 
 PAO|                                  PREOPT_DM_FILE 2H2O_ref_LS_DM_SPIN_1_RESTART.dm
 PAO|                                  MACHINE_LEARNING%METHOD        GAUSSIAN_P
 PAO|                                  MACHINE_LEARNING%PRIOR               ZERO
 PAO|                                  MACHINE_LEARNING%DESCRIPTOR     POTENTIAL
 PAO|                                  MACHINE_LEARNING%TOLERANCE        0.1E-01
 PAO|                                  MACHINE_LEARNING%GP_NOISE_VAR     0.1E+00
 PAO|                                  MACHINE_LEARNING%GP_SCALE         0.5E-01
 

 Calculating atomic Fock matrix for atomic kind: O

 Electronic structure
    Total number of core electrons                                          2.00
    Total number of valence electrons                                       6.00
    Total number of electrons                                               8.00
    Multiplicity                                                   not specified
    S   [  2.00] 2.00
    P      4.00


 *******************************************************************************
                  Iteration          Convergence                     Energy [au]
 *******************************************************************************
                          1        0.708315                     -15.576645311500
                          2        0.608879                     -15.587933561584
                          3        0.102828E-01                 -15.656849565404
                          4        0.113889E-02                 -15.656866888140
                          5        0.434197E-03                 -15.656867072159
                          6        0.263771E-03                 -15.656867091904
                          7        0.478536E-06                 -15.656867103452

 Energy components [Hartree]           Total Energy ::          -15.656867103452
                                        Band Energy ::           -3.000198112285
                                     Kinetic Energy ::           11.759971203220
                                   Potential Energy ::          -27.416838306672
                                      Virial (-V/T) ::            2.331369510426
                                        Core Energy ::          -26.140716385623
                                          XC Energy ::           -3.154051012914
                                     Coulomb Energy ::           13.637900295084
                       Total Pseudopotential Energy ::          -37.935781716540
                       Local Pseudopotential Energy ::          -39.218907440693
                    Nonlocal Pseudopotential Energy ::            1.283125724153
                                        Confinement ::            0.350941276976

 Orbital energies  State     L     Occupation   Energy[a.u.]          Energy[eV]

                       1     0          2.000      -0.864471          -23.523463

                       1     1          4.000      -0.317814           -8.648154


 Total Electron Density at R=0:                                         0.000068

 Calculating atomic Fock matrix for atomic kind: H

 Electronic structure
    Total number of core electrons                                          0.00
    Total number of valence electrons                                       1.00
    Total number of electrons                                               1.00
    Multiplicity                                                   not specified
    S      1.00


 *******************************************************************************
                  Iteration          Convergence                     Energy [au]
 *******************************************************************************
                          1        0.437545E-02                  -0.424159432110
                          2        0.531356E-03                  -0.424178438213
                          3        0.259176E-06                  -0.424178722480

 Energy components [Hartree]           Total Energy ::           -0.424178722480
                                        Band Energy ::           -0.199015229016
                                     Kinetic Energy ::            0.464007633961
                                   Potential Energy ::           -0.888186356441
                                      Virial (-V/T) ::            1.914163240935
                                        Core Energy ::           -0.479160803564
                                          XC Energy ::           -0.244352904054
                                     Coulomb Energy ::            0.299334985138
                       Total Pseudopotential Energy ::           -0.962295316385
                       Local Pseudopotential Energy ::           -0.962295316385
                    Nonlocal Pseudopotential Energy ::            0.000000000000
                                        Confinement ::            0.191268788606

 Orbital energies  State     L     Occupation   Energy[a.u.]          Energy[eV]

                       1     0          1.000      -0.199015           -5.415480


 Total Electron Density at R=0:                                         0.242907
 PAO| Made initial guess for matrix_X with norm:   4.8989794855663558     

     Lanczos converged:  T threshold:   0.100E-02
     Est. extremal eigenvalues:    0.331E+01   0.114E+00
     Est. condition number :    0.291E+02
     NS sqrt iter    1 1.00000000   0.811E+00       0.001       47.200
     NS sqrt iter    2 1.00000000   0.438E+00       0.001       83.659
     NS sqrt iter    3 1.00000000   0.169E+00       0.001       76.274
     NS sqrt iter    4 1.00000000   0.200E-01       0.001       76.230
     NS sqrt iter    5 1.00000000   0.495E-04       0.001       69.941
     Final NS sqrt iter    5 1.00000000   0.484E-08

 PAO| Read restart DM 2H2O_ref_LS_DM_SPIN_1_RESTART.dm with checksum:    57.623758370922708     
 PAO| Quickstep energy from restart density:  -34.447149527883553     
 PAO| ======================= Iteration:         1 =============================

     Lanczos converged:  T threshold:   0.100E-02
     Est. extremal eigenvalues:    0.331E+01   0.114E+00
     Est. condition number :    0.291E+02
     NS sqrt iter    1 1.00000000   0.811E+00       0.001       64.512
     NS sqrt iter    2 1.00000000   0.438E+00       0.001      110.592
     NS sqrt iter    3 1.00000000   0.169E+00       0.001      110.592
     NS sqrt iter    4 1.00000000   0.200E-01       0.001      109.535
     NS sqrt iter    5 1.00000000   0.495E-04       0.001       89.088
     Final NS sqrt iter    5 1.00000000   0.484E-08

     Est. extremal eigenvalues     -0.91480     1.76456  converged:  T
     TRS4 it   1 1.00000000   0.847E+00       0.000       16.128   0.100E-07
     TRS4 it   2 1.00000000   0.661E+00       0.001       32.256   0.100E-07
     TRS4 it   3 1.00000000   0.483E+00       0.001       32.256   0.100E-07
     TRS4 it   4 1.00000000   0.299E+00       0.001       32.256   0.100E-07
     TRS4 it   5 1.00000000   0.143E+00       0.001       32.256   0.100E-07
     TRS4 it   6 1.00000000   0.404E-01       0.001       32.256   0.100E-07
     TRS4 it   7 1.00000000   0.442E-02       0.001       32.256   0.100E-07
     TRS4 it   8 1.00000000   0.717E-04       0.001       32.256   0.100E-07
     TRS4 it   9 1.00000000   0.216E-07       0.001       32.256   0.100E-07
     Final TRS4 iteration    9 1.00000000   0.216E-07
     Chemical potential (mu):      -0.06628
 
 PAO| energy:  -7.6263248597953268      penalty:   3.9443045261050591E-033
 PAO|CG| warming up with steepest descent
 PAO|CG| beta:    0.0000000000000000     
 PAO| norm of gradient:  0.78542495660071310     
 PAO|LS| adapt:  T F F
 PAO|LS| adapt: scan_steps:    0.0000000000000000        0.0000000000000000        0.0000000000000000     
 PAO|LS| adapt: energies:   -7.6263248597953268        0.0000000000000000        0.0000000000000000     
 PAO| ======================= Iteration:         2 =============================

     Lanczos converged:  T threshold:   0.100E-02
     Est. extremal eigenvalues:    0.323E+01   0.129E+00
     Est. condition number :    0.251E+02
     NS sqrt iter    1 1.00000000   0.796E+00       0.001       64.512
     NS sqrt iter    2 1.00000000   0.423E+00       0.001      110.592
     NS sqrt iter    3 1.00000000   0.151E+00       0.001      110.592
     NS sqrt iter    4 1.00000000   0.136E-01       0.001      105.154
     NS sqrt iter    5 1.00000000   0.142E-04       0.001       76.485
     Final NS sqrt iter    5 1.00000000   0.316E-09

     Est. extremal eigenvalues     -0.91851     1.70207  converged:  T
     TRS4 it   1 1.00000000   0.838E+00       0.000       16.128   0.100E-07
     TRS4 it   2 1.00000000   0.639E+00       0.001       32.256   0.100E-07
     TRS4 it   3 1.00000000   0.462E+00       0.001       32.256   0.100E-07
     TRS4 it   4 1.00000000   0.274E+00       0.001       32.256   0.100E-07
     TRS4 it   5 1.00000000   0.120E+00       0.001       32.256   0.100E-07
     TRS4 it   6 1.00000000   0.289E-01       0.001       32.256   0.100E-07
     TRS4 it   7 1.00000000   0.229E-02       0.001       32.256   0.100E-07
     TRS4 it   8 1.00000000   0.195E-04       0.001       32.256   0.100E-07
     TRS4 it   9 1.00000000   0.161E-08       0.001       32.256   0.100E-07
     Final TRS4 iteration    9 1.00000000   0.161E-08
     Chemical potential (mu):      -0.05395
 
 PAO| energy:  -7.6819725995506376      penalty:   2.2539806314675201E-008
 PAO|LS| adapt:  T T F
 PAO|LS| adapt: scan_steps:    0.0000000000000000       0.10000000000000001        0.0000000000000000     
 PAO|LS| adapt: energies:   -7.6263248597953268       -7.6819725995506376        0.0000000000000000     
 PAO| ======================= Iteration:         3 =============================

     Lanczos converged:  T threshold:   0.100E-02
     Est. extremal eigenvalues:    0.314E+01   0.143E+00
     Est. condition number :    0.220E+02
     NS sqrt iter    1 1.00000000   0.780E+00       0.001       64.512
     NS sqrt iter    2 1.00000000   0.407E+00       0.001      110.592
     NS sqrt iter    3 1.00000000   0.134E+00       0.001      110.592
     NS sqrt iter    4 1.00000000   0.919E-02       0.001      110.592
     NS sqrt iter    5 1.00000000   0.408E-05       0.001       64.644
     Final NS sqrt iter    5 1.00000000   0.255E-10

     Est. extremal eigenvalues     -0.92195     1.65371  converged:  T
     TRS4 it   1 1.00000000   0.831E+00       0.000       16.128   0.100E-07
     TRS4 it   2 1.00000000   0.621E+00       0.001       32.256   0.100E-07
     TRS4 it   3 1.00000000   0.441E+00       0.001       32.256   0.100E-07
     TRS4 it   4 1.00000000   0.250E+00       0.001       32.256   0.100E-07
     TRS4 it   5 1.00000000   0.100E+00       0.001       32.256   0.100E-07
     TRS4 it   6 1.00000000   0.199E-01       0.001       32.256   0.100E-07
     TRS4 it   7 1.00000000   0.107E-02       0.001       32.256   0.100E-07
     TRS4 it   8 1.00000000   0.429E-05       0.001       32.256   0.100E-07
     TRS4 it   9 1.00000000   0.791E-10       0.001       32.256   0.100E-07
     Final TRS4 iteration    9 1.00000000   0.791E-10
     Chemical potential (mu):      -0.04040
 
 PAO| energy:  -7.7249413412010117      penalty:   3.6063730714658213E-007
 PAO|LS| adapt:  T T F
 PAO|LS| adapt: scan_steps:    0.0000000000000000       0.20000000000000001        0.0000000000000000     
 PAO|LS| adapt: energies:   -7.6263248597953268       -7.7249413412010117        0.0000000000000000     
 PAO| ======================= Iteration:         4 =============================

     Lanczos converged:  T threshold:   0.100E-02
     Est. extremal eigenvalues:    0.296E+01   0.165E+00
     Est. condition number :    0.180E+02
     NS sqrt iter    1 1.00000000   0.746E+00       0.001       64.512
     NS sqrt iter    2 1.00000000   0.374E+00       0.001      110.592
     NS sqrt iter    3 1.00000000   0.105E+00       0.001      110.592
     NS sqrt iter    4 1.00000000   0.438E-02       0.001      100.409
     NS sqrt iter    5 1.00000000   0.458E-06       0.001       67.699
     Final NS sqrt iter    5 1.00000000   0.240E-09

     Est. extremal eigenvalues     -0.92723     1.59276  converged:  T
     TRS4 it   1 1.00000000   0.824E+00       0.000       16.128   0.100E-07
     TRS4 it   2 1.00000000   0.593E+00       0.001       32.256   0.100E-07
     TRS4 it   3 1.00000000   0.405E+00       0.001       32.256   0.100E-07
     TRS4 it   4 1.00000000   0.207E+00       0.001       32.256   0.100E-07
     TRS4 it   5 1.00000000   0.677E-01       0.001       32.256   0.100E-07
     TRS4 it   6 1.00000000   0.870E-02       0.001       32.256   0.100E-07
     TRS4 it   7 1.00000000   0.190E-03       0.001       32.256   0.100E-07
     TRS4 it   8 1.00000000   0.132E-06       0.001       32.256   0.100E-07
     TRS4 it   9 1.00000000   0.761E-13       0.001       32.256   0.100E-07
     Final TRS4 iteration    9 1.00000000   0.761E-13
     Chemical potential (mu):      -0.01058
 
 PAO| energy:  -7.7714408833120778      penalty:   5.7702001642986473E-006
 PAO|LS| Need extra step
 PAO|LS| adapt:  T T F
 PAO|LS| adapt: scan_steps:    0.0000000000000000       0.40000000000000002        0.0000000000000000     
 PAO|LS| adapt: energies:   -7.6263248597953268       -7.7714408833120778        0.0000000000000000     
 PAO| ======================= Iteration:         5 =============================

     Lanczos converged:  T threshold:   0.100E-02
     Est. extremal eigenvalues:    0.261E+01   0.189E+00
     Est. condition number :    0.138E+02
     NS sqrt iter    1 1.00000000   0.685E+00       0.001       64.512
     NS sqrt iter    2 1.00000000   0.312E+00       0.001      110.592
     NS sqrt iter    3 1.00000000   0.641E-01       0.001      109.282
     NS sqrt iter    4 1.00000000   0.118E-02       0.001      110.592
     NS sqrt iter    5 1.00000000   0.125E-07       0.001       46.080
     Final NS sqrt iter    5 1.00000000   0.542E-08

     Est. extremal eigenvalues     -0.92827     1.55622  converged:  T
     TRS4 it   1 1.00000000   0.827E+00       0.001       16.128   0.100E-07
     TRS4 it   2 1.00000000   0.564E+00       0.001       32.256   0.100E-07
     TRS4 it   3 1.00000000   0.357E+00       0.001       32.256   0.100E-07
     TRS4 it   4 1.00000000   0.154E+00       0.001       32.256   0.100E-07
     TRS4 it   5 1.00000000   0.346E-01       0.001       32.256   0.100E-07
     TRS4 it   6 1.00000000   0.204E-02       0.001       32.256   0.100E-07
     TRS4 it   7 1.00000000   0.888E-05       0.001       32.256   0.100E-07
     TRS4 it   8 1.00000000   0.237E-09       0.001       32.256   0.100E-07
     Final TRS4 iteration    8 1.00000000   0.237E-09
     Chemical potential (mu):       0.03634
 
 PAO| energy:  -7.7132602212251298      penalty:   9.2323228632641225E-005
 PAO|LS| Need extra step
 PAO|LS| adapt:  T T T
 PAO|LS| adapt: scan_steps:    0.0000000000000000       0.40000000000000002       0.80000000000000004     
 PAO|LS| adapt: energies:   -7.6263248597953268       -7.7714408833120778       -7.7132602212251298     
 PAO|LS| adapt: suggested step_size:   0.48552560625535474     
 PAO|LS| adapt: predicted energy  -7.7760878829941475     
 PAO| ======================= Iteration:         6 =============================

     Lanczos converged:  T threshold:   0.100E-02
     Est. extremal eigenvalues:    0.288E+01   0.171E+00
     Est. condition number :    0.169E+02
     NS sqrt iter    1 1.00000000   0.732E+00       0.001       64.512
     NS sqrt iter    2 1.00000000   0.360E+00       0.001      110.592
     NS sqrt iter    3 1.00000000   0.939E-01       0.001      110.592
     NS sqrt iter    4 1.00000000   0.325E-02       0.001      110.592
     NS sqrt iter    5 1.00000000   0.208E-06       0.001       79.872
     Final NS sqrt iter    5 1.00000000   0.975E-09

     Est. extremal eigenvalues     -0.92862     1.57813  converged:  T
     TRS4 it   1 1.00000000   0.823E+00       0.000       16.128   0.100E-07
     TRS4 it   2 1.00000000   0.584E+00       0.001       32.256   0.100E-07
     TRS4 it   3 1.00000000   0.392E+00       0.001       32.256   0.100E-07
     TRS4 it   4 1.00000000   0.193E+00       0.001       32.256   0.100E-07
     TRS4 it   5 1.00000000   0.575E-01       0.001       32.256   0.100E-07
     TRS4 it   6 1.00000000   0.610E-02       0.001       32.256   0.100E-07
     TRS4 it   7 1.00000000   0.882E-04       0.001       32.256   0.100E-07
     TRS4 it   8 1.00000000   0.268E-07       0.001       32.256   0.100E-07
     Final TRS4 iteration    8 1.00000000   0.268E-07
     Chemical potential (mu):       0.00258
 
 PAO| energy:  -7.7753962232466209      penalty:   1.2525628116214366E-005
 PAO|CG| warming up with steepest descent
 PAO|CG| beta:    0.0000000000000000     
 PAO| norm of gradient:  0.42569280525573577     
 PAO| energy improvement: -0.14907136345129413     
 PAO| step      6                   -7.775396223  0.266E-01  0.486E+00     0.084
 PAO|LS| adapt:  T F F
 PAO|LS| adapt: scan_steps:    0.0000000000000000        0.0000000000000000        0.0000000000000000     
 PAO|LS| adapt: energies:   -7.7753962232466209        0.0000000000000000        0.0000000000000000     
 PAO| ======================= Iteration:         7 =============================

     Lanczos converged:  T threshold:   0.100E-02
     Est. extremal eigenvalues:    0.279E+01   0.186E+00
     Est. condition number :    0.150E+02
     NS sqrt iter    1 1.00000000   0.715E+00       0.001       64.512
     NS sqrt iter    2 1.00000000   0.339E+00       0.001      110.592
     NS sqrt iter    3 1.00000000   0.780E-01       0.001      104.647
     NS sqrt iter    4 1.00000000   0.192E-02       0.002       67.983
     NS sqrt iter    5 1.00000000   0.468E-07       0.001       55.094
     Final NS sqrt iter    5 1.00000000   0.222E-08

     Est. extremal eigenvalues     -0.93046     1.57749  converged:  T
     TRS4 it   1 1.00000000   0.826E+00       0.000       16.128   0.100E-07
     TRS4 it   2 1.00000000   0.585E+00       0.001       32.256   0.100E-07
     TRS4 it   3 1.00000000   0.394E+00       0.001       32.256   0.100E-07
     TRS4 it   4 1.00000000   0.196E+00       0.001       32.256   0.100E-07
     TRS4 it   5 1.00000000   0.591E-01       0.001       32.256   0.100E-07
     TRS4 it   6 1.00000000   0.629E-02       0.001       32.256   0.100E-07
     TRS4 it   7 1.00000000   0.886E-04       0.001       32.256   0.100E-07
     TRS4 it   8 1.00000000   0.251E-07       0.001       32.256   0.100E-07
     Final TRS4 iteration    8 1.00000000   0.251E-07
     Chemical potential (mu):       0.00347
 
 PAO| energy:  -7.7705615104601948      penalty:   1.9325019650680946E-005
 PAO|LS| adapt:  T F T
 PAO|LS| adapt: scan_steps:    0.0000000000000000        0.0000000000000000       0.48552560625535474     
 PAO|LS| adapt: energies:   -7.7753962232466209        0.0000000000000000       -7.7705615104601948     
 PAO| ======================= Iteration:         8 =============================

     Lanczos converged:  T threshold:   0.100E-02
     Est. extremal eigenvalues:    0.284E+01   0.178E+00
     Est. condition number :    0.159E+02
     NS sqrt iter    1 1.00000000   0.723E+00       0.001       64.011
     NS sqrt iter    2 1.00000000   0.349E+00       0.001      100.515
     NS sqrt iter    3 1.00000000   0.858E-01       0.001       91.632
     NS sqrt iter    4 1.00000000   0.251E-02       0.001      110.592
     NS sqrt iter    5 1.00000000   0.101E-06       0.001       76.160
     Final NS sqrt iter    5 1.00000000   0.692E-09

     Est. extremal eigenvalues     -0.93051     1.57728  converged:  T
     TRS4 it   1 1.00000000   0.824E+00       0.000       16.128   0.100E-07
     TRS4 it   2 1.00000000   0.585E+00       0.001       32.256   0.100E-07
     TRS4 it   3 1.00000000   0.392E+00       0.001       32.256   0.100E-07
     TRS4 it   4 1.00000000   0.194E+00       0.001       32.256   0.100E-07
     TRS4 it   5 1.00000000   0.583E-01       0.001       32.256   0.100E-07
     TRS4 it   6 1.00000000   0.627E-02       0.001       32.256   0.100E-07
     TRS4 it   7 1.00000000   0.916E-04       0.001       32.256   0.100E-07
     TRS4 it   8 1.00000000   0.280E-07       0.001       32.256   0.100E-07
     Final TRS4 iteration    8 1.00000000   0.280E-07
     Chemical potential (mu):       0.00258
 
 PAO| energy:  -7.7959356865222320      penalty:   1.3657763410418585E-005
 PAO|LS| adapt:  T T T
 PAO|LS| adapt: scan_steps:    0.0000000000000000       0.24276280312767737       0.48552560625535474     
 PAO|LS| adapt: energies:   -7.7753962232466209       -7.7959356865222320       -7.7705615104601948     
 PAO|LS| adapt: suggested step_size:   0.22998132418937386     
 PAO|LS| adapt: predicted energy  -7.7959993235156846     
 PAO| ======================= Iteration:         9 =============================

     Lanczos converged:  T threshold:   0.100E-02
     Est. extremal eigenvalues:    0.284E+01   0.178E+00
     Est. condition number :    0.160E+02
     NS sqrt iter    1 1.00000000   0.724E+00       0.001       64.512
     NS sqrt iter    2 1.00000000   0.350E+00       0.001      110.592
     NS sqrt iter    3 1.00000000   0.862E-01       0.001      110.592
     NS sqrt iter    4 1.00000000   0.255E-02       0.001      110.592
     NS sqrt iter    5 1.00000000   0.105E-06       0.001       71.118
     Final NS sqrt iter    5 1.00000000   0.734E-09

     Est. extremal eigenvalues     -0.93046     1.57730  converged:  T
     TRS4 it   1 1.00000000   0.824E+00       0.000       16.128   0.100E-07
     TRS4 it   2 1.00000000   0.585E+00       0.001       32.256   0.100E-07
     TRS4 it   3 1.00000000   0.392E+00       0.001       32.256   0.100E-07
     TRS4 it   4 1.00000000   0.194E+00       0.001       32.256   0.100E-07
     TRS4 it   5 1.00000000   0.582E-01       0.001       32.256   0.100E-07
     TRS4 it   6 1.00000000   0.626E-02       0.001       32.256   0.100E-07
     TRS4 it   7 1.00000000   0.915E-04       0.001       32.256   0.100E-07
     TRS4 it   8 1.00000000   0.280E-07       0.001       32.256   0.100E-07
     Final TRS4 iteration    8 1.00000000   0.280E-07
     Chemical potential (mu):       0.00256
 
 PAO| energy:  -7.7960190660762656      penalty:   1.3515907484723276E-005
 PAO|CG| trace_G_new    4.0855822127036673E-002
 PAO|CG| trace_G_prev   0.18121436444649780     
 PAO|CG| trace_G_mix   -1.5080294800731884E-003
 PAO|CG| trace_D   0.18121436444649780     
 PAO|CG| trace_D_Gnew   1.5080294800731884E-003
 PAO|CG| beta:   0.23377755806779588     
 PAO| norm of gradient:  0.20212823189014609     
 PAO| energy improvement:  -2.0622842829644661E-002
 PAO| step      9                   -7.796019066  0.126E-01  0.230E+00     0.051
 PAO|LS| adapt:  T F F
 PAO|LS| adapt: scan_steps:    0.0000000000000000        0.0000000000000000        0.0000000000000000     
 PAO|LS| adapt: energies:   -7.7960190660762656        0.0000000000000000        0.0000000000000000     
 PAO| ======================= Iteration:        10 =============================

     Lanczos converged:  T threshold:   0.100E-02
     Est. extremal eigenvalues:    0.280E+01   0.183E+00
     Est. condition number :    0.153E+02
     NS sqrt iter    1 1.00000000   0.716E+00       0.001       64.512
     NS sqrt iter    2 1.00000000   0.341E+00       0.001      106.552
     NS sqrt iter    3 1.00000000   0.803E-01       0.001       77.482
     NS sqrt iter    4 1.00000000   0.207E-02       0.001       76.037
     NS sqrt iter    5 1.00000000   0.576E-07       0.001       71.936
     Final NS sqrt iter    5 1.00000000   0.438E-09

     Est. extremal eigenvalues     -0.93152     1.58157  converged:  T
     TRS4 it   1 1.00000000   0.826E+00       0.000       16.128   0.100E-07
     TRS4 it   2 1.00000000   0.585E+00       0.001       32.256   0.100E-07
     TRS4 it   3 1.00000000   0.392E+00       0.001       32.256   0.100E-07
     TRS4 it   4 1.00000000   0.193E+00       0.001       32.256   0.100E-07
     TRS4 it   5 1.00000000   0.572E-01       0.001       32.256   0.100E-07
     TRS4 it   6 1.00000000   0.599E-02       0.001       32.256   0.100E-07
     TRS4 it   7 1.00000000   0.819E-04       0.001       32.256   0.100E-07
     TRS4 it   8 1.00000000   0.216E-07       0.001       32.256   0.100E-07
     Final TRS4 iteration    8 1.00000000   0.216E-07
     Chemical potential (mu):       0.00548
 
 PAO| energy:  -7.8016378157815263      penalty:   1.4165900810191811E-005
 PAO|LS| adapt:  T T F
 PAO|LS| adapt: scan_steps:    0.0000000000000000       0.22998132418937386        0.0000000000000000     
 PAO|LS| adapt: energies:   -7.7960190660762656       -7.8016378157815263        0.0000000000000000     
 PAO| ======================= Iteration:        11 =============================

     Lanczos converged:  T threshold:   0.100E-02
     Est. extremal eigenvalues:    0.276E+01   0.189E+00
     Est. condition number :    0.146E+02
     NS sqrt iter    1 1.00000000   0.707E+00       0.001       64.512
     NS sqrt iter    2 1.00000000   0.332E+00       0.001      101.265
     NS sqrt iter    3 1.00000000   0.745E-01       0.001       97.632
     NS sqrt iter    4 1.00000000   0.168E-02       0.001      110.592
     NS sqrt iter    5 1.00000000   0.308E-07       0.001       61.952
     Final NS sqrt iter    5 1.00000000   0.988E-09

     Est. extremal eigenvalues     -0.93132     1.58891  converged:  T
     TRS4 it   1 1.00000000   0.828E+00       0.000       16.128   0.100E-07
     TRS4 it   2 1.00000000   0.587E+00       0.001       32.256   0.100E-07
     TRS4 it   3 1.00000000   0.393E+00       0.001       32.256   0.100E-07
     TRS4 it   4 1.00000000   0.192E+00       0.001       32.256   0.100E-07
     TRS4 it   5 1.00000000   0.566E-01       0.001       32.256   0.100E-07
     TRS4 it   6 1.00000000   0.580E-02       0.001       32.256   0.100E-07
     TRS4 it   7 1.00000000   0.749E-04       0.001       32.256   0.100E-07
     TRS4 it   8 1.00000000   0.174E-07       0.001       32.256   0.100E-07
     Final TRS4 iteration    8 1.00000000   0.174E-07
     Chemical potential (mu):       0.00838
 
 PAO| energy:  -7.8001494020861273      penalty:   1.5594970365629937E-005
 PAO|LS| adapt:  T T T
 PAO|LS| adapt: scan_steps:    0.0000000000000000       0.22998132418937386       0.45996264837874773     
 PAO|LS| adapt: energies:   -7.7960190660762656       -7.8016378157815263       -7.8001494020861273     
 PAO|LS| adapt: suggested step_size:   0.29680827689506789     
 PAO|LS| adapt: predicted energy  -7.8019378594591631     
 PAO| ======================= Iteration:        12 =============================

     Lanczos converged:  T threshold:   0.100E-02
     Est. extremal eigenvalues:    0.279E+01   0.185E+00
     Est. condition number :    0.151E+02
     NS sqrt iter    1 1.00000000   0.713E+00       0.001       64.512
     NS sqrt iter    2 1.00000000   0.338E+00       0.001      110.592
     NS sqrt iter    3 1.00000000   0.786E-01       0.001      110.592
     NS sqrt iter    4 1.00000000   0.195E-02       0.001      110.592
     NS sqrt iter    5 1.00000000   0.481E-07       0.001       49.208
     Final NS sqrt iter    5 1.00000000   0.216E-08

     Est. extremal eigenvalues     -0.93158     1.58342  converged:  T
     TRS4 it   1 1.00000000   0.826E+00       0.001       16.128   0.100E-07
     TRS4 it   2 1.00000000   0.585E+00       0.001       32.256   0.100E-07
     TRS4 it   3 1.00000000   0.392E+00       0.001       32.256   0.100E-07
     TRS4 it   4 1.00000000   0.192E+00       0.001       32.256   0.100E-07
     TRS4 it   5 1.00000000   0.570E-01       0.001       32.256   0.100E-07
     TRS4 it   6 1.00000000   0.593E-02       0.001       32.256   0.100E-07
     TRS4 it   7 1.00000000   0.796E-04       0.001       32.256   0.100E-07
     TRS4 it   8 1.00000000   0.202E-07       0.001       32.256   0.100E-07
     Final TRS4 iteration    8 1.00000000   0.202E-07
     Chemical potential (mu):       0.00633
 
 PAO| energy:  -7.8019184563455912      penalty:   1.4490887437552433E-005
 PAO|CG| trace_G_new    1.3365279201640500E-002
 PAO|CG| trace_G_prev    4.0855822127036673E-002
 PAO|CG| trace_G_mix   -5.7980728249631508E-004
 PAO|CG| trace_D    5.0054453007401752E-002
 PAO|CG| trace_D_Gnew   2.3786182110903777E-004
 PAO|CG| beta:   0.34132433905689391     
 PAO| norm of gradient:  0.11560830074713711     
 PAO| energy improvement:  -5.8993902693256217E-003
 PAO| step     12                   -7.801918456  0.723E-02  0.297E+00     0.053
 PAO|LS| adapt:  T F F
 PAO|LS| adapt: scan_steps:    0.0000000000000000        0.0000000000000000        0.0000000000000000     
 PAO|LS| adapt: energies:   -7.8019184563455912        0.0000000000000000        0.0000000000000000     
 PAO| ======================= Iteration:        13 =============================

     Lanczos converged:  T threshold:   0.100E-02
     Est. extremal eigenvalues:    0.275E+01   0.190E+00
     Est. condition number :    0.145E+02
     NS sqrt iter    1 1.00000000   0.705E+00       0.001       64.512
     NS sqrt iter    2 1.00000000   0.331E+00       0.001      110.592
     NS sqrt iter    3 1.00000000   0.739E-01       0.001      110.592
     NS sqrt iter    4 1.00000000   0.163E-02       0.001      110.592
     NS sqrt iter    5 1.00000000   0.282E-07       0.001       59.264
     Final NS sqrt iter    5 1.00000000   0.353E-08

     Est. extremal eigenvalues     -0.93223     1.58098  converged:  T
     TRS4 it   1 1.00000000   0.827E+00       0.001       16.128   0.100E-07
     TRS4 it   2 1.00000000   0.583E+00       0.001       32.256   0.100E-07
     TRS4 it   3 1.00000000   0.389E+00       0.001       32.256   0.100E-07
     TRS4 it   4 1.00000000   0.188E+00       0.001       32.256   0.100E-07
     TRS4 it   5 1.00000000   0.540E-01       0.001       32.256   0.100E-07
     TRS4 it   6 1.00000000   0.526E-02       0.001       32.256   0.100E-07
     TRS4 it   7 1.00000000   0.616E-04       0.001       32.256   0.100E-07
     TRS4 it   8 1.00000000   0.117E-07       0.001       32.256   0.100E-07
     Final TRS4 iteration    8 1.00000000   0.117E-07
     Chemical potential (mu):       0.01065
 
 PAO| energy:  -7.8042815087497139      penalty:   1.4946009912307026E-005
 PAO|LS| adapt:  T T F
 PAO|LS| adapt: scan_steps:    0.0000000000000000       0.29680827689506789        0.0000000000000000     
 PAO|LS| adapt: energies:   -7.8019184563455912       -7.8042815087497139        0.0000000000000000     
 PAO| ======================= Iteration:        14 =============================

     Lanczos converged:  T threshold:   0.100E-02
     Est. extremal eigenvalues:    0.271E+01   0.194E+00
     Est. condition number :    0.140E+02
     NS sqrt iter    1 1.00000000   0.697E+00       0.001       58.983
     NS sqrt iter    2 1.00000000   0.323E+00       0.001       85.621
     NS sqrt iter    3 1.00000000   0.695E-01       0.001      110.592
     NS sqrt iter    4 1.00000000   0.136E-02       0.001      110.592
     NS sqrt iter    5 1.00000000   0.161E-07       0.001       51.072
     Final NS sqrt iter    5 1.00000000   0.337E-08

     Est. extremal eigenvalues     -0.93218     1.57904  converged:  T
     TRS4 it   1 1.00000000   0.827E+00       0.000       16.128   0.100E-07
     TRS4 it   2 1.00000000   0.581E+00       0.001       32.256   0.100E-07
     TRS4 it   3 1.00000000   0.385E+00       0.001       32.256   0.100E-07
     TRS4 it   4 1.00000000   0.183E+00       0.001       32.256   0.100E-07
     TRS4 it   5 1.00000000   0.511E-01       0.001       32.256   0.100E-07
     TRS4 it   6 1.00000000   0.469E-02       0.001       32.256   0.100E-07
     TRS4 it   7 1.00000000   0.482E-04       0.001       32.256   0.100E-07
     TRS4 it   8 1.00000000   0.699E-08       0.001       32.256   0.100E-07
     Final TRS4 iteration    8 1.00000000   0.699E-08
     Chemical potential (mu):       0.01470
 
 PAO| energy:  -7.8035429115693900      penalty:   1.5982448536806259E-005
 PAO|LS| adapt:  T T T
 PAO|LS| adapt: scan_steps:    0.0000000000000000       0.29680827689506789       0.59361655379013578     
 PAO|LS| adapt: energies:   -7.8019184563455912       -7.8042815087497139       -7.8035429115693900     
 PAO|LS| adapt: suggested step_size:   0.37453332976478182     
 PAO|LS| adapt: predicted energy  -7.8043878575933796     
 PAO| ======================= Iteration:        15 =============================

     Lanczos converged:  T threshold:   0.100E-02
     Est. extremal eigenvalues:    0.274E+01   0.191E+00
     Est. condition number :    0.144E+02
     NS sqrt iter    1 1.00000000   0.703E+00       0.001       64.512
     NS sqrt iter    2 1.00000000   0.329E+00       0.001       87.899
     NS sqrt iter    3 1.00000000   0.727E-01       0.001      103.735
     NS sqrt iter    4 1.00000000   0.156E-02       0.001       92.375
     NS sqrt iter    5 1.00000000   0.244E-07       0.001       56.704
     Final NS sqrt iter    5 1.00000000   0.408E-08

     Est. extremal eigenvalues     -0.93228     1.58043  converged:  T
     TRS4 it   1 1.00000000   0.827E+00       0.000       16.128   0.100E-07
     TRS4 it   2 1.00000000   0.583E+00       0.001       32.256   0.100E-07
     TRS4 it   3 1.00000000   0.388E+00       0.001       32.256   0.100E-07
     TRS4 it   4 1.00000000   0.187E+00       0.001       32.256   0.100E-07
     TRS4 it   5 1.00000000   0.532E-01       0.001       32.256   0.100E-07
     TRS4 it   6 1.00000000   0.511E-02       0.001       32.256   0.100E-07
     TRS4 it   7 1.00000000   0.577E-04       0.001       32.256   0.100E-07
     TRS4 it   8 1.00000000   0.102E-07       0.001       32.256   0.100E-07
     Final TRS4 iteration    8 1.00000000   0.102E-07
     Chemical potential (mu):       0.01174
 
 PAO| energy:  -7.8043842874558962      penalty:   1.5156997895162859E-005
 PAO|CG| trace_G_new    2.9651721445859676E-003
 PAO|CG| trace_G_prev    1.3365279201640500E-002
 PAO|CG| trace_G_mix    8.3827127344416339E-005
 PAO|CG| trace_D    1.9034362266363545E-002
 PAO|CG| trace_D_Gnew   3.9235987759413866E-005
 PAO|CG| beta:   0.21558434910120586     
 PAO| norm of gradient:   5.4453394243021883E-002
 PAO| energy improvement:  -2.4658311103049613E-003
 PAO| step     15                   -7.804384287  0.340E-02  0.375E+00     0.051
 PAO|LS| adapt:  T F F
 PAO|LS| adapt: scan_steps:    0.0000000000000000        0.0000000000000000        0.0000000000000000     
 PAO|LS| adapt: energies:   -7.8043842874558962        0.0000000000000000        0.0000000000000000     
 PAO| ======================= Iteration:        16 =============================

     Lanczos converged:  T threshold:   0.100E-02
     Est. extremal eigenvalues:    0.273E+01   0.192E+00
     Est. condition number :    0.142E+02
     NS sqrt iter    1 1.00000000   0.701E+00       0.001       64.075
     NS sqrt iter    2 1.00000000   0.327E+00       0.001      110.592
     NS sqrt iter    3 1.00000000   0.719E-01       0.001      110.592
     NS sqrt iter    4 1.00000000   0.150E-02       0.001      108.789
     NS sqrt iter    5 1.00000000   0.213E-07       0.001       55.808
     Final NS sqrt iter    5 1.00000000   0.371E-08

     Est. extremal eigenvalues     -0.93232     1.57988  converged:  T
     TRS4 it   1 1.00000000   0.827E+00       0.000       16.128   0.100E-07
     TRS4 it   2 1.00000000   0.582E+00       0.001       32.256   0.100E-07
     TRS4 it   3 1.00000000   0.386E+00       0.001       32.256   0.100E-07
     TRS4 it   4 1.00000000   0.185E+00       0.001       32.256   0.100E-07
     TRS4 it   5 1.00000000   0.521E-01       0.001       32.256   0.100E-07
     TRS4 it   6 1.00000000   0.490E-02       0.001       32.256   0.100E-07
     TRS4 it   7 1.00000000   0.533E-04       0.001       32.256   0.100E-07
     TRS4 it   8 1.00000000   0.884E-08       0.001       32.256   0.100E-07
     Final TRS4 iteration    8 1.00000000   0.884E-08
     Chemical potential (mu):       0.01284
 
 PAO| energy:  -7.8045001702381605      penalty:   1.5005796812050136E-005
 PAO|LS| adapt:  T T F
 PAO|LS| adapt: scan_steps:    0.0000000000000000       0.37453332976478182        0.0000000000000000     
 PAO|LS| adapt: energies:   -7.8043842874558962       -7.8045001702381605        0.0000000000000000     
 PAO| ======================= Iteration:        17 =============================

     Lanczos converged:  T threshold:   0.100E-02
     Est. extremal eigenvalues:    0.272E+01   0.193E+00
     Est. condition number :    0.141E+02
     NS sqrt iter    1 1.00000000   0.699E+00       0.001       55.683
     NS sqrt iter    2 1.00000000   0.326E+00       0.001       87.820
     NS sqrt iter    3 1.00000000   0.712E-01       0.001      110.592
     NS sqrt iter    4 1.00000000   0.144E-02       0.001      110.592
     NS sqrt iter    5 1.00000000   0.185E-07       0.001       53.120
     Final NS sqrt iter    5 1.00000000   0.340E-08

     Est. extremal eigenvalues     -0.93221     1.57943  converged:  T
     TRS4 it   1 1.00000000   0.827E+00       0.000       16.128   0.100E-07
     TRS4 it   2 1.00000000   0.581E+00       0.001       32.256   0.100E-07
     TRS4 it   3 1.00000000   0.384E+00       0.001       32.256   0.100E-07
     TRS4 it   4 1.00000000   0.183E+00       0.001       32.256   0.100E-07
     TRS4 it   5 1.00000000   0.510E-01       0.001       32.256   0.100E-07
     TRS4 it   6 1.00000000   0.470E-02       0.001       32.256   0.100E-07
     TRS4 it   7 1.00000000   0.493E-04       0.001       32.256   0.100E-07
     TRS4 it   8 1.00000000   0.765E-08       0.001       32.256   0.100E-07
     Final TRS4 iteration    8 1.00000000   0.765E-08
     Chemical potential (mu):       0.01391
 
 PAO| energy:  -7.8026261083846382      penalty:   1.5002416677419754E-005
 PAO|LS| adapt:  T T T
 PAO|LS| adapt: scan_steps:    0.0000000000000000       0.37453332976478182       0.74906665952956364     
 PAO|LS| adapt: energies:   -7.8043842874558962       -7.8045001702381605       -7.8026261083846382     
 PAO|LS| adapt: suggested step_size:   0.20907730399431187     
 PAO|LS| adapt: predicted energy  -7.8046943460955580     
 PAO| ======================= Iteration:        18 =============================

     Lanczos converged:  T threshold:   0.100E-02
     Est. extremal eigenvalues:    0.273E+01   0.191E+00
     Est. condition number :    0.143E+02
     NS sqrt iter    1 1.00000000   0.702E+00       0.001       57.671
     NS sqrt iter    2 1.00000000   0.328E+00       0.001      110.592
     NS sqrt iter    3 1.00000000   0.723E-01       0.001      110.592
     NS sqrt iter    4 1.00000000   0.152E-02       0.001      110.592
     NS sqrt iter    5 1.00000000   0.226E-07       0.001       56.064
     Final NS sqrt iter    5 1.00000000   0.386E-08

     Est. extremal eigenvalues     -0.93232     1.58011  converged:  T
     TRS4 it   1 1.00000000   0.827E+00       0.000       16.128   0.100E-07
     TRS4 it   2 1.00000000   0.582E+00       0.001       32.256   0.100E-07
     TRS4 it   3 1.00000000   0.387E+00       0.001       32.256   0.100E-07
     TRS4 it   4 1.00000000   0.185E+00       0.001       32.256   0.100E-07
     TRS4 it   5 1.00000000   0.526E-01       0.001       32.256   0.100E-07
     TRS4 it   6 1.00000000   0.499E-02       0.001       32.256   0.100E-07
     TRS4 it   7 1.00000000   0.552E-04       0.001       32.256   0.100E-07
     TRS4 it   8 1.00000000   0.942E-08       0.001       32.256   0.100E-07
     Final TRS4 iteration    8 1.00000000   0.942E-08
     Chemical potential (mu):       0.01235
 
 PAO| energy:  -7.8046937625313433      penalty:   1.5054788195527961E-005
 PAO|CG| trace_G_new    7.7715315211064812E-004
 PAO|CG| trace_G_prev    2.9651721445859676E-003
 PAO|CG| trace_G_mix    2.0317936041835629E-006
 PAO|CG| trace_D    3.8329074764981738E-003
 PAO|CG| trace_D_Gnew  -1.9654566422961186E-006
 PAO|CG| beta:   0.26140855259339291     
 PAO| norm of gradient:   2.7877466744857717E-002
 PAO| energy improvement:  -3.0947507544709651E-004
 PAO| step     18                   -7.804693763  0.174E-02  0.209E+00     0.050
 PAO|LS| adapt:  T F F
 PAO|LS| adapt: scan_steps:    0.0000000000000000        0.0000000000000000        0.0000000000000000     
 PAO|LS| adapt: energies:   -7.8046937625313433        0.0000000000000000        0.0000000000000000     
 PAO| ======================= Iteration:        19 =============================

     Lanczos converged:  T threshold:   0.100E-02
     Est. extremal eigenvalues:    0.273E+01   0.191E+00
     Est. condition number :    0.143E+02
     NS sqrt iter    1 1.00000000   0.702E+00       0.001       56.561
     NS sqrt iter    2 1.00000000   0.328E+00       0.001      110.592
     NS sqrt iter    3 1.00000000   0.725E-01       0.001      110.592
     NS sqrt iter    4 1.00000000   0.153E-02       0.001      110.592
     NS sqrt iter    5 1.00000000   0.226E-07       0.001       56.064
     Final NS sqrt iter    5 1.00000000   0.397E-08

     Est. extremal eigenvalues     -0.93232     1.58048  converged:  T
     TRS4 it   1 1.00000000   0.827E+00       0.000       16.128   0.100E-07
     TRS4 it   2 1.00000000   0.582E+00       0.001       32.256   0.100E-07
     TRS4 it   3 1.00000000   0.387E+00       0.001       32.256   0.100E-07
     TRS4 it   4 1.00000000   0.185E+00       0.001       32.256   0.100E-07
     TRS4 it   5 1.00000000   0.525E-01       0.001       32.256   0.100E-07
     TRS4 it   6 1.00000000   0.499E-02       0.001       32.256   0.100E-07
     TRS4 it   7 1.00000000   0.554E-04       0.001       32.256   0.100E-07
     TRS4 it   8 1.00000000   0.957E-08       0.001       32.256   0.100E-07
     Final TRS4 iteration    8 1.00000000   0.957E-08
     Chemical potential (mu):       0.01226
 
 PAO| energy:  -7.8048193826455234      penalty:   1.4783056085115004E-005
 PAO|LS| adapt:  T T F
 PAO|LS| adapt: scan_steps:    0.0000000000000000       0.20907730399431187        0.0000000000000000     
 PAO|LS| adapt: energies:   -7.8046937625313433       -7.8048193826455234        0.0000000000000000     
 PAO| ======================= Iteration:        20 =============================

     Lanczos converged:  T threshold:   0.100E-02
     Est. extremal eigenvalues:    0.273E+01   0.191E+00
     Est. condition number :    0.143E+02
     NS sqrt iter    1 1.00000000   0.702E+00       0.001       64.512
     NS sqrt iter    2 1.00000000   0.328E+00       0.001      110.592
     NS sqrt iter    3 1.00000000   0.727E-01       0.001       85.072
     NS sqrt iter    4 1.00000000   0.154E-02       0.001      108.878
     NS sqrt iter    5 1.00000000   0.227E-07       0.001       56.448
     Final NS sqrt iter    5 1.00000000   0.411E-08

     Est. extremal eigenvalues     -0.93232     1.58085  converged:  T
     TRS4 it   1 1.00000000   0.827E+00       0.000       16.128   0.100E-07
     TRS4 it   2 1.00000000   0.582E+00       0.001       32.256   0.100E-07
     TRS4 it   3 1.00000000   0.387E+00       0.001       32.256   0.100E-07
     TRS4 it   4 1.00000000   0.185E+00       0.001       32.256   0.100E-07
     TRS4 it   5 1.00000000   0.525E-01       0.001       32.256   0.100E-07
     TRS4 it   6 1.00000000   0.498E-02       0.001       32.256   0.100E-07
     TRS4 it   7 1.00000000   0.556E-04       0.001       32.256   0.100E-07
     TRS4 it   8 1.00000000   0.973E-08       0.001       32.256   0.100E-07
     Final TRS4 iteration    8 1.00000000   0.973E-08
     Chemical potential (mu):       0.01215
 
 PAO| energy:  -7.8048706351560035      penalty:   1.4523277836224062E-005
 PAO|LS| adapt:  T T F
 PAO|LS| adapt: scan_steps:    0.0000000000000000       0.41815460798862375        0.0000000000000000     
 PAO|LS| adapt: energies:   -7.8046937625313433       -7.8048706351560035        0.0000000000000000     
 PAO| ======================= Iteration:        21 =============================

     Lanczos converged:  T threshold:   0.100E-02
     Est. extremal eigenvalues:    0.273E+01   0.191E+00
     Est. condition number :    0.143E+02
     NS sqrt iter    1 1.00000000   0.701E+00       0.001       55.564
     NS sqrt iter    2 1.00000000   0.329E+00       0.001      110.592
     NS sqrt iter    3 1.00000000   0.731E-01       0.001      110.592
     NS sqrt iter    4 1.00000000   0.156E-02       0.001      110.592
     NS sqrt iter    5 1.00000000   0.227E-07       0.001       54.528
     Final NS sqrt iter    5 1.00000000   0.587E-08

     Est. extremal eigenvalues     -0.93232     1.58160  converged:  T
     TRS4 it   1 1.00000000   0.827E+00       0.000       16.128   0.100E-07
     TRS4 it   2 1.00000000   0.582E+00       0.001       32.256   0.100E-07
     TRS4 it   3 1.00000000   0.386E+00       0.001       32.256   0.100E-07
     TRS4 it   4 1.00000000   0.185E+00       0.001       32.256   0.100E-07
     TRS4 it   5 1.00000000   0.524E-01       0.001       32.256   0.100E-07
     TRS4 it   6 1.00000000   0.498E-02       0.001       32.256   0.100E-07
     TRS4 it   7 1.00000000   0.560E-04       0.001       32.256   0.100E-07
     TRS4 it   8 1.00000000   0.100E-07       0.001       32.256   0.100E-07
     Final TRS4 iteration    8 1.00000000   0.100E-07
     Chemical potential (mu):       0.01192
 
 PAO| energy:  -7.8047474818431839      penalty:   1.4039139875839946E-005
 PAO|LS| Need extra step
 PAO|LS| adapt:  T T T
 PAO|LS| adapt: scan_steps:    0.0000000000000000       0.41815460798862375       0.83630921597724750     
 PAO|LS| adapt: energies:   -7.8046937625313433       -7.8048706351560035       -7.8047474818431839     
 PAO|LS| adapt: suggested step_size:   0.45558966772514381     
 PAO|LS| adapt: predicted energy  -7.8048718374539154     
 PAO| ======================= Iteration:        22 =============================

     Lanczos converged:  T threshold:   0.100E-02
     Est. extremal eigenvalues:    0.273E+01   0.191E+00
     Est. condition number :    0.143E+02
     NS sqrt iter    1 1.00000000   0.702E+00       0.001       64.512
     NS sqrt iter    2 1.00000000   0.328E+00       0.002       72.754
     NS sqrt iter    3 1.00000000   0.727E-01       0.001       96.472
     NS sqrt iter    4 1.00000000   0.154E-02       0.001       97.932
     NS sqrt iter    5 1.00000000   0.227E-07       0.001       56.448
     Final NS sqrt iter    5 1.00000000   0.413E-08

     Est. extremal eigenvalues     -0.93232     1.58092  converged:  T
     TRS4 it   1 1.00000000   0.827E+00       0.000       16.128   0.100E-07
     TRS4 it   2 1.00000000   0.582E+00       0.001       32.256   0.100E-07
     TRS4 it   3 1.00000000   0.387E+00       0.001       32.256   0.100E-07
     TRS4 it   4 1.00000000   0.185E+00       0.001       32.256   0.100E-07
     TRS4 it   5 1.00000000   0.525E-01       0.001       32.256   0.100E-07
     TRS4 it   6 1.00000000   0.498E-02       0.001       32.256   0.100E-07
     TRS4 it   7 1.00000000   0.556E-04       0.001       32.256   0.100E-07
     TRS4 it   8 1.00000000   0.975E-08       0.001       32.256   0.100E-07
     Final TRS4 iteration    8 1.00000000   0.975E-08
     Chemical potential (mu):       0.01213
 
 PAO| energy:  -7.8048719129345576      penalty:   1.4478015509810253E-005
 PAO|CG| trace_G_new    2.1892657661304224E-004
 PAO|CG| trace_G_prev    7.7715315211064812E-004
 PAO|CG| trace_G_mix    3.5213808840497106E-006
 PAO|CG| trace_D    1.0401002793591298E-003
 PAO|CG| trace_D_Gnew  -1.9788142846889920E-006
 PAO|CG| beta:   0.27717213157275333     
 PAO| norm of gradient:   1.4796167632635224E-002
 PAO| energy improvement:  -1.7815040321433884E-004
 PAO| step     22                   -7.804871913  0.925E-03  0.456E+00     0.067
 PAO|LS| adapt:  T F F
 PAO|LS| adapt: scan_steps:    0.0000000000000000        0.0000000000000000        0.0000000000000000     
 PAO|LS| adapt: energies:   -7.8048719129345576        0.0000000000000000        0.0000000000000000     
 PAO| ======================= Iteration:        23 =============================

     Lanczos converged:  T threshold:   0.100E-02
     Est. extremal eigenvalues:    0.273E+01   0.192E+00
     Est. condition number :    0.143E+02
     NS sqrt iter    1 1.00000000   0.702E+00       0.001       64.512
     NS sqrt iter    2 1.00000000   0.328E+00       0.001      110.592
     NS sqrt iter    3 1.00000000   0.727E-01       0.001      110.592
     NS sqrt iter    4 1.00000000   0.154E-02       0.001      101.058
     NS sqrt iter    5 1.00000000   0.225E-07       0.001       56.448
     Final NS sqrt iter    5 1.00000000   0.415E-08

     Est. extremal eigenvalues     -0.93232     1.58130  converged:  T
     TRS4 it   1 1.00000000   0.827E+00       0.000       16.128   0.100E-07
     TRS4 it   2 1.00000000   0.582E+00       0.001       32.256   0.100E-07
     TRS4 it   3 1.00000000   0.387E+00       0.001       32.256   0.100E-07
     TRS4 it   4 1.00000000   0.186E+00       0.001       32.256   0.100E-07
     TRS4 it   5 1.00000000   0.526E-01       0.001       32.256   0.100E-07
     TRS4 it   6 1.00000000   0.502E-02       0.001       32.256   0.100E-07
     TRS4 it   7 1.00000000   0.566E-04       0.001       32.256   0.100E-07
     TRS4 it   8 1.00000000   0.101E-07       0.001       32.256   0.100E-07
     Final TRS4 iteration    8 1.00000000   0.101E-07
     Chemical potential (mu):       0.01190
 
 PAO| energy:  -7.8049148378539384      penalty:   1.3801720077802445E-005
 PAO|LS| adapt:  T T F
 PAO|LS| adapt: scan_steps:    0.0000000000000000       0.45558966772514381        0.0000000000000000     
 PAO|LS| adapt: energies:   -7.8048719129345576       -7.8049148378539384        0.0000000000000000     
 PAO| ======================= Iteration:        24 =============================

     Lanczos converged:  T threshold:   0.100E-02
     Est. extremal eigenvalues:    0.273E+01   0.192E+00
     Est. condition number :    0.143E+02
     NS sqrt iter    1 1.00000000   0.702E+00       0.002       36.580
     NS sqrt iter    2 1.00000000   0.328E+00       0.001      106.121
     NS sqrt iter    3 1.00000000   0.728E-01       0.001      110.592
     NS sqrt iter    4 1.00000000   0.154E-02       0.001      110.592
     NS sqrt iter    5 1.00000000   0.223E-07       0.001       56.064
     Final NS sqrt iter    5 1.00000000   0.416E-08

     Est. extremal eigenvalues     -0.93232     1.58168  converged:  T
     TRS4 it   1 1.00000000   0.828E+00       0.000       16.128   0.100E-07
     TRS4 it   2 1.00000000   0.583E+00       0.001       32.256   0.100E-07
     TRS4 it   3 1.00000000   0.387E+00       0.001       32.256   0.100E-07
     TRS4 it   4 1.00000000   0.186E+00       0.001       32.256   0.100E-07
     TRS4 it   5 1.00000000   0.528E-01       0.001       32.256   0.100E-07
     TRS4 it   6 1.00000000   0.506E-02       0.001       32.256   0.100E-07
     TRS4 it   7 1.00000000   0.575E-04       0.001       32.256   0.100E-07
     TRS4 it   8 1.00000000   0.104E-07       0.001       32.256   0.100E-07
     Final TRS4 iteration    8 1.00000000   0.104E-07
     Chemical potential (mu):       0.01166
 
 PAO| energy:  -7.8048429854081771      penalty:   1.3152841131006852E-005
 PAO|LS| adapt:  T T T
 PAO|LS| adapt: scan_steps:    0.0000000000000000       0.45558966772514381       0.91117933545028762     
 PAO|LS| adapt: energies:   -7.8048719129345576       -7.8049148378539384       -7.8048429854081771     
 PAO|LS| adapt: suggested step_size:   0.39817816452718097     
 PAO|LS| adapt: predicted energy  -7.8049157491853904     
 PAO| ======================= Iteration:        25 =============================

     Lanczos converged:  T threshold:   0.100E-02
     Est. extremal eigenvalues:    0.273E+01   0.192E+00
     Est. condition number :    0.143E+02
     NS sqrt iter    1 1.00000000   0.702E+00       0.001       62.736
     NS sqrt iter    2 1.00000000   0.328E+00       0.001      110.592
     NS sqrt iter    3 1.00000000   0.727E-01       0.001      110.592
     NS sqrt iter    4 1.00000000   0.154E-02       0.001      110.592
     NS sqrt iter    5 1.00000000   0.225E-07       0.001       56.448
     Final NS sqrt iter    5 1.00000000   0.415E-08

     Est. extremal eigenvalues     -0.93232     1.58125  converged:  T
     TRS4 it   1 1.00000000   0.827E+00       0.000       16.128   0.100E-07
     TRS4 it   2 1.00000000   0.582E+00       0.001       32.256   0.100E-07
     TRS4 it   3 1.00000000   0.387E+00       0.001       32.256   0.100E-07
     TRS4 it   4 1.00000000   0.186E+00       0.001       32.256   0.100E-07
     TRS4 it   5 1.00000000   0.526E-01       0.001       32.256   0.100E-07
     TRS4 it   6 1.00000000   0.502E-02       0.001       32.256   0.100E-07
     TRS4 it   7 1.00000000   0.565E-04       0.001       32.256   0.100E-07
     TRS4 it   8 1.00000000   0.101E-07       0.001       32.256   0.100E-07
     Final TRS4 iteration    8 1.00000000   0.101E-07
     Chemical potential (mu):       0.01193
 
 PAO| energy:  -7.8049157291975240      penalty:   1.3885422928312346E-005
 PAO|CG| trace_G_new    6.5163092463656712E-005
 PAO|CG| trace_G_prev    2.1892657661304224E-004
 PAO|CG| trace_G_mix    4.7794480297744956E-007
 PAO|CG| trace_D    2.9992859100164403E-004
 PAO|CG| trace_D_Gnew  -3.3448052343835618E-007
 PAO|CG| beta:   0.29546503061166374     
 PAO| norm of gradient:   8.0723659768160115E-003
 PAO| energy improvement:  -4.3816262966345221E-005
 PAO| step     25                   -7.804915729  0.505E-03  0.398E+00     0.051
 PAO|LS| adapt:  T F F
 PAO|LS| adapt: scan_steps:    0.0000000000000000        0.0000000000000000        0.0000000000000000     
 PAO|LS| adapt: energies:   -7.8049157291975240        0.0000000000000000        0.0000000000000000     
 PAO| ======================= Iteration:        26 =============================

     Lanczos converged:  T threshold:   0.100E-02
     Est. extremal eigenvalues:    0.273E+01   0.192E+00
     Est. condition number :    0.143E+02
     NS sqrt iter    1 1.00000000   0.701E+00       0.001       62.698
     NS sqrt iter    2 1.00000000   0.328E+00       0.001      110.592
     NS sqrt iter    3 1.00000000   0.726E-01       0.001      110.592
     NS sqrt iter    4 1.00000000   0.153E-02       0.001      110.592
     NS sqrt iter    5 1.00000000   0.223E-07       0.001       56.064
     Final NS sqrt iter    5 1.00000000   0.403E-08

     Est. extremal eigenvalues     -0.93233     1.58107  converged:  T
     TRS4 it   1 1.00000000   0.827E+00       0.000       16.128   0.100E-07
     TRS4 it   2 1.00000000   0.582E+00       0.001       32.256   0.100E-07
     TRS4 it   3 1.00000000   0.387E+00       0.001       32.256   0.100E-07
     TRS4 it   4 1.00000000   0.185E+00       0.001       32.256   0.100E-07
     TRS4 it   5 1.00000000   0.526E-01       0.001       32.256   0.100E-07
     TRS4 it   6 1.00000000   0.501E-02       0.001       32.256   0.100E-07
     TRS4 it   7 1.00000000   0.562E-04       0.001       32.256   0.100E-07
     TRS4 it   8 1.00000000   0.996E-08       0.001       32.256   0.100E-07
     Final TRS4 iteration    8 1.00000000   0.996E-08
     Chemical potential (mu):       0.01198
 
 PAO| energy:  -7.8049195259340873      penalty:   1.3270697364151180E-005
 PAO|LS| adapt:  T T F
 PAO|LS| adapt: scan_steps:    0.0000000000000000       0.39817816452718097        0.0000000000000000     
 PAO|LS| adapt: energies:   -7.8049157291975240       -7.8049195259340873        0.0000000000000000     
 PAO| ======================= Iteration:        27 =============================

     Lanczos converged:  T threshold:   0.100E-02
     Est. extremal eigenvalues:    0.273E+01   0.192E+00
     Est. condition number :    0.142E+02
     NS sqrt iter    1 1.00000000   0.701E+00       0.001       58.338
     NS sqrt iter    2 1.00000000   0.328E+00       0.001      109.950
     NS sqrt iter    3 1.00000000   0.725E-01       0.001      110.592
     NS sqrt iter    4 1.00000000   0.153E-02       0.001      110.592
     NS sqrt iter    5 1.00000000   0.221E-07       0.001       56.064
     Final NS sqrt iter    5 1.00000000   0.394E-08

     Est. extremal eigenvalues     -0.93232     1.58090  converged:  T
     TRS4 it   1 1.00000000   0.827E+00       0.000       16.128   0.100E-07
     TRS4 it   2 1.00000000   0.582E+00       0.001       32.256   0.100E-07
     TRS4 it   3 1.00000000   0.387E+00       0.001       32.256   0.100E-07
     TRS4 it   4 1.00000000   0.185E+00       0.001       32.256   0.100E-07
     TRS4 it   5 1.00000000   0.526E-01       0.001       32.256   0.100E-07
     TRS4 it   6 1.00000000   0.500E-02       0.001       32.256   0.100E-07
     TRS4 it   7 1.00000000   0.561E-04       0.001       32.256   0.100E-07
     TRS4 it   8 1.00000000   0.988E-08       0.001       32.256   0.100E-07
     Final TRS4 iteration    8 1.00000000   0.988E-08
     Chemical potential (mu):       0.01204
 
 PAO| energy:  -7.8048788936619529      penalty:   1.2672182182849624E-005
 PAO|LS| adapt:  T T T
 PAO|LS| adapt: scan_steps:    0.0000000000000000       0.39817816452718097       0.79635632905436193     
 PAO|LS| adapt: energies:   -7.8049157291975240       -7.8049195259340873       -7.8048788936619529     
 PAO|LS| adapt: suggested step_size:   0.23311589583208997     
 PAO|LS| adapt: predicted energy  -7.8049233434193299     
 PAO| ======================= Iteration:        28 =============================

     Lanczos converged:  T threshold:   0.100E-02
     Est. extremal eigenvalues:    0.273E+01   0.192E+00
     Est. condition number :    0.143E+02
     NS sqrt iter    1 1.00000000   0.702E+00       0.001       64.512
     NS sqrt iter    2 1.00000000   0.328E+00       0.001      110.283
     NS sqrt iter    3 1.00000000   0.727E-01       0.001      110.483
     NS sqrt iter    4 1.00000000   0.154E-02       0.001      110.592
     NS sqrt iter    5 1.00000000   0.224E-07       0.001       56.064
     Final NS sqrt iter    5 1.00000000   0.407E-08

     Est. extremal eigenvalues     -0.93233     1.58115  converged:  T
     TRS4 it   1 1.00000000   0.827E+00       0.000       16.128   0.100E-07
     TRS4 it   2 1.00000000   0.582E+00       0.001       32.256   0.100E-07
     TRS4 it   3 1.00000000   0.387E+00       0.001       32.256   0.100E-07
     TRS4 it   4 1.00000000   0.185E+00       0.001       32.256   0.100E-07
     TRS4 it   5 1.00000000   0.526E-01       0.001       32.256   0.100E-07
     TRS4 it   6 1.00000000   0.501E-02       0.001       32.256   0.100E-07
     TRS4 it   7 1.00000000   0.563E-04       0.001       32.256   0.100E-07
     TRS4 it   8 1.00000000   0.100E-07       0.001       32.256   0.100E-07
     Final TRS4 iteration    8 1.00000000   0.100E-07
     Chemical potential (mu):       0.01196
 
 PAO| energy:  -7.8049233381168701      penalty:   1.3523552563490700E-005
 PAO|CG| trace_G_new    1.8306833906474852E-005
 PAO|CG| trace_G_prev    6.5163092463656712E-005
 PAO|CG| trace_G_mix    1.2236157195680961E-008
 PAO|CG| trace_D    9.1544388378282798E-005
 PAO|CG| trace_D_Gnew  -2.0951106948172679E-008
 PAO|CG| beta:   0.28075091370905364     
 PAO| norm of gradient:   4.2786486075015381E-003
 PAO| energy improvement:  -7.6089193461470472E-006
 PAO| step     28                   -7.804923338  0.267E-03  0.233E+00     0.052
 PAO|LS| adapt:  T F F
 PAO|LS| adapt: scan_steps:    0.0000000000000000        0.0000000000000000        0.0000000000000000     
 PAO|LS| adapt: energies:   -7.8049233381168701        0.0000000000000000        0.0000000000000000     
 PAO| ======================= Iteration:        29 =============================

     Lanczos converged:  T threshold:   0.100E-02
     Est. extremal eigenvalues:    0.273E+01   0.192E+00
     Est. condition number :    0.143E+02
     NS sqrt iter    1 1.00000000   0.701E+00       0.001       64.512
     NS sqrt iter    2 1.00000000   0.328E+00       0.001      110.592
     NS sqrt iter    3 1.00000000   0.726E-01       0.001      110.592
     NS sqrt iter    4 1.00000000   0.153E-02       0.001      110.592
     NS sqrt iter    5 1.00000000   0.224E-07       0.001       56.064
     Final NS sqrt iter    5 1.00000000   0.403E-08

     Est. extremal eigenvalues     -0.93233     1.58125  converged:  T
     TRS4 it   1 1.00000000   0.827E+00       0.000       16.128   0.100E-07
     TRS4 it   2 1.00000000   0.582E+00       0.001       32.256   0.100E-07
     TRS4 it   3 1.00000000   0.387E+00       0.001       32.256   0.100E-07
     TRS4 it   4 1.00000000   0.185E+00       0.001       32.256   0.100E-07
     TRS4 it   5 1.00000000   0.526E-01       0.001       32.256   0.100E-07
     TRS4 it   6 1.00000000   0.501E-02       0.001       32.256   0.100E-07
     TRS4 it   7 1.00000000   0.562E-04       0.001       32.256   0.100E-07
     TRS4 it   8 1.00000000   0.994E-08       0.001       32.256   0.100E-07
     Final TRS4 iteration    8 1.00000000   0.994E-08
     Chemical potential (mu):       0.01203
 
 PAO| energy:  -7.8049270400041060      penalty:   1.3168226996210711E-005
 PAO|LS| adapt:  T T F
 PAO|LS| adapt: scan_steps:    0.0000000000000000       0.23311589583208997        0.0000000000000000     
 PAO|LS| adapt: energies:   -7.8049233381168701       -7.8049270400041060        0.0000000000000000     
 PAO| ======================= Iteration:        30 =============================

     Lanczos converged:  T threshold:   0.100E-02
     Est. extremal eigenvalues:    0.273E+01   0.192E+00
     Est. condition number :    0.143E+02
     NS sqrt iter    1 1.00000000   0.701E+00       0.001       64.512
     NS sqrt iter    2 1.00000000   0.328E+00       0.001      109.101
     NS sqrt iter    3 1.00000000   0.726E-01       0.001      110.592
     NS sqrt iter    4 1.00000000   0.153E-02       0.001      110.592
     NS sqrt iter    5 1.00000000   0.224E-07       0.001       53.529
     Final NS sqrt iter    5 1.00000000   0.398E-08

     Est. extremal eigenvalues     -0.93233     1.58136  converged:  T
     TRS4 it   1 1.00000000   0.828E+00       0.000       16.128   0.100E-07
     TRS4 it   2 1.00000000   0.582E+00       0.001       32.256   0.100E-07
     TRS4 it   3 1.00000000   0.387E+00       0.001       32.256   0.100E-07
     TRS4 it   4 1.00000000   0.185E+00       0.001       32.256   0.100E-07
     TRS4 it   5 1.00000000   0.525E-01       0.001       32.256   0.100E-07
     TRS4 it   6 1.00000000   0.500E-02       0.001       32.256   0.100E-07
     TRS4 it   7 1.00000000   0.560E-04       0.001       32.256   0.100E-07
     TRS4 it   8 1.00000000   0.987E-08       0.001       32.256   0.100E-07
     Final TRS4 iteration    8 1.00000000   0.987E-08
     Chemical potential (mu):       0.01209
 
 PAO| energy:  -7.8049296079490320      penalty:   1.2817958817297768E-005
 PAO|LS| adapt:  T T F
 PAO|LS| adapt: scan_steps:    0.0000000000000000       0.46623179166417994        0.0000000000000000     
 PAO|LS| adapt: energies:   -7.8049233381168701       -7.8049296079490320        0.0000000000000000     
 PAO| ======================= Iteration:        31 =============================

     Lanczos converged:  T threshold:   0.100E-02
     Est. extremal eigenvalues:    0.273E+01   0.191E+00
     Est. condition number :    0.143E+02
     NS sqrt iter    1 1.00000000   0.701E+00       0.001       61.603
     NS sqrt iter    2 1.00000000   0.328E+00       0.001      110.592
     NS sqrt iter    3 1.00000000   0.725E-01       0.001      110.592
     NS sqrt iter    4 1.00000000   0.153E-02       0.001      110.592
     NS sqrt iter    5 1.00000000   0.223E-07       0.001       56.064
     Final NS sqrt iter    5 1.00000000   0.389E-08

     Est. extremal eigenvalues     -0.93233     1.58157  converged:  T
     TRS4 it   1 1.00000000   0.828E+00       0.000       16.128   0.100E-07
     TRS4 it   2 1.00000000   0.582E+00       0.001       32.256   0.100E-07
     TRS4 it   3 1.00000000   0.387E+00       0.001       32.256   0.100E-07
     TRS4 it   4 1.00000000   0.185E+00       0.001       32.256   0.100E-07
     TRS4 it   5 1.00000000   0.525E-01       0.001       32.256   0.100E-07
     TRS4 it   6 1.00000000   0.499E-02       0.001       32.256   0.100E-07
     TRS4 it   7 1.00000000   0.557E-04       0.001       32.256   0.100E-07
     TRS4 it   8 1.00000000   0.975E-08       0.001       32.256   0.100E-07
     Final TRS4 iteration    8 1.00000000   0.975E-08
     Chemical potential (mu):       0.01223
 
 PAO| energy:  -7.8049313408682881      penalty:   1.2132541898381743E-005
 PAO|LS| Need extra step
 PAO|LS| adapt:  T T F
 PAO|LS| adapt: scan_steps:    0.0000000000000000       0.93246358332835988        0.0000000000000000     
 PAO|LS| adapt: energies:   -7.8049233381168701       -7.8049313408682881        0.0000000000000000     
 PAO| ======================= Iteration:        32 =============================

     Lanczos converged:  T threshold:   0.100E-02
     Est. extremal eigenvalues:    0.273E+01   0.191E+00
     Est. condition number :    0.143E+02
     NS sqrt iter    1 1.00000000   0.700E+00       0.001       64.512
     NS sqrt iter    2 1.00000000   0.327E+00       0.001      110.592
     NS sqrt iter    3 1.00000000   0.722E-01       0.001      110.592
     NS sqrt iter    4 1.00000000   0.152E-02       0.001      110.592
     NS sqrt iter    5 1.00000000   0.223E-07       0.001       56.064
     Final NS sqrt iter    5 1.00000000   0.372E-08

     Est. extremal eigenvalues     -0.93234     1.58198  converged:  T
     TRS4 it   1 1.00000000   0.828E+00       0.000       16.128   0.100E-07
     TRS4 it   2 1.00000000   0.583E+00       0.001       32.256   0.100E-07
     TRS4 it   3 1.00000000   0.387E+00       0.001       32.256   0.100E-07
     TRS4 it   4 1.00000000   0.185E+00       0.001       32.256   0.100E-07
     TRS4 it   5 1.00000000   0.524E-01       0.001       32.256   0.100E-07
     TRS4 it   6 1.00000000   0.496E-02       0.001       32.256   0.100E-07
     TRS4 it   7 1.00000000   0.551E-04       0.001       32.256   0.100E-07
     TRS4 it   8 1.00000000   0.950E-08       0.001       32.256   0.100E-07
     Final TRS4 iteration    8 1.00000000   0.950E-08
     Chemical potential (mu):       0.01250
 
 PAO| energy:  -7.8049211863851733      penalty:   1.0821818123326946E-005
 PAO|LS| Need extra step
 PAO|LS| adapt:  T T T
 PAO|LS| adapt: scan_steps:    0.0000000000000000       0.93246358332835988        1.8649271666567198     
 PAO|LS| adapt: energies:   -7.8049233381168701       -7.8049313408682881       -7.8049211863851733     
 PAO|LS| adapt: suggested step_size:   0.87721256355567712     
 PAO|LS| adapt: predicted energy  -7.8049313727422849     
 PAO| ======================= Iteration:        33 =============================

     Lanczos converged:  T threshold:   0.100E-02
     Est. extremal eigenvalues:    0.273E+01   0.191E+00
     Est. condition number :    0.143E+02
     NS sqrt iter    1 1.00000000   0.701E+00       0.001       56.505
     NS sqrt iter    2 1.00000000   0.328E+00       0.001      110.592
     NS sqrt iter    3 1.00000000   0.725E-01       0.001      110.592
     NS sqrt iter    4 1.00000000   0.153E-02       0.001      110.036
     NS sqrt iter    5 1.00000000   0.223E-07       0.001       56.064
     Final NS sqrt iter    5 1.00000000   0.390E-08

     Est. extremal eigenvalues     -0.93233     1.58154  converged:  T
     TRS4 it   1 1.00000000   0.828E+00       0.000       16.128   0.100E-07
     TRS4 it   2 1.00000000   0.582E+00       0.001       32.256   0.100E-07
     TRS4 it   3 1.00000000   0.387E+00       0.001       32.256   0.100E-07
     TRS4 it   4 1.00000000   0.185E+00       0.001       32.256   0.100E-07
     TRS4 it   5 1.00000000   0.525E-01       0.001       32.256   0.100E-07
     TRS4 it   6 1.00000000   0.499E-02       0.001       32.256   0.100E-07
     TRS4 it   7 1.00000000   0.557E-04       0.001       32.256   0.100E-07
     TRS4 it   8 1.00000000   0.976E-08       0.001       32.256   0.100E-07
     Final TRS4 iteration    8 1.00000000   0.976E-08
     Chemical potential (mu):       0.01221
 
 PAO| energy:  -7.8049313725515326      penalty:   1.2212717150421329E-005
 PAO|CG| trace_G_new    4.4215604416605323E-005
 PAO|CG| trace_G_prev    1.8306833906474852E-005
 PAO|CG| trace_G_mix    3.1408615887095323E-008
 PAO|CG| trace_D    2.5534225143715652E-005
 PAO|CG| trace_D_Gnew  -4.1416414966550750E-009
 PAO|CG| beta:    2.4135356242616557     
 PAO| norm of gradient:   6.6494815148705633E-003
 PAO| energy improvement:  -8.0344346624627860E-006
 PAO| step     33                   -7.804931373  0.416E-03  0.877E+00     0.082
 PAO|LS| adapt:  T F F
 PAO|LS| adapt: scan_steps:    0.0000000000000000        0.0000000000000000        0.0000000000000000     
 PAO|LS| adapt: energies:   -7.8049313725515326        0.0000000000000000        0.0000000000000000     
 PAO| ======================= Iteration:        34 =============================

     Lanczos converged:  T threshold:   0.100E-02
     Est. extremal eigenvalues:    0.273E+01   0.191E+00
     Est. condition number :    0.143E+02
     NS sqrt iter    1 1.00000000   0.700E+00       0.001       64.512
     NS sqrt iter    2 1.00000000   0.327E+00       0.001      110.592
     NS sqrt iter    3 1.00000000   0.720E-01       0.001      106.687
     NS sqrt iter    4 1.00000000   0.151E-02       0.001      110.592
     NS sqrt iter    5 1.00000000   0.225E-07       0.001       55.936
     Final NS sqrt iter    5 1.00000000   0.348E-08

     Est. extremal eigenvalues     -0.93234     1.58248  converged:  T
     TRS4 it   1 1.00000000   0.829E+00       0.000       16.128   0.100E-07
     TRS4 it   2 1.00000000   0.583E+00       0.001       32.256   0.100E-07
     TRS4 it   3 1.00000000   0.387E+00       0.001       32.256   0.100E-07
     TRS4 it   4 1.00000000   0.185E+00       0.001       32.256   0.100E-07
     TRS4 it   5 1.00000000   0.523E-01       0.001       32.256   0.100E-07
     TRS4 it   6 1.00000000   0.495E-02       0.001       32.256   0.100E-07
     TRS4 it   7 1.00000000   0.547E-04       0.001       32.256   0.100E-07
     TRS4 it   8 1.00000000   0.937E-08       0.001       32.256   0.100E-07
     Final TRS4 iteration    8 1.00000000   0.937E-08
     Chemical potential (mu):       0.01267
 
 PAO| energy:  -7.8049362865486440      penalty:   8.5946677866841408E-006
 PAO|LS| adapt:  T T F
[...]

     Lanczos converged:  T threshold:   0.100E-02
     Est. extremal eigenvalues:    0.251E+01   0.215E+00
     Est. condition number :    0.117E+02
     NS sqrt iter    1 1.00000000   0.641E+00       0.001       64.512
     NS sqrt iter    2 1.00000000   0.277E+00       0.001      110.592
     NS sqrt iter    3 1.00000000   0.461E-01       0.001      110.592
     NS sqrt iter    4 1.00000000   0.448E-03       0.001      110.592
     NS sqrt iter    5 1.00000000   0.570E-09       0.001       36.864
     Final NS sqrt iter    5 1.00000000   0.414E-10

     Est. extremal eigenvalues     -0.93224     1.45683  converged:  T
     TRS4 it   1 1.00000000   0.809E+00       0.001       16.128   0.100E-07
     TRS4 it   2 1.00000000   0.584E+00       0.001       32.256   0.100E-07
     TRS4 it   3 1.00000000   0.412E+00       0.001       32.256   0.100E-07
     TRS4 it   4 1.00000000   0.242E+00       0.001       32.256   0.100E-07
     TRS4 it   5 1.00000000   0.106E+00       0.001       32.256   0.100E-07
     TRS4 it   6 1.00000000   0.265E-01       0.001       32.256   0.100E-07
     TRS4 it   7 1.00000000   0.233E-02       0.001       32.256   0.100E-07
     TRS4 it   8 1.00000000   0.214E-04       0.001       32.256   0.100E-07
     TRS4 it   9 1.00000000   0.196E-08       0.001       32.256   0.100E-07
     Final TRS4 iteration    9 1.00000000   0.196E-08
     Chemical potential (mu):      -0.07656
 
 PAO| energy:  -7.8055363973282086      penalty:   4.2227114578701787E-011
 PAO|LS| Need extra step
 PAO|LS| adapt:  T T T
 PAO|LS| adapt: scan_steps:    0.0000000000000000       0.20000000000000001       0.40000000000000002     
 PAO|LS| adapt: energies:   -7.8055363973049765       -7.8055363973314993       -7.8055363973282086     
 PAO|LS| adapt: suggested step_size:   0.27792474751988566     
 PAO|LS| adapt: predicted energy  -7.8055363973337633     
 PAO| ======================= Iteration:       870 =============================

     Lanczos converged:  T threshold:   0.100E-02
     Est. extremal eigenvalues:    0.251E+01   0.215E+00
     Est. condition number :    0.117E+02
     NS sqrt iter    1 1.00000000   0.641E+00       0.001       64.512
     NS sqrt iter    2 1.00000000   0.277E+00       0.001       86.110
     NS sqrt iter    3 1.00000000   0.461E-01       0.001      100.499
     NS sqrt iter    4 1.00000000   0.448E-03       0.001      110.592
     NS sqrt iter    5 1.00000000   0.570E-09       0.001       36.864
     Final NS sqrt iter    5 1.00000000   0.414E-10

     Est. extremal eigenvalues     -0.93224     1.45683  converged:  T
     TRS4 it   1 1.00000000   0.809E+00       0.000       16.128   0.100E-07
     TRS4 it   2 1.00000000   0.584E+00       0.001       31.537   0.100E-07
     TRS4 it   3 1.00000000   0.412E+00       0.001       28.449   0.100E-07
     TRS4 it   4 1.00000000   0.242E+00       0.001       24.195   0.100E-07
     TRS4 it   5 1.00000000   0.106E+00       0.001       32.256   0.100E-07
     TRS4 it   6 1.00000000   0.265E-01       0.001       32.256   0.100E-07
     TRS4 it   7 1.00000000   0.233E-02       0.001       32.256   0.100E-07
     TRS4 it   8 1.00000000   0.214E-04       0.001       32.256   0.100E-07
     TRS4 it   9 1.00000000   0.196E-08       0.001       32.256   0.100E-07
     Final TRS4 iteration    9 1.00000000   0.196E-08
     Chemical potential (mu):      -0.07656
 
 PAO| energy:  -7.8055363973337588      penalty:   4.2487638682075097E-011
 PAO|CG| warming up with steepest descent
 PAO|CG| beta:    0.0000000000000000     
 PAO| norm of gradient:   7.3633395247685741E-006
 PAO| energy improvement:  -2.8782309868802258E-011
 PAO| step    870                   -7.805536397  0.460E-06  0.278E+00     0.072
 PAO| converged after          870  steps :-)
 PAO| Recalculating energy after mixing.

     Lanczos converged:  T threshold:   0.100E-02
     Est. extremal eigenvalues:    0.251E+01   0.215E+00
     Est. condition number :    0.117E+02
     NS sqrt iter    1 1.00000000   0.641E+00       0.001       64.512
     NS sqrt iter    2 1.00000000   0.277E+00       0.001       86.986
     NS sqrt iter    3 1.00000000   0.461E-01       0.001       95.621
     NS sqrt iter    4 1.00000000   0.448E-03       0.001      110.592
     NS sqrt iter    5 1.00000000   0.570E-09       0.001       36.864
     Final NS sqrt iter    5 1.00000000   0.414E-10

     Est. extremal eigenvalues     -0.93224     1.45683  converged:  T
     TRS4 it   1 1.00000000   0.809E+00       0.000       16.128   0.100E-07
     TRS4 it   2 1.00000000   0.584E+00       0.001       32.256   0.100E-07
     TRS4 it   3 1.00000000   0.412E+00       0.001       32.256   0.100E-07
     TRS4 it   4 1.00000000   0.242E+00       0.001       32.256   0.100E-07
     TRS4 it   5 1.00000000   0.106E+00       0.001       32.256   0.100E-07
     TRS4 it   6 1.00000000   0.265E-01       0.001       32.256   0.100E-07
     TRS4 it   7 1.00000000   0.233E-02       0.001       32.256   0.100E-07
     TRS4 it   8 1.00000000   0.214E-04       0.001       32.256   0.100E-07
     TRS4 it   9 1.00000000   0.196E-08       0.001       32.256   0.100E-07
     Final TRS4 iteration    9 1.00000000   0.196E-08
     Chemical potential (mu):      -0.07656
 
 PAO| energy:  -7.8055363973265699      penalty:   4.2785649216179534E-011
 PAO| Writing restart file.
     Est. extremal eigenvalues     -0.93224     1.45683  converged:  T
     TRS4 it   1 1.00000000   0.809E+00       0.000       16.128   0.100E-07
     TRS4 it   2 1.00000000   0.584E+00       0.001       32.256   0.100E-07
     TRS4 it   3 1.00000000   0.412E+00       0.001       32.256   0.100E-07
     TRS4 it   4 1.00000000   0.242E+00       0.001       32.256   0.100E-07
     TRS4 it   5 1.00000000   0.106E+00       0.001       32.256   0.100E-07
     TRS4 it   6 1.00000000   0.265E-01       0.001       32.256   0.100E-07
     TRS4 it   7 1.00000000   0.233E-02       0.001       32.256   0.100E-07
     TRS4 it   8 1.00000000   0.214E-04       0.001       32.256   0.100E-07
     TRS4 it   9 1.00000000   0.196E-08       0.001       32.256   0.100E-07
     Final TRS4 iteration    9 1.00000000   0.196E-08
     Chemical potential (mu):      -0.07656

 SCF     1       -34.446792228       -34.446792228    2.203970

*********************************************************
 Using MIXING_FRACTION=0.450 to mix KS matrix:  iscf=  2
 KS_nw=0.450*KS + 0.550*KS_old
*********************************************************
     Est. extremal eigenvalues     -0.93224     1.45683  converged:  T
     TRS4 it   1 1.00000000   0.809E+00       0.000       16.128   0.100E-07
     TRS4 it   2 1.00000000   0.584E+00       0.001       32.256   0.100E-07
     TRS4 it   3 1.00000000   0.412E+00       0.001       32.256   0.100E-07
     TRS4 it   4 1.00000000   0.242E+00       0.001       32.256   0.100E-07
     TRS4 it   5 1.00000000   0.106E+00       0.001       32.256   0.100E-07
     TRS4 it   6 1.00000000   0.265E-01       0.001       32.256   0.100E-07
     TRS4 it   7 1.00000000   0.233E-02       0.001       32.256   0.100E-07
     TRS4 it   8 1.00000000   0.214E-04       0.001       32.256   0.100E-07
     TRS4 it   9 1.00000000   0.196E-08       0.001       32.256   0.100E-07
     Final TRS4 iteration    9 1.00000000   0.196E-08
     Chemical potential (mu):      -0.07656

 SCF     2       -34.446792228         0.000000000    2.209423

 PAO| Storing density matrix for ASPC guess in slot:           1

 ENERGY| Total FORCE_EVAL ( QS ) energy (a.u.):              -34.446792228225547


 -------------------------------------------------------------------------------
 -                                                                             -
 -                                DBCSR STATISTICS                             -
 -                                                                             -
 -------------------------------------------------------------------------------
 COUNTER                                    TOTAL       BLAS       SMM       ACC
 flops     5 x     5 x     4                26000       0.0%    100.0%      0.0%
 flops    13 x     5 x     4                27040       0.0%    100.0%      0.0%
 flops     5 x    13 x     4                27040       0.0%    100.0%      0.0%
 flops    13 x    13 x     4                52728       0.0%    100.0%      0.0%
 flops     4 x     4 x     5              6789120       0.0%    100.0%      0.0%
 flops     5 x     4 x     5              8288000       0.0%    100.0%      0.0%
 flops     4 x     4 x    13              8825856       0.0%    100.0%      0.0%
 flops    13 x     4 x     5             10774400       0.0%    100.0%      0.0%
 flops     5 x     4 x    13             10774400       0.0%    100.0%      0.0%
 flops     5 x     4 x     4             12779840       0.0%    100.0%      0.0%
 flops    13 x     4 x    13             14006720       0.0%    100.0%      0.0%
 flops    13 x     4 x     4             16711136       0.0%    100.0%      0.0%
 flops     4 x     4 x     4            859726848       0.0%    100.0%      0.0%
 flops inhomo. stacks                           0       0.0%      0.0%      0.0%
 flops total                       948.809128E+06       0.0%    100.0%      0.0%
 flops max/rank                    948.809128E+06       0.0%    100.0%      0.0%
 matmuls inhomo. stacks                         0       0.0%      0.0%      0.0%
 matmuls total                            6993822       0.0%    100.0%      0.0%
 number of processed stacks                 55710       0.0%    100.0%      0.0%
 average stack size                                     0.0     125.5       0.0
 marketing flops                     1.548795E+09
 -------------------------------------------------------------------------------
 # multiplications                          46671
 max memory usage/rank             321.019904E+06
 # max total images/rank                        1
 # max 3D layers                                1
 # MPI messages exchanged                       0
 MPI messages size (bytes):
  total size                         0.000000E+00
  min size                           0.000000E+00
  max size                           0.000000E+00
  average size                       0.000000E+00
 MPI breakdown and total messages size (bytes):
             size <=      128                   0                        0
       128 < size <=     8192                   0                        0
      8192 < size <=    32768                   0                        0
     32768 < size <=   131072                   0                        0
    131072 < size <=  4194304                   0                        0
   4194304 < size <= 16777216                   0                        0
  16777216 < size                               0                        0
 -------------------------------------------------------------------------------

 MEMORY| Estimated peak process memory [MiB]                                 307

 -------------------------------------------------------------------------------
 -                                                                             -
 -                           R E F E R E N C E S                               -
 -                                                                             -
 -------------------------------------------------------------------------------
 
 CP2K version 7.0 (Development Version), the CP2K developers group (2018).
 CP2K is freely available from https://www.cp2k.org/ .

 Schuett, O; VandeVondele, J. 
 Journal of Chemical Theory and Computation, 14, (2018). 
 Machine Learning Adaptive Basis Sets for Efficient Large Scale Density Functional Theory Simulation.
 https://dx.doi.org/10.1021/acs.jctc.8b00378


 Schuett, Ole; Messmer, Peter; Hutter, Juerg; VandeVondele, Joost. 
 Electronic Structure Calculations on Graphics Processing Units, John Wiley & Sons, Ltd, 173-190 (2016). 
 GPU-Accelerated Sparse Matrix-Matrix Multiplication for Linear Scaling Density Functional Theory.
 https://dx.doi.org/10.1002/9781118670712.ch8


 Borstnik, U; VandeVondele, J; Weber, V; Hutter, J. 
 PARALLEL COMPUTING, 40 (5-6), 47-58 (2014). 
 Sparse matrix multiplication: The distributed block-compressed sparse
 row library.
 https://dx.doi.org/10.1016/j.parco.2014.03.012


 Hutter, J; Iannuzzi, M; Schiffmann, F; VandeVondele, J. 
 WILEY INTERDISCIPLINARY REVIEWS-COMPUTATIONAL MOLECULAR SCIENCE, 4 (1), 15-25 (2014). 
 CP2K: atomistic simulations of condensed matter systems.
 https://dx.doi.org/10.1002/wcms.1159


 VandeVondele, J; Borstnik, U; Hutter, J. 
 JOURNAL OF CHEMICAL THEORY AND COMPUTATION, 8 (10), 3565-3573 (2012). 
 Linear Scaling Self-Consistent Field Calculations with Millions of Atoms
 in the Condensed Phase.
 https://dx.doi.org/10.1021/ct200897x


 VandeVondele, J; Hutter, J. 
 JOURNAL OF CHEMICAL PHYSICS, 127 (11), 114105 (2007). 
 Gaussian basis sets for accurate calculations on molecular systems in
 gas and condensed phases.
 https://dx.doi.org/10.1063/1.2770708


 Krack, M. 
 THEORETICAL CHEMISTRY ACCOUNTS, 114 (1-3), 145-152 (2005). 
 Pseudopotentials for H to Kr optimized for gradient-corrected
 exchange-correlation functionals.
 https://dx.doi.org/10.1007/s00214-005-0655-y


 VandeVondele, J; Krack, M; Mohamed, F; Parrinello, M; Chassaing, T;
 Hutter, J. COMPUTER PHYSICS COMMUNICATIONS, 167 (2), 103-128 (2005). 
 QUICKSTEP: Fast and accurate density functional calculations using a
 mixed Gaussian and plane waves approach.
 https://dx.doi.org/10.1016/j.cpc.2004.12.014


 Frigo, M; Johnson, SG. 
 PROCEEDINGS OF THE IEEE, 93 (2), 216-231 (2005). 
 The design and implementation of FFTW3.
 https://dx.doi.org/10.1109/JPROC.2004.840301


 Niklasson, AMN; Tymczak, CJ; Challacombe, M. 
 JOURNAL OF CHEMICAL PHYSICS, 118 (19), 8611-8620 (2003). 
 Trace resetting density matrix purification in O(N)
 self-consistent-field theory.
 https://dx.doi.org/10.1063/1.1559913


 Hartwigsen, C; Goedecker, S; Hutter, J. 
 PHYSICAL REVIEW B, 58 (7), 3641-3662 (1998). 
 Relativistic separable dual-space Gaussian pseudopotentials from H to Rn.
 https://dx.doi.org/10.1103/PhysRevB.58.3641


 Lippert, G; Hutter, J; Parrinello, M. 
 MOLECULAR PHYSICS, 92 (3), 477-487 (1997). 
 A hybrid Gaussian and plane wave density functional scheme.
 https://dx.doi.org/10.1080/002689797170220


 Perdew, JP; Burke, K; Ernzerhof, M. 
 PHYSICAL REVIEW LETTERS, 77 (18), 3865-3868 (1996). 
 Generalized gradient approximation made simple.
 https://dx.doi.org/10.1103/PhysRevLett.77.3865


 Goedecker, S; Teter, M; Hutter, J. 
 PHYSICAL REVIEW B, 54 (3), 1703-1710 (1996). 
 Separable dual-space Gaussian pseudopotentials.
 https://dx.doi.org/10.1103/PhysRevB.54.1703


 -------------------------------------------------------------------------------
 -                                                                             -
 -                                T I M I N G                                  -
 -                                                                             -
 -------------------------------------------------------------------------------
 SUBROUTINE                       CALLS  ASD         SELF TIME        TOTAL TIME
                                MAXIMUM       AVERAGE  MAXIMUM  AVERAGE  MAXIMUM
 CP2K                                 1  1.0    0.029    0.029   45.053   45.053
 qs_energies                          1  2.0    0.000    0.000   44.632   44.632
 ls_scf                               1  3.0    0.000    0.000   44.516   44.516
 ls_scf_main                          6  4.0    0.001    0.001   26.341   26.341
 ls_scf_dm_to_ks                     12  5.0    0.000    0.000   26.234   26.234
 qs_ks_update_qs_env                 13  6.0    0.000    0.000   20.407   20.407
 rebuild_ks_matrix                   13  7.0    0.000    0.000   20.406   20.406
 qs_ks_build_kohn_sham_matrix        13  8.0    0.002    0.002   20.406   20.406
 pao_update                           6  4.0    0.023    0.023   15.849   15.849
 pao_calc_energy                    875  5.0    0.009    0.009   14.336   14.336
 qs_vxc_create                       13  9.0    0.000    0.000   11.794   11.794
 xc_vxc_pw_create                    13 10.0    0.229    0.229   11.793   11.793
 dbcsr_multiply_generic           46671  8.4    0.888    0.888   11.474   11.474
 xc_rho_set_and_dset_create          13 11.0    0.082    0.082    8.260    8.260
 qs_rho_update_rho                   13  6.0    0.000    0.000    8.075    8.075
 calculate_rho_elec                  13  7.0    6.335    6.335    8.075    8.075
 pw_transfer                        248 10.6    0.022    0.022    7.843    7.843
 fft_wrap_pw1pw2                    222 11.7    0.003    0.003    7.630    7.630
 pao_dm_trs4                        875  6.0    0.009    0.009    7.407    7.407
 fft_wrap_pw1pw2_200                144 12.8    0.759    0.759    7.299    7.299
 sum_up_and_integrate                13  9.0    0.045    0.045    7.153    7.153
 integrate_v_rspace                  13 10.0    6.166    6.166    7.107    7.107
 density_matrix_trs4                887  7.0    0.436    0.436    7.045    7.045
 ls_scf_init_matrix_S               881  7.0    0.009    0.009    6.878    6.878
 pao_rebuild_S                      875  6.0    0.007    0.007    6.839    6.839
 matrix_sqrt_Newton_Schulz          881  8.0    0.303    0.303    6.175    6.175
 xc_functional_eval                  13 12.0    0.000    0.000    5.278    5.278
 pbe_lda_eval                        13 13.0    5.278    5.278    5.278    5.278
 multiply_cannon                  46671  9.4    2.054    2.054    4.467    4.467
 make_m2s                         93342  9.4    0.301    0.301    4.184    4.184
 fft3d_s                            223 13.6    4.006    4.006    4.020    4.020
 make_images                      93342 10.4    1.094    1.094    3.712    3.712
 pao_guess_initial_P                  1  4.0    0.000    0.000    2.254    2.254
 pao_read_preopt_dm                   1  5.0    0.000    0.000    2.254    2.254
 arnoldi_extremal                  1768  8.5    0.011    0.011    1.923    1.923
 arnoldi_normal_ev                 1768  9.5    0.028    0.028    1.913    1.913
 density_rs2pw                       13  8.0    0.001    0.001    1.704    1.704
 pao_calc_AB                       1150  5.8    0.002    0.002    1.477    1.477
 pao_calc_AB_direct                1150  6.8    0.054    0.054    1.474    1.474
 pw_scatter_s                       117 14.2    1.464    1.464    1.464    1.464
 build_subspace                    1768 10.5    0.116    0.116    1.382    1.382
 pao_calc_grad_lnv_wrt_AB           274  7.0    0.016    0.016    1.358    1.358
 pw_gather_s                        105 13.1    1.351    1.351    1.351    1.351
 dbcsr_matrix_vector_mult         42312 11.5    0.221    0.221    1.220    1.220
 dbcsr_create_new                356976 10.7    0.683    0.683    1.219    1.219
 dbcsr_finalize                  110137  9.7    0.220    0.220    1.184    1.184
 pw_derive                           78 11.5    1.023    1.023    1.023    1.023
 potential_pw2rs                     13 11.0    0.005    0.005    0.939    0.939
 matrix_qs_to_ls                   1768  7.5    0.016    0.016    0.912    0.912
 -------------------------------------------------------------------------------

 The number of warnings for this run is : 0
 
 -------------------------------------------------------------------------------
  **** **** ******  **  PROGRAM ENDED AT                 2019-02-14 01:09:04.503
 ***** ** ***  *** **   PROGRAM RAN ON                                      otto
 **    ****   ******    PROGRAM RAN BY                                       ole
 ***** **    ** ** **   PROGRAM PROCESS ID                                  5970
  **** **  *******  **  PROGRAM STOPPED IN /home/ole/git/pao_ml_equivar/2H2O_MD/
                                           frame_0125
