 DBCSR| CPU Multiplication driver                                           XSMM (U)
 DBCSR| Multrec recursion limit                                              512 (U)
 DBCSR| Multiplication stack size                                           1000 (D)
 DBCSR| Maximum elements for images                                    UNLIMITED (U)
 DBCSR| Multiplicative factor virtual images                                   1 (U)
 DBCSR| Use multiplication densification                                       T (D)
 DBCSR| Multiplication size stacks                                             3 (U)
 DBCSR| Use memory pool for CPU allocation                                     F (U)
 DBCSR| OMP: Current number of threads                                         1
 DBCSR| OMP: Max number of threads                                             1
 DBCSR| Split modifier for TAS multiplication algorithm                  1.0E+00 (U)


  **** **** ******  **  PROGRAM STARTED AT               2023-02-01 10:47:55.378
 ***** ** ***  *** **   PROGRAM STARTED ON                                moritz
 **    ****   ******    PROGRAM STARTED BY                                   ole
 ***** **    ** ** **   PROGRAM PROCESS ID                                148680
  **** **  *******  **  PROGRAM STARTED IN /home/ole/git/pao_ml_equivar/2H2O_MD/
                                           frame_0125

 CP2K| version string:                 CP2K version 2023.1 (Development Version)
 CP2K| source code revision number:                                  git:03b4147
 CP2K| cp2kflags: omp libint fftw3 libxc quip xsmm spglib libvori libbqb libtorc
 CP2K|            h
 CP2K| is freely available from                            https://www.cp2k.org/
 CP2K| Program compiled at                           Mi 01 Feb 2023 10:36:52 CET
 CP2K| Program compiled on                                                moritz
 CP2K| Program compiled for                                                local
 CP2K| Data directory path                               /home/ole/git/cp2k/data
 CP2K| Input file name                                            2H2O_pao44.inp

 GLOBAL| Force Environment number                                              1
 GLOBAL| Basis set file name                                        BASIS_MOLOPT
 GLOBAL| Potential file name                                      GTH_POTENTIALS
 GLOBAL| MM Potential file name                                     MM_POTENTIAL
 GLOBAL| Coordinate file name                                         coords.xyz
 GLOBAL| Method name                                                        CP2K
 GLOBAL| Project name                                                 2H2O_pao44
 GLOBAL| Run type                                                         ENERGY
 GLOBAL| FFT library                                                       FFTW3
 GLOBAL| Diagonalization library                                       ScaLAPACK
 GLOBAL| DGEMM library                                                      BLAS
 GLOBAL| Orthonormality check for eigenvectors                          DISABLED
 GLOBAL| Matrix multiplication library                                 ScaLAPACK
 GLOBAL| All-to-all communication in single precision                          F
 GLOBAL| FFTs using library dependent lengths                                  F
 GLOBAL| Grid backend                                                       AUTO
 GLOBAL| Global print level                                                  LOW
 GLOBAL| MPI I/O enabled                                                       T
 GLOBAL| Total number of message passing processes                             1
 GLOBAL| Number of threads for this process                                    1
 GLOBAL| This output is from process                                           0
 GLOBAL| Stack size for threads created by OpenMP (OMP_STACKSIZE)        default
 GLOBAL| CPU model name           AMD Ryzen Threadripper 3970X 32-Core Processor
 GLOBAL| CPUID                                                              1002
 GLOBAL| Compiled for CPUID                                                    0

 *** HINT in environment.F:884 :: The compiler target flags (generic) used ***
 *** to build this binary cannot exploit all extensions of this CPU model  ***
 *** (x86_avx2). Consider compiler target flags as part of FCFLAGS and     ***
 *** CFLAGS (ARCH file).                                                   ***


 MEMORY| system memory details [Kb]
 MEMORY|                        rank 0           min           max       average
 MEMORY| MemTotal            131773860     131773860     131773860     131773860
 MEMORY| MemFree             112995192     112995192     112995192     112995192
 MEMORY| Buffers                302624        302624        302624        302624
 MEMORY| Cached                7056636       7056636       7056636       7056636
 MEMORY| Slab                   780228        780228        780228        780228
 MEMORY| SReclaimable           332704        332704        332704        332704
 MEMORY| MemLikelyFree       120687156     120687156     120687156     120687156


 GENERATE|  Preliminary Number of Bonds generated:                             0
 GENERATE|  Achieved consistency in connectivity generation.

 *******************************************************************************
 *******************************************************************************
 **                                                                           **
 **     #####                         ##              ##                      **
 **    ##   ##            ##          ##              ##                      **
 **   ##     ##                       ##            ######                    **
 **   ##     ##  ##   ##  ##   #####  ##  ##   ####   ##    #####    #####    **
 **   ##     ##  ##   ##  ##  ##      ## ##   ##      ##   ##   ##  ##   ##   **
 **   ##  ## ##  ##   ##  ##  ##      ####     ###    ##   ######   ######    **
 **    ##  ###   ##   ##  ##  ##      ## ##      ##   ##   ##       ##        **
 **     #######   #####   ##   #####  ##  ##  ####    ##    #####   ##        **
 **           ##                                                    ##        **
 **                                                                           **
 **                                                ... make the atoms dance   **
 **                                                                           **
 **            Copyright (C) by CP2K developers group (2000-2023)             **
 **                      J. Chem. Phys. 152, 194103 (2020)                    **
 **                                                                           **
 *******************************************************************************


 TOTAL NUMBERS AND MAXIMUM NUMBERS

  Total number of            - Atomic kinds:                                   2
                             - Atoms:                                          6
                             - Shell sets:                                     6
                             - Shells:                                        22
                             - Primitive Cartesian functions:                 42
                             - Cartesian basis functions:                     48
                             - Spherical basis functions:                     46

  Maximum angular momentum of- Orbital basis functions:                        2
                             - Local part of the GTH pseudopotential:          2
                             - Non-local part of the GTH pseudopotential:      0

 ------------------------------ Linear scaling SCF -----------------------------
 eps_scf:                                                              0.100E-07
 eps_filter:                                                           0.100E-07
 mixing_fraction:                                                      0.450E+00
 max_scf:                                                                     25
 fixed chemical potential (mu)                                                 F
 has unit metric:                                                              F
 Computing inv(S):                                                             T
 Computing sqrt(S):                                                            T
 Computing S preconditioner                                                    F
 S sqrt method:                                                     NEWTONSCHULZ
 S sqrt order:                                                                 3
 Extrapolation order:                                                          1
 Use single precision matrices                                                 F
 S preconditioner type                                                      NONE
 Polarized Atomic Orbitals (PAO)                                               T
 Purification method                                   Trace resetting 4th order
 Cluster type                                                             ATOMIC
 Computing Chebyshev                                                       FALSE
 Using PAO                                                                     T
 -------------------------------------------------------------------------------

 
 PAO|                                  EPS_PAO                           0.5E-06
 PAO|                                  MIXING                            0.5E+00
 PAO|                                  MAX_PAO                              1500
 PAO|                                  MAX_CYCLES                           1000
 PAO|                                  PARAMETERIZATION              EQUIVARIANT
 PAO|                                  PRECONDITION                            F
 PAO|                                  REGULARIZATION                    0.0E+00
 PAO|                                  EPS_PGF                           0.1E-09
 PAO|                                  PENALTY_DISTANCE                  0.1E+00
 PAO|                                  PENALTY_STRENGTH                  0.5E-02
 PAO|                                  LINPOT_PRECONDITION_DELTA         0.0E+00
 PAO|                                  LINPOT_INITGUESS_DELT             0.0E+00
 PAO|                                  LINPOT_REGULARIZATION_DELTA       0.0E+00
 PAO|                                  LINPOT_REGULARIZATION_STRENGTH    0.0E+00
 PAO|                                  OPTIMIZER                              CG
 PAO|                                  CG_INIT_STEPS                           2
 PAO|                                  CG_RESET_LIMIT                    0.1E+00
 PAO|                                  CHECK_UNITARY_TOL                -0.1E+01
 PAO|                                  CHECK_GRADIENT_TOL               -0.1E+01
 PAO|                                  NUM_GRADIENT_ORDER                      2
 PAO|                                  NUM_GRADIENT_EPS                  0.1E-07
 PAO|                                  PRINT%RESTART%WRITE_CYCLES            100
 PAO|                                  RESTART_FILE 
 PAO|                                  PREOPT_DM_FILE 2H2O_ref_LS_DM_SPIN_1_RESTART.dm
 PAO|                                  MACHINE_LEARNING%METHOD       GAUSSIAN_PR
 PAO|                                  MACHINE_LEARNING%PRIOR               ZERO
 PAO|                                  MACHINE_LEARNING%DESCRIPTOR     POTENTIAL
 PAO|                                  MACHINE_LEARNING%TOLERANCE        0.1E-01
 PAO|                                  MACHINE_LEARNING%GP_NOISE_VAR     0.1E+00
 PAO|                                  MACHINE_LEARNING%GP_SCALE         0.5E-01
 

 Calculating atomic Fock matrix for atomic kind: O

 Electronic structure
    Total number of core electrons                                          2.00
    Total number of valence electrons                                       6.00
    Total number of electrons                                               8.00
    Multiplicity                                                   not specified
    S   [  2.00] 2.00
    P      4.00


 *******************************************************************************
                  Iteration          Convergence                     Energy [au]
 *******************************************************************************
                          1        0.708315                     -15.576645311500
                          2        0.608879                     -15.587933561584
                          3        0.102828E-01                 -15.656849565404
                          4        0.113889E-02                 -15.656866888140
                          5        0.434197E-03                 -15.656867072159
                          6        0.263771E-03                 -15.656867091904
                          7        0.478536E-06                 -15.656867103452

 Energy components [Hartree]           Total Energy ::          -15.656867103452
                                        Band Energy ::           -3.000198112285
                                     Kinetic Energy ::           11.759971203220
                                   Potential Energy ::          -27.416838306672
                                      Virial (-V/T) ::            2.331369510426
                                        Core Energy ::          -26.140716385623
                                          XC Energy ::           -3.154051012914
                                     Coulomb Energy ::           13.637900295084
                       Total Pseudopotential Energy ::          -37.935781716540
                       Local Pseudopotential Energy ::          -39.218907440693
                    Nonlocal Pseudopotential Energy ::            1.283125724153
                                        Confinement ::            0.350941276976

 Orbital energies  State     L     Occupation   Energy[a.u.]          Energy[eV]

                       1     0          2.000      -0.864471          -23.523463

                       1     1          4.000      -0.317814           -8.648154


 Total Electron Density at R=0:                                         0.000068

 Calculating atomic Fock matrix for atomic kind: H

 Electronic structure
    Total number of core electrons                                          0.00
    Total number of valence electrons                                       1.00
    Total number of electrons                                               1.00
    Multiplicity                                                   not specified
    S      1.00


 *******************************************************************************
                  Iteration          Convergence                     Energy [au]
 *******************************************************************************
                          1        0.437545E-02                  -0.424159432110
                          2        0.531356E-03                  -0.424178438213
                          3        0.259176E-06                  -0.424178722480

 Energy components [Hartree]           Total Energy ::           -0.424178722480
                                        Band Energy ::           -0.199015229016
                                     Kinetic Energy ::            0.464007633961
                                   Potential Energy ::           -0.888186356441
                                      Virial (-V/T) ::            1.914163240935
                                        Core Energy ::           -0.479160803564
                                          XC Energy ::           -0.244352904054
                                     Coulomb Energy ::            0.299334985138
                       Total Pseudopotential Energy ::           -0.962295316385
                       Local Pseudopotential Energy ::           -0.962295316385
                    Nonlocal Pseudopotential Energy ::            0.000000000000
                                        Confinement ::            0.191268788606

 Orbital energies  State     L     Occupation   Energy[a.u.]          Energy[eV]

                       1     0          1.000      -0.199015           -5.415480


 Total Electron Density at R=0:                                         0.242907
 PAO| Made initial guess for matrix_X with norm:   4.8989794855663558     

     Lanczos converged:  T threshold:   0.100E-02
     Est. extremal eigenvalues:    0.331E+01   0.114E+00
     Est. condition number :    0.291E+02

 Order=           3
     NS sqrt iter    1 1.00000000   0.811E+00       0.001       61.582
     NS sqrt iter    2 1.00000000   0.438E+00       0.001      107.080
     NS sqrt iter    3 1.00000000   0.169E+00       0.001      109.097
     NS sqrt iter    4 1.00000000   0.200E-01       0.001      109.240
     NS sqrt iter    5 1.00000000   0.495E-04       0.001       88.116
     Symmetrizing Results
     Final NS sqrt iter    5 1.00000000   0.484E-08

 PAO| Read restart DM 2H2O_ref_LS_DM_SPIN_1_RESTART.dm with checksum:    57.623758370912626     
 PAO| Quickstep energy from restart density:  -34.447149527818588     
 PAO| ======================= Iteration:         1 =============================

     Lanczos converged:  T threshold:   0.100E-02
     Est. extremal eigenvalues:    0.331E+01   0.114E+00
     Est. condition number :    0.291E+02

 Order=           3
     NS sqrt iter    1 1.00000000   0.811E+00       0.001       64.512
     NS sqrt iter    2 1.00000000   0.438E+00       0.001      110.592
     NS sqrt iter    3 1.00000000   0.169E+00       0.001      110.020
     NS sqrt iter    4 1.00000000   0.200E-01       0.017        6.448
     NS sqrt iter    5 1.00000000   0.495E-04       0.001       78.386
     Symmetrizing Results
     Final NS sqrt iter    5 1.00000000   0.484E-08

     Est. extremal eigenvalues     -0.91480     1.76456  converged:  T
     TRS4 it   1 1.00000000   0.847E+00       0.000       16.128   0.100E-07
     TRS4 it   2 1.00000000   0.661E+00       0.001       32.256   0.100E-07
     TRS4 it   3 1.00000000   0.483E+00       0.001       32.256   0.100E-07
     TRS4 it   4 1.00000000   0.299E+00       0.001       32.256   0.100E-07
     TRS4 it   5 1.00000000   0.143E+00       0.001       32.256   0.100E-07
     TRS4 it   6 1.00000000   0.404E-01       0.001       32.256   0.100E-07
     TRS4 it   7 1.00000000   0.442E-02       0.001       32.256   0.100E-07
     TRS4 it   8 1.00000000   0.717E-04       0.001       32.256   0.100E-07
     TRS4 it   9 1.00000000   0.216E-07       0.001       32.256   0.100E-07
     Final TRS4 iteration    9 1.00000000   0.216E-07
     Chemical potential (mu):      -0.06628
 
 PAO| energy:  -7.6263248597697064      penalty:   9.2444637330587335E-033
 PAO|CG| warming up with steepest descent
 PAO|CG| beta:    0.0000000000000000     
 PAO| norm of gradient:  0.78542496947449381     
 PAO|LS| adapt:  T F F
 PAO|LS| adapt: scan_steps:    0.0000000000000000        0.0000000000000000        0.0000000000000000     
 PAO|LS| adapt: energies:   -7.6263248597697064        0.0000000000000000        0.0000000000000000     
 PAO| ======================= Iteration:         2 =============================

     Lanczos converged:  T threshold:   0.100E-02
     Est. extremal eigenvalues:    0.323E+01   0.129E+00
     Est. condition number :    0.251E+02

 Order=           3
     NS sqrt iter    1 1.00000000   0.796E+00       0.001       57.574
     NS sqrt iter    2 1.00000000   0.423E+00       0.001       97.637
     NS sqrt iter    3 1.00000000   0.151E+00       0.001       98.157
     NS sqrt iter    4 1.00000000   0.136E-01       0.001       99.124
     NS sqrt iter    5 1.00000000   0.142E-04       0.001       74.544
     Symmetrizing Results
     Final NS sqrt iter    5 1.00000000   0.316E-09

     Est. extremal eigenvalues     -0.91851     1.70207  converged:  T
     TRS4 it   1 1.00000000   0.838E+00       0.000       16.128   0.100E-07
     TRS4 it   2 1.00000000   0.639E+00       0.001       32.256   0.100E-07
     TRS4 it   3 1.00000000   0.462E+00       0.001       32.256   0.100E-07
     TRS4 it   4 1.00000000   0.274E+00       0.001       32.256   0.100E-07
     TRS4 it   5 1.00000000   0.120E+00       0.001       32.256   0.100E-07
     TRS4 it   6 1.00000000   0.289E-01       0.001       32.256   0.100E-07
     TRS4 it   7 1.00000000   0.229E-02       0.017        1.925   0.100E-07
     TRS4 it   8 1.00000000   0.195E-04       0.001       32.256   0.100E-07
     TRS4 it   9 1.00000000   0.161E-08       0.001       32.256   0.100E-07
     Final TRS4 iteration    9 1.00000000   0.161E-08
     Chemical potential (mu):      -0.05395
 
 PAO| energy:  -7.6819726003296669      penalty:   2.2539884350364265E-008
 PAO|LS| adapt:  T T F
 PAO|LS| adapt: scan_steps:    0.0000000000000000       0.10000000000000001        0.0000000000000000     
 PAO|LS| adapt: energies:   -7.6263248597697064       -7.6819726003296669        0.0000000000000000     
 PAO| ======================= Iteration:         3 =============================

     Lanczos converged:  T threshold:   0.100E-02
     Est. extremal eigenvalues:    0.314E+01   0.143E+00
     Est. condition number :    0.220E+02

 Order=           3
     NS sqrt iter    1 1.00000000   0.780E+00       0.001       58.808
     NS sqrt iter    2 1.00000000   0.407E+00       0.001       98.156
     NS sqrt iter    3 1.00000000   0.134E+00       0.001       97.246
     NS sqrt iter    4 1.00000000   0.919E-02       0.001       97.827
     NS sqrt iter    5 1.00000000   0.408E-05       0.001       75.724
     Symmetrizing Results
     Final NS sqrt iter    5 1.00000000   0.255E-10

     Est. extremal eigenvalues     -0.92195     1.65371  converged:  T
     TRS4 it   1 1.00000000   0.831E+00       0.000       16.128   0.100E-07
     TRS4 it   2 1.00000000   0.621E+00       0.001       32.256   0.100E-07
     TRS4 it   3 1.00000000   0.441E+00       0.001       32.256   0.100E-07
     TRS4 it   4 1.00000000   0.250E+00       0.017        1.924   0.100E-07
     TRS4 it   5 1.00000000   0.100E+00       0.001       32.256   0.100E-07
     TRS4 it   6 1.00000000   0.199E-01       0.001       32.256   0.100E-07
     TRS4 it   7 1.00000000   0.107E-02       0.001       32.256   0.100E-07
     TRS4 it   8 1.00000000   0.429E-05       0.001       32.256   0.100E-07
     TRS4 it   9 1.00000000   0.791E-10       0.001       32.256   0.100E-07
     Final TRS4 iteration    9 1.00000000   0.791E-10
     Chemical potential (mu):      -0.04040
 
 PAO| energy:  -7.7249413427783429      penalty:   3.6063794645872694E-007
 PAO|LS| adapt:  T T F
 PAO|LS| adapt: scan_steps:    0.0000000000000000       0.20000000000000001        0.0000000000000000     
 PAO|LS| adapt: energies:   -7.6263248597697064       -7.7249413427783429        0.0000000000000000     
 PAO| ======================= Iteration:         4 =============================

     Lanczos converged:  T threshold:   0.100E-02
     Est. extremal eigenvalues:    0.296E+01   0.165E+00
     Est. condition number :    0.180E+02

 Order=           3
     NS sqrt iter    1 1.00000000   0.746E+00       0.001       58.131
     NS sqrt iter    2 1.00000000   0.374E+00       0.001       97.794
     NS sqrt iter    3 1.00000000   0.105E+00       0.001       98.224
     NS sqrt iter    4 1.00000000   0.438E-02       0.001       98.660
     NS sqrt iter    5 1.00000000   0.458E-06       0.001       74.897
     Symmetrizing Results
     Final NS sqrt iter    5 1.00000000   0.240E-09

     Est. extremal eigenvalues     -0.92723     1.59276  converged:  T
     TRS4 it   1 1.00000000   0.824E+00       0.000       16.128   0.100E-07
     TRS4 it   2 1.00000000   0.593E+00       0.001       32.256   0.100E-07
     TRS4 it   3 1.00000000   0.405E+00       0.001       32.256   0.100E-07
     TRS4 it   4 1.00000000   0.207E+00       0.001       32.256   0.100E-07
     TRS4 it   5 1.00000000   0.677E-01       0.001       32.256   0.100E-07
     TRS4 it   6 1.00000000   0.870E-02       0.001       32.256   0.100E-07
     TRS4 it   7 1.00000000   0.190E-03       0.001       32.256   0.100E-07
     TRS4 it   8 1.00000000   0.132E-06       0.001       32.256   0.100E-07
     TRS4 it   9 1.00000000   0.763E-13       0.001       32.256   0.100E-07
     Final TRS4 iteration    9 1.00000000   0.763E-13
     Chemical potential (mu):      -0.01058
 
 PAO| energy:  -7.7714408896475522      penalty:   5.7702055181689781E-006
 PAO|LS| Need extra step
 PAO|LS| adapt:  T T F
 PAO|LS| adapt: scan_steps:    0.0000000000000000       0.40000000000000002        0.0000000000000000     
 PAO|LS| adapt: energies:   -7.6263248597697064       -7.7714408896475522        0.0000000000000000     
 PAO| ======================= Iteration:         5 =============================

     Lanczos converged:  T threshold:   0.100E-02
     Est. extremal eigenvalues:    0.261E+01   0.189E+00
     Est. condition number :    0.138E+02

 Order=           3
     NS sqrt iter    1 1.00000000   0.685E+00       0.001       58.433
     NS sqrt iter    2 1.00000000   0.312E+00       0.001       98.230
     NS sqrt iter    3 1.00000000   0.641E-01       0.001       98.788
     NS sqrt iter    4 1.00000000   0.118E-02       0.001       97.517
     NS sqrt iter    5 1.00000000   0.125E-07       0.001       44.453
     Symmetrizing Results
     Final NS sqrt iter    5 1.00000000   0.542E-08

     Est. extremal eigenvalues     -0.92827     1.55622  converged:  T
     TRS4 it   1 1.00000000   0.827E+00       0.000       16.128   0.100E-07
     TRS4 it   2 1.00000000   0.564E+00       0.001       32.256   0.100E-07
     TRS4 it   3 1.00000000   0.357E+00       0.001       32.256   0.100E-07
     TRS4 it   4 1.00000000   0.154E+00       0.001       32.256   0.100E-07
     TRS4 it   5 1.00000000   0.346E-01       0.001       32.256   0.100E-07
     TRS4 it   6 1.00000000   0.204E-02       0.001       32.256   0.100E-07
     TRS4 it   7 1.00000000   0.888E-05       0.001       32.256   0.100E-07
     TRS4 it   8 1.00000000   0.237E-09       0.001       32.256   0.100E-07
     Final TRS4 iteration    8 1.00000000   0.237E-09
     Chemical potential (mu):       0.03634
 
 PAO| energy:  -7.7132602687352794      penalty:   9.2323275289360430E-005
 PAO|LS| Need extra step
 PAO|LS| adapt:  T T T
 PAO|LS| adapt: scan_steps:    0.0000000000000000       0.40000000000000002       0.80000000000000004     
 PAO|LS| adapt: energies:   -7.6263248597697064       -7.7714408896475522       -7.7132602687352794     
 PAO|LS| adapt: suggested step_size:   0.48552566766613808     
 PAO|LS| adapt: predicted energy  -7.7760878952073078     
 PAO| ======================= Iteration:         6 =============================

     Lanczos converged:  T threshold:   0.100E-02
     Est. extremal eigenvalues:    0.288E+01   0.171E+00
     Est. condition number :    0.169E+02

 Order=           3
     NS sqrt iter    1 1.00000000   0.732E+00       0.001       57.965
     NS sqrt iter    2 1.00000000   0.360E+00       0.001       97.621
     NS sqrt iter    3 1.00000000   0.939E-01       0.001       96.980
     NS sqrt iter    4 1.00000000   0.325E-02       0.001       97.421
     NS sqrt iter    5 1.00000000   0.208E-06       0.001       73.287
     Symmetrizing Results
     Final NS sqrt iter    5 1.00000000   0.975E-09

     Est. extremal eigenvalues     -0.92862     1.57813  converged:  T
     TRS4 it   1 1.00000000   0.823E+00       0.000       16.128   0.100E-07
     TRS4 it   2 1.00000000   0.584E+00       0.001       32.256   0.100E-07
     TRS4 it   3 1.00000000   0.392E+00       0.001       32.256   0.100E-07
     TRS4 it   4 1.00000000   0.193E+00       0.001       32.256   0.100E-07
     TRS4 it   5 1.00000000   0.575E-01       0.001       32.256   0.100E-07
     TRS4 it   6 1.00000000   0.610E-02       0.001       32.256   0.100E-07
     TRS4 it   7 1.00000000   0.882E-04       0.001       32.256   0.100E-07
     TRS4 it   8 1.00000000   0.268E-07       0.001       32.256   0.100E-07
     Final TRS4 iteration    8 1.00000000   0.268E-07
     Chemical potential (mu):       0.00258
 
 PAO| energy:  -7.7753962336111595      penalty:   1.2525644210925913E-005
 PAO|CG| warming up with steepest descent
 PAO|CG| beta:    0.0000000000000000     
 PAO| norm of gradient:  0.42569265475945600     
 PAO| energy improvement: -0.14907137384145308     
 PAO| step      6                   -7.775396234  0.266E-01  0.486E+00     0.125
 PAO|LS| adapt:  T F F
 PAO|LS| adapt: scan_steps:    0.0000000000000000        0.0000000000000000        0.0000000000000000     
 PAO|LS| adapt: energies:   -7.7753962336111595        0.0000000000000000        0.0000000000000000     
 PAO| ======================= Iteration:         7 =============================

     Lanczos converged:  T threshold:   0.100E-02
     Est. extremal eigenvalues:    0.279E+01   0.186E+00
     Est. condition number :    0.150E+02

 Order=           3
     NS sqrt iter    1 1.00000000   0.715E+00       0.001       58.692
     NS sqrt iter    2 1.00000000   0.339E+00       0.001       97.017
     NS sqrt iter    3 1.00000000   0.780E-01       0.001       98.002
     NS sqrt iter    4 1.00000000   0.192E-02       0.001       97.138
     NS sqrt iter    5 1.00000000   0.468E-07       0.001       63.456
     Symmetrizing Results
     Final NS sqrt iter    5 1.00000000   0.222E-08

     Est. extremal eigenvalues     -0.93046     1.57749  converged:  T
     TRS4 it   1 1.00000000   0.826E+00       0.000       16.128   0.100E-07
     TRS4 it   2 1.00000000   0.585E+00       0.001       32.256   0.100E-07
     TRS4 it   3 1.00000000   0.394E+00       0.001       32.256   0.100E-07
     TRS4 it   4 1.00000000   0.196E+00       0.001       32.256   0.100E-07
     TRS4 it   5 1.00000000   0.591E-01       0.001       32.256   0.100E-07
     TRS4 it   6 1.00000000   0.629E-02       0.001       32.256   0.100E-07
     TRS4 it   7 1.00000000   0.886E-04       0.001       32.256   0.100E-07
     TRS4 it   8 1.00000000   0.251E-07       0.001       32.256   0.100E-07
     Final TRS4 iteration    8 1.00000000   0.251E-07
     Chemical potential (mu):       0.00347
 
 PAO| energy:  -7.7705615707281472      penalty:   1.9325021691703649E-005
 PAO|LS| adapt:  T F T
 PAO|LS| adapt: scan_steps:    0.0000000000000000        0.0000000000000000       0.48552566766613808     
 PAO|LS| adapt: energies:   -7.7753962336111595        0.0000000000000000       -7.7705615707281472     
 PAO| ======================= Iteration:         8 =============================

     Lanczos converged:  T threshold:   0.100E-02
     Est. extremal eigenvalues:    0.284E+01   0.178E+00
     Est. condition number :    0.159E+02

 Order=           3
     NS sqrt iter    1 1.00000000   0.723E+00       0.001       57.833
     NS sqrt iter    2 1.00000000   0.349E+00       0.001       97.120
     NS sqrt iter    3 1.00000000   0.858E-01       0.001       94.752
     NS sqrt iter    4 1.00000000   0.251E-02       0.001       99.489
     NS sqrt iter    5 1.00000000   0.101E-06       0.001       70.958
     Symmetrizing Results
     Final NS sqrt iter    5 1.00000000   0.692E-09

     Est. extremal eigenvalues     -0.93051     1.57728  converged:  T
     TRS4 it   1 1.00000000   0.824E+00       0.000       16.128   0.100E-07
     TRS4 it   2 1.00000000   0.585E+00       0.001       32.256   0.100E-07
     TRS4 it   3 1.00000000   0.392E+00       0.001       32.256   0.100E-07
     TRS4 it   4 1.00000000   0.194E+00       0.001       32.256   0.100E-07
     TRS4 it   5 1.00000000   0.583E-01       0.001       32.256   0.100E-07
     TRS4 it   6 1.00000000   0.627E-02       0.001       32.256   0.100E-07
     TRS4 it   7 1.00000000   0.916E-04       0.001       32.256   0.100E-07
     TRS4 it   8 1.00000000   0.280E-07       0.001       32.256   0.100E-07
     Final TRS4 iteration    8 1.00000000   0.280E-07
     Chemical potential (mu):       0.00258
 
 PAO| energy:  -7.7959356971135492      penalty:   1.3657773546947634E-005
 PAO|LS| adapt:  T T T
 PAO|LS| adapt: scan_steps:    0.0000000000000000       0.24276283383306904       0.48552566766613808     
 PAO|LS| adapt: energies:   -7.7753962336111595       -7.7959356971135492       -7.7705615707281472     
 PAO|LS| adapt: suggested step_size:   0.22998147144149864     
 PAO|LS| adapt: predicted energy  -7.7959993328618351     
 PAO| ======================= Iteration:         9 =============================

     Lanczos converged:  T threshold:   0.100E-02
     Est. extremal eigenvalues:    0.284E+01   0.178E+00
     Est. condition number :    0.160E+02

 Order=           3
     NS sqrt iter    1 1.00000000   0.724E+00       0.001       58.217
     NS sqrt iter    2 1.00000000   0.350E+00       0.001       96.789
     NS sqrt iter    3 1.00000000   0.862E-01       0.001       98.333
     NS sqrt iter    4 1.00000000   0.255E-02       0.001       97.868
     NS sqrt iter    5 1.00000000   0.105E-06       0.001       70.680
     Symmetrizing Results
     Final NS sqrt iter    5 1.00000000   0.734E-09

     Est. extremal eigenvalues     -0.93046     1.57730  converged:  T
     TRS4 it   1 1.00000000   0.824E+00       0.000       16.128   0.100E-07
     TRS4 it   2 1.00000000   0.585E+00       0.001       32.256   0.100E-07
     TRS4 it   3 1.00000000   0.392E+00       0.001       32.256   0.100E-07
     TRS4 it   4 1.00000000   0.194E+00       0.001       32.256   0.100E-07
     TRS4 it   5 1.00000000   0.582E-01       0.001       32.256   0.100E-07
     TRS4 it   6 1.00000000   0.626E-02       0.001       32.256   0.100E-07
     TRS4 it   7 1.00000000   0.915E-04       0.001       32.256   0.100E-07
     TRS4 it   8 1.00000000   0.280E-07       0.001       32.256   0.100E-07
     Final TRS4 iteration    8 1.00000000   0.280E-07
     Chemical potential (mu):       0.00256
 
 PAO| energy:  -7.7960190752113272      penalty:   1.3515919221088436E-005
 PAO|CG| trace_G_new    4.0855786489118431E-002
 PAO|CG| trace_G_prev   0.18121423631615341     
 PAO|CG| trace_G_mix   -1.5079990242121998E-003
 PAO|CG| trace_D   0.18121423631615341     
 PAO|CG| trace_D_Gnew   1.5079990242121998E-003
 PAO|CG| beta:   0.23377735863655391     
 PAO| norm of gradient:  0.20212814373342083     
 PAO| energy improvement:  -2.0622841600167696E-002
 PAO| step      9                   -7.796019075  0.126E-01  0.230E+00     0.057
 PAO|LS| adapt:  T F F
 PAO|LS| adapt: scan_steps:    0.0000000000000000        0.0000000000000000        0.0000000000000000     
 PAO|LS| adapt: energies:   -7.7960190752113272        0.0000000000000000        0.0000000000000000     
 PAO| ======================= Iteration:        10 =============================

     Lanczos converged:  T threshold:   0.100E-02
     Est. extremal eigenvalues:    0.280E+01   0.183E+00
     Est. condition number :    0.153E+02

 Order=           3
     NS sqrt iter    1 1.00000000   0.716E+00       0.001       58.615
     NS sqrt iter    2 1.00000000   0.341E+00       0.001       97.988
     NS sqrt iter    3 1.00000000   0.803E-01       0.001       98.481
     NS sqrt iter    4 1.00000000   0.207E-02       0.017        6.429
     NS sqrt iter    5 1.00000000   0.576E-07       0.001       65.990
     Symmetrizing Results
     Final NS sqrt iter    5 1.00000000   0.438E-09

     Est. extremal eigenvalues     -0.93152     1.58157  converged:  T
     TRS4 it   1 1.00000000   0.826E+00       0.000       16.128   0.100E-07
     TRS4 it   2 1.00000000   0.585E+00       0.001       32.256   0.100E-07
     TRS4 it   3 1.00000000   0.392E+00       0.001       32.256   0.100E-07
     TRS4 it   4 1.00000000   0.193E+00       0.001       32.256   0.100E-07
     TRS4 it   5 1.00000000   0.572E-01       0.001       32.256   0.100E-07
     TRS4 it   6 1.00000000   0.599E-02       0.001       32.256   0.100E-07
     TRS4 it   7 1.00000000   0.819E-04       0.001       32.256   0.100E-07
     TRS4 it   8 1.00000000   0.216E-07       0.001       32.256   0.100E-07
     Final TRS4 iteration    8 1.00000000   0.216E-07
     Chemical potential (mu):       0.00548
 
 PAO| energy:  -7.8016378223801564      penalty:   1.4165951913979291E-005
 PAO|LS| adapt:  T T F
 PAO|LS| adapt: scan_steps:    0.0000000000000000       0.22998147144149864        0.0000000000000000     
 PAO|LS| adapt: energies:   -7.7960190752113272       -7.8016378223801564        0.0000000000000000     
 PAO| ======================= Iteration:        11 =============================

     Lanczos converged:  T threshold:   0.100E-02
     Est. extremal eigenvalues:    0.276E+01   0.189E+00
     Est. condition number :    0.146E+02

 Order=           3
     NS sqrt iter    1 1.00000000   0.707E+00       0.001       58.903
     NS sqrt iter    2 1.00000000   0.332E+00       0.001       98.324
     NS sqrt iter    3 1.00000000   0.745E-01       0.017        6.430
     NS sqrt iter    4 1.00000000   0.168E-02       0.001       99.870
     NS sqrt iter    5 1.00000000   0.308E-07       0.001       57.639
     Symmetrizing Results
     Final NS sqrt iter    5 1.00000000   0.988E-09

     Est. extremal eigenvalues     -0.93132     1.58891  converged:  T
     TRS4 it   1 1.00000000   0.828E+00       0.000       16.128   0.100E-07
     TRS4 it   2 1.00000000   0.587E+00       0.001       32.256   0.100E-07
     TRS4 it   3 1.00000000   0.393E+00       0.001       32.256   0.100E-07
     TRS4 it   4 1.00000000   0.192E+00       0.001       32.256   0.100E-07
     TRS4 it   5 1.00000000   0.566E-01       0.001       32.256   0.100E-07
     TRS4 it   6 1.00000000   0.580E-02       0.001       32.256   0.100E-07
     TRS4 it   7 1.00000000   0.749E-04       0.001       32.256   0.100E-07
     TRS4 it   8 1.00000000   0.174E-07       0.001       32.256   0.100E-07
     Final TRS4 iteration    8 1.00000000   0.174E-07
     Chemical potential (mu):       0.00838
 
 PAO| energy:  -7.8001494067229116      penalty:   1.5595058083915348E-005
 PAO|LS| adapt:  T T T
 PAO|LS| adapt: scan_steps:    0.0000000000000000       0.22998147144149864       0.45996294288299727     
 PAO|LS| adapt: energies:   -7.7960190752113272       -7.8016378223801564       -7.8001494067229116     
 PAO|LS| adapt: suggested step_size:   0.29680839955762972     
 PAO|LS| adapt: predicted energy  -7.8019378654285054     
 PAO| ======================= Iteration:        12 =============================

     Lanczos converged:  T threshold:   0.100E-02
     Est. extremal eigenvalues:    0.279E+01   0.185E+00
     Est. condition number :    0.151E+02

 Order=           3
     NS sqrt iter    1 1.00000000   0.713E+00       0.001       59.032
     NS sqrt iter    2 1.00000000   0.338E+00       0.017        6.413
     NS sqrt iter    3 1.00000000   0.786E-01       0.001       98.286
     NS sqrt iter    4 1.00000000   0.195E-02       0.001       99.050
     NS sqrt iter    5 1.00000000   0.481E-07       0.001       62.215
     Symmetrizing Results
     Final NS sqrt iter    5 1.00000000   0.216E-08

     Est. extremal eigenvalues     -0.93158     1.58342  converged:  T
     TRS4 it   1 1.00000000   0.826E+00       0.000       16.128   0.100E-07
     TRS4 it   2 1.00000000   0.585E+00       0.001       32.256   0.100E-07
     TRS4 it   3 1.00000000   0.392E+00       0.001       32.256   0.100E-07
     TRS4 it   4 1.00000000   0.192E+00       0.001       32.256   0.100E-07
     TRS4 it   5 1.00000000   0.570E-01       0.001       32.256   0.100E-07
     TRS4 it   6 1.00000000   0.593E-02       0.001       32.256   0.100E-07
     TRS4 it   7 1.00000000   0.796E-04       0.001       32.256   0.100E-07
     TRS4 it   8 1.00000000   0.202E-07       0.001       32.256   0.100E-07
     Final TRS4 iteration    8 1.00000000   0.202E-07
     Chemical potential (mu):       0.00633
 
 PAO| energy:  -7.8019184624587794      penalty:   1.4490949613788068E-005
 PAO|CG| trace_G_new    1.3365262434887084E-002
 PAO|CG| trace_G_prev    4.0855786489118431E-002
 PAO|CG| trace_G_mix   -5.7981010016218393E-004
 PAO|CG| trace_D    5.0054408310856717E-002
 PAO|CG| trace_D_Gnew   2.3786228434339836E-004
 PAO|CG| beta:   0.34132429536666520     
 PAO| norm of gradient:  0.11560822823176162     
 PAO| energy improvement:  -5.8993872474522036E-003
 PAO| step     12                   -7.801918462  0.723E-02  0.297E+00     0.121
 PAO|LS| adapt:  T F F
 PAO|LS| adapt: scan_steps:    0.0000000000000000        0.0000000000000000        0.0000000000000000     
 PAO|LS| adapt: energies:   -7.8019184624587794        0.0000000000000000        0.0000000000000000     
 PAO| ======================= Iteration:        13 =============================

     Lanczos converged:  T threshold:   0.100E-02
     Est. extremal eigenvalues:    0.275E+01   0.190E+00
     Est. condition number :    0.145E+02

 Order=           3
     NS sqrt iter    1 1.00000000   0.705E+00       0.001       58.331
     NS sqrt iter    2 1.00000000   0.331E+00       0.001       99.050
     NS sqrt iter    3 1.00000000   0.739E-01       0.001       98.737
     NS sqrt iter    4 1.00000000   0.163E-02       0.001       97.964
     NS sqrt iter    5 1.00000000   0.282E-07       0.001       55.346
     Symmetrizing Results
     Final NS sqrt iter    5 1.00000000   0.353E-08

     Est. extremal eigenvalues     -0.93223     1.58098  converged:  T
     TRS4 it   1 1.00000000   0.827E+00       0.000       16.128   0.100E-07
     TRS4 it   2 1.00000000   0.583E+00       0.001       32.256   0.100E-07
     TRS4 it   3 1.00000000   0.389E+00       0.001       32.256   0.100E-07
     TRS4 it   4 1.00000000   0.188E+00       0.001       32.256   0.100E-07
     TRS4 it   5 1.00000000   0.540E-01       0.001       32.256   0.100E-07
     TRS4 it   6 1.00000000   0.526E-02       0.001       32.256   0.100E-07
     TRS4 it   7 1.00000000   0.616E-04       0.001       32.256   0.100E-07
     TRS4 it   8 1.00000000   0.117E-07       0.001       32.256   0.100E-07
     Final TRS4 iteration    8 1.00000000   0.117E-07
     Chemical potential (mu):       0.01065
 
 PAO| energy:  -7.8042815107603172      penalty:   1.4946065893334584E-005
 PAO|LS| adapt:  T T F
 PAO|LS| adapt: scan_steps:    0.0000000000000000       0.29680839955762972        0.0000000000000000     
 PAO|LS| adapt: energies:   -7.8019184624587794       -7.8042815107603172        0.0000000000000000     
 PAO| ======================= Iteration:        14 =============================

     Lanczos converged:  T threshold:   0.100E-02
     Est. extremal eigenvalues:    0.271E+01   0.194E+00
     Est. condition number :    0.140E+02

 Order=           3
     NS sqrt iter    1 1.00000000   0.697E+00       0.001       58.434
     NS sqrt iter    2 1.00000000   0.323E+00       0.001       97.950
     NS sqrt iter    3 1.00000000   0.695E-01       0.001       98.483
     NS sqrt iter    4 1.00000000   0.136E-02       0.001       97.524
     NS sqrt iter    5 1.00000000   0.161E-07       0.001       48.612
     Symmetrizing Results
     Final NS sqrt iter    5 1.00000000   0.337E-08

     Est. extremal eigenvalues     -0.93218     1.57904  converged:  T
     TRS4 it   1 1.00000000   0.827E+00       0.000       16.128   0.100E-07
     TRS4 it   2 1.00000000   0.581E+00       0.001       32.256   0.100E-07
     TRS4 it   3 1.00000000   0.385E+00       0.001       32.256   0.100E-07
     TRS4 it   4 1.00000000   0.183E+00       0.001       32.256   0.100E-07
     TRS4 it   5 1.00000000   0.511E-01       0.001       32.256   0.100E-07
     TRS4 it   6 1.00000000   0.469E-02       0.001       32.256   0.100E-07
     TRS4 it   7 1.00000000   0.482E-04       0.001       32.256   0.100E-07
     TRS4 it   8 1.00000000   0.699E-08       0.001       32.256   0.100E-07
     Final TRS4 iteration    8 1.00000000   0.699E-08
     Chemical potential (mu):       0.01470
 
 PAO| energy:  -7.8035429067937976      penalty:   1.5982486260340852E-005
 PAO|LS| adapt:  T T T
 PAO|LS| adapt: scan_steps:    0.0000000000000000       0.29680839955762972       0.59361679911525944     
 PAO|LS| adapt: energies:   -7.8019184624587794       -7.8042815107603172       -7.8035429067937976     
 PAO|LS| adapt: suggested step_size:   0.37453289630612968     
 PAO|LS| adapt: predicted energy  -7.8043878580862547     
 PAO| ======================= Iteration:        15 =============================

     Lanczos converged:  T threshold:   0.100E-02
     Est. extremal eigenvalues:    0.274E+01   0.191E+00
     Est. condition number :    0.144E+02

 Order=           3
     NS sqrt iter    1 1.00000000   0.703E+00       0.001       59.081
     NS sqrt iter    2 1.00000000   0.329E+00       0.001       97.697
     NS sqrt iter    3 1.00000000   0.727E-01       0.001       99.254
     NS sqrt iter    4 1.00000000   0.156E-02       0.001       97.909
     NS sqrt iter    5 1.00000000   0.244E-07       0.001       53.093
     Symmetrizing Results
     Final NS sqrt iter    5 1.00000000   0.408E-08

     Est. extremal eigenvalues     -0.93228     1.58043  converged:  T
     TRS4 it   1 1.00000000   0.827E+00       0.000       16.128   0.100E-07
     TRS4 it   2 1.00000000   0.583E+00       0.001       32.256   0.100E-07
     TRS4 it   3 1.00000000   0.388E+00       0.001       32.256   0.100E-07
     TRS4 it   4 1.00000000   0.187E+00       0.001       32.256   0.100E-07
     TRS4 it   5 1.00000000   0.532E-01       0.001       32.256   0.100E-07
     TRS4 it   6 1.00000000   0.511E-02       0.001       32.256   0.100E-07
     TRS4 it   7 1.00000000   0.577E-04       0.001       32.256   0.100E-07
     TRS4 it   8 1.00000000   0.102E-07       0.001       32.256   0.100E-07
     Final TRS4 iteration    8 1.00000000   0.102E-07
     Chemical potential (mu):       0.01174
 
 PAO| energy:  -7.8043842879956120      penalty:   1.5157048774160780E-005
 PAO|CG| trace_G_new    2.9651698846940066E-003
 PAO|CG| trace_G_prev    1.3365262434887084E-002
 PAO|CG| trace_G_mix    8.3827811854265410E-005
 PAO|CG| trace_D    1.9034338504041341E-002
 PAO|CG| trace_D_Gnew   3.9225462644877206E-005
 PAO|CG| beta:   0.21558439924970196     
 PAO| norm of gradient:   5.4453373492319157E-002
 PAO| energy improvement:  -2.4658255368326110E-003
 PAO| step     15                   -7.804384288  0.340E-02  0.375E+00     0.056
 PAO|LS| adapt:  T F F
 PAO|LS| adapt: scan_steps:    0.0000000000000000        0.0000000000000000        0.0000000000000000     
 PAO|LS| adapt: energies:   -7.8043842879956120        0.0000000000000000        0.0000000000000000     
 PAO| ======================= Iteration:        16 =============================

     Lanczos converged:  T threshold:   0.100E-02
     Est. extremal eigenvalues:    0.273E+01   0.192E+00
     Est. condition number :    0.142E+02

 Order=           3
     NS sqrt iter    1 1.00000000   0.701E+00       0.001       58.432
     NS sqrt iter    2 1.00000000   0.327E+00       0.001      100.933
     NS sqrt iter    3 1.00000000   0.719E-01       0.001       98.689
     NS sqrt iter    4 1.00000000   0.150E-02       0.001       98.632
     NS sqrt iter    5 1.00000000   0.213E-07       0.001       52.652
     Symmetrizing Results
     Final NS sqrt iter    5 1.00000000   0.371E-08

     Est. extremal eigenvalues     -0.93232     1.57988  converged:  T
     TRS4 it   1 1.00000000   0.827E+00       0.000       16.128   0.100E-07
     TRS4 it   2 1.00000000   0.582E+00       0.001       32.256   0.100E-07
     TRS4 it   3 1.00000000   0.386E+00       0.001       32.256   0.100E-07
     TRS4 it   4 1.00000000   0.185E+00       0.001       32.256   0.100E-07
     TRS4 it   5 1.00000000   0.521E-01       0.001       32.256   0.100E-07
     TRS4 it   6 1.00000000   0.490E-02       0.001       32.256   0.100E-07
     TRS4 it   7 1.00000000   0.533E-04       0.001       32.256   0.100E-07
     TRS4 it   8 1.00000000   0.884E-08       0.001       32.256   0.100E-07
     Final TRS4 iteration    8 1.00000000   0.884E-08
     Chemical potential (mu):       0.01284
 
 PAO| energy:  -7.8045001731411032      penalty:   1.5005933855732889E-005
 PAO|LS| adapt:  T T F
 PAO|LS| adapt: scan_steps:    0.0000000000000000       0.37453289630612968        0.0000000000000000     
 PAO|LS| adapt: energies:   -7.8043842879956120       -7.8045001731411032        0.0000000000000000     
 PAO| ======================= Iteration:        17 =============================

     Lanczos converged:  T threshold:   0.100E-02
     Est. extremal eigenvalues:    0.272E+01   0.193E+00
     Est. condition number :    0.141E+02

 Order=           3
     NS sqrt iter    1 1.00000000   0.699E+00       0.001       58.899
     NS sqrt iter    2 1.00000000   0.326E+00       0.001       96.790
     NS sqrt iter    3 1.00000000   0.712E-01       0.001       98.908
     NS sqrt iter    4 1.00000000   0.144E-02       0.001       98.995
     NS sqrt iter    5 1.00000000   0.185E-07       0.001       49.962
     Symmetrizing Results
     Final NS sqrt iter    5 1.00000000   0.340E-08

     Est. extremal eigenvalues     -0.93221     1.57943  converged:  T
     TRS4 it   1 1.00000000   0.827E+00       0.000       16.128   0.100E-07
     TRS4 it   2 1.00000000   0.581E+00       0.001       32.256   0.100E-07
     TRS4 it   3 1.00000000   0.384E+00       0.001       32.256   0.100E-07
     TRS4 it   4 1.00000000   0.183E+00       0.001       32.256   0.100E-07
     TRS4 it   5 1.00000000   0.510E-01       0.001       32.256   0.100E-07
     TRS4 it   6 1.00000000   0.470E-02       0.001       32.256   0.100E-07
     TRS4 it   7 1.00000000   0.493E-04       0.001       32.256   0.100E-07
     TRS4 it   8 1.00000000   0.765E-08       0.001       32.256   0.100E-07
     Final TRS4 iteration    8 1.00000000   0.765E-08
     Chemical potential (mu):       0.01391
 
 PAO| energy:  -7.8026261247011801      penalty:   1.5002638752048253E-005
 PAO|LS| adapt:  T T T
 PAO|LS| adapt: scan_steps:    0.0000000000000000       0.37453289630612968       0.74906579261225936     
 PAO|LS| adapt: energies:   -7.8043842879956120       -7.8045001731411032       -7.8026261247011801     
 PAO|LS| adapt: suggested step_size:   0.20907762793203422     
 PAO|LS| adapt: predicted energy  -7.8046943465919503     
 PAO| ======================= Iteration:        18 =============================

     Lanczos converged:  T threshold:   0.100E-02
     Est. extremal eigenvalues:    0.273E+01   0.191E+00
     Est. condition number :    0.143E+02

 Order=           3
     NS sqrt iter    1 1.00000000   0.702E+00       0.001       59.224
     NS sqrt iter    2 1.00000000   0.328E+00       0.001       99.992
     NS sqrt iter    3 1.00000000   0.723E-01       0.001       98.884
     NS sqrt iter    4 1.00000000   0.152E-02       0.001       97.972
     NS sqrt iter    5 1.00000000   0.226E-07       0.001       51.634
     Symmetrizing Results
     Final NS sqrt iter    5 1.00000000   0.386E-08

     Est. extremal eigenvalues     -0.93232     1.58011  converged:  T
     TRS4 it   1 1.00000000   0.827E+00       0.000       16.128   0.100E-07
     TRS4 it   2 1.00000000   0.582E+00       0.001       32.256   0.100E-07
     TRS4 it   3 1.00000000   0.387E+00       0.001       32.256   0.100E-07
     TRS4 it   4 1.00000000   0.185E+00       0.001       32.256   0.100E-07
     TRS4 it   5 1.00000000   0.526E-01       0.001       32.256   0.100E-07
     TRS4 it   6 1.00000000   0.499E-02       0.001       32.256   0.100E-07
     TRS4 it   7 1.00000000   0.552E-04       0.001       32.256   0.100E-07
     TRS4 it   8 1.00000000   0.942E-08       0.001       32.256   0.100E-07
     Final TRS4 iteration    8 1.00000000   0.942E-08
     Chemical potential (mu):       0.01235
 
 PAO| energy:  -7.8046937630441082      penalty:   1.5054887119191579E-005
 PAO|CG| trace_G_new    7.7715842541934452E-004
 PAO|CG| trace_G_prev    2.9651698846940066E-003
 PAO|CG| trace_G_mix    2.0361582904771169E-006
 PAO|CG| trace_D    3.8329090579490351E-003
 PAO|CG| trace_D_Gnew  -1.9731681571258509E-006
 PAO|CG| beta:   0.26140905825665933     
 PAO| norm of gradient:   2.7877561324824388E-002
 PAO| energy improvement:  -3.0947504849621055E-004
 PAO| step     18                   -7.804693763  0.174E-02  0.209E+00     0.056
 PAO|LS| adapt:  T F F
 PAO|LS| adapt: scan_steps:    0.0000000000000000        0.0000000000000000        0.0000000000000000     
 PAO|LS| adapt: energies:   -7.8046937630441082        0.0000000000000000        0.0000000000000000     
 PAO| ======================= Iteration:        19 =============================

     Lanczos converged:  T threshold:   0.100E-02
     Est. extremal eigenvalues:    0.273E+01   0.191E+00
     Est. condition number :    0.143E+02

 Order=           3
     NS sqrt iter    1 1.00000000   0.702E+00       0.001       59.097
     NS sqrt iter    2 1.00000000   0.328E+00       0.001       99.039
     NS sqrt iter    3 1.00000000   0.725E-01       0.001       98.214
     NS sqrt iter    4 1.00000000   0.153E-02       0.001       98.490
     NS sqrt iter    5 1.00000000   0.226E-07       0.001       52.743
     Symmetrizing Results
     Final NS sqrt iter    5 1.00000000   0.397E-08

     Est. extremal eigenvalues     -0.93232     1.58048  converged:  T
     TRS4 it   1 1.00000000   0.827E+00       0.000       16.128   0.100E-07
     TRS4 it   2 1.00000000   0.582E+00       0.001       32.256   0.100E-07
     TRS4 it   3 1.00000000   0.387E+00       0.017        1.927   0.100E-07
     TRS4 it   4 1.00000000   0.185E+00       0.001       32.256   0.100E-07
     TRS4 it   5 1.00000000   0.525E-01       0.001       32.256   0.100E-07
     TRS4 it   6 1.00000000   0.499E-02       0.001       32.256   0.100E-07
     TRS4 it   7 1.00000000   0.554E-04       0.001       32.256   0.100E-07
     TRS4 it   8 1.00000000   0.957E-08       0.001       32.256   0.100E-07
     Final TRS4 iteration    8 1.00000000   0.957E-08
     Chemical potential (mu):       0.01226
 
 PAO| energy:  -7.8048193835348370      penalty:   1.4783234107943801E-005
 PAO|LS| adapt:  T T F
 PAO|LS| adapt: scan_steps:    0.0000000000000000       0.20907762793203422        0.0000000000000000     
 PAO|LS| adapt: energies:   -7.8046937630441082       -7.8048193835348370        0.0000000000000000     
 PAO| ======================= Iteration:        20 =============================

     Lanczos converged:  T threshold:   0.100E-02
     Est. extremal eigenvalues:    0.273E+01   0.191E+00
     Est. condition number :    0.143E+02

 Order=           3
     NS sqrt iter    1 1.00000000   0.702E+00       0.001       59.522
     NS sqrt iter    2 1.00000000   0.328E+00       0.001       99.413
     NS sqrt iter    3 1.00000000   0.727E-01       0.001       99.010
     NS sqrt iter    4 1.00000000   0.154E-02       0.001       97.672
     NS sqrt iter    5 1.00000000   0.227E-07       0.001       52.067
     Symmetrizing Results
     Final NS sqrt iter    5 1.00000000   0.411E-08

     Est. extremal eigenvalues     -0.93232     1.58086  converged:  T
     TRS4 it   1 1.00000000   0.827E+00       0.000       16.128   0.100E-07
     TRS4 it   2 1.00000000   0.582E+00       0.017        1.926   0.100E-07
     TRS4 it   3 1.00000000   0.387E+00       0.001       32.256   0.100E-07
     TRS4 it   4 1.00000000   0.185E+00       0.001       32.256   0.100E-07
     TRS4 it   5 1.00000000   0.525E-01       0.001       32.256   0.100E-07
     TRS4 it   6 1.00000000   0.498E-02       0.001       32.256   0.100E-07
     TRS4 it   7 1.00000000   0.556E-04       0.001       32.256   0.100E-07
     TRS4 it   8 1.00000000   0.973E-08       0.001       32.256   0.100E-07
     Final TRS4 iteration    8 1.00000000   0.973E-08
     Chemical potential (mu):       0.01215
 
 PAO| energy:  -7.8048706356629545      penalty:   1.4523533309770856E-005
 PAO|LS| adapt:  T T F
 PAO|LS| adapt: scan_steps:    0.0000000000000000       0.41815525586406843        0.0000000000000000     
 PAO|LS| adapt: energies:   -7.8046937630441082       -7.8048706356629545        0.0000000000000000     
 PAO| ======================= Iteration:        21 =============================

     Lanczos converged:  T threshold:   0.100E-02
     Est. extremal eigenvalues:    0.273E+01   0.191E+00
     Est. condition number :    0.143E+02

 Order=           3
     NS sqrt iter    1 1.00000000   0.701E+00       0.001       58.215
     NS sqrt iter    2 1.00000000   0.329E+00       0.001       99.214
     NS sqrt iter    3 1.00000000   0.731E-01       0.001       99.350
     NS sqrt iter    4 1.00000000   0.156E-02       0.001       98.109
     NS sqrt iter    5 1.00000000   0.227E-07       0.001       50.984
     Symmetrizing Results
     Final NS sqrt iter    5 1.00000000   0.587E-08

     Est. extremal eigenvalues     -0.93232     1.58160  converged:  T
     TRS4 it   1 1.00000000   0.827E+00       0.000       16.128   0.100E-07
     TRS4 it   2 1.00000000   0.582E+00       0.001       32.256   0.100E-07
     TRS4 it   3 1.00000000   0.386E+00       0.001       32.256   0.100E-07
     TRS4 it   4 1.00000000   0.185E+00       0.001       32.256   0.100E-07
     TRS4 it   5 1.00000000   0.524E-01       0.001       32.256   0.100E-07
     TRS4 it   6 1.00000000   0.498E-02       0.001       32.256   0.100E-07
     TRS4 it   7 1.00000000   0.560E-04       0.001       32.256   0.100E-07
     TRS4 it   8 1.00000000   0.100E-07       0.001       32.256   0.100E-07
     Final TRS4 iteration    8 1.00000000   0.100E-07
     Chemical potential (mu):       0.01192
 
 PAO| energy:  -7.8047474791682845      penalty:   1.4039543495461796E-005
 PAO|LS| Need extra step
 PAO|LS| adapt:  T T T
 PAO|LS| adapt: scan_steps:    0.0000000000000000       0.41815525586406843       0.83631051172813686     
 PAO|LS| adapt: energies:   -7.8046937630441082       -7.8048706356629545       -7.8047474791682845     
 PAO|LS| adapt: suggested step_size:   0.45558775597332152     
 PAO|LS| adapt: predicted energy  -7.8048718378054565     
 PAO| ======================= Iteration:        22 =============================

     Lanczos converged:  T threshold:   0.100E-02
     Est. extremal eigenvalues:    0.273E+01   0.191E+00
     Est. condition number :    0.143E+02

 Order=           3
     NS sqrt iter    1 1.00000000   0.702E+00       0.001       58.886
     NS sqrt iter    2 1.00000000   0.328E+00       0.001       98.656
     NS sqrt iter    3 1.00000000   0.727E-01       0.001       97.662
     NS sqrt iter    4 1.00000000   0.154E-02       0.001       96.962
     NS sqrt iter    5 1.00000000   0.227E-07       0.001       52.685
     Symmetrizing Results
     Final NS sqrt iter    5 1.00000000   0.413E-08

     Est. extremal eigenvalues     -0.93232     1.58092  converged:  T
     TRS4 it   1 1.00000000   0.827E+00       0.000       16.128   0.100E-07
     TRS4 it   2 1.00000000   0.582E+00       0.001       32.256   0.100E-07
     TRS4 it   3 1.00000000   0.387E+00       0.001       32.256   0.100E-07
     TRS4 it   4 1.00000000   0.185E+00       0.001       32.256   0.100E-07
     TRS4 it   5 1.00000000   0.525E-01       0.001       32.256   0.100E-07
     TRS4 it   6 1.00000000   0.498E-02       0.001       32.256   0.100E-07
     TRS4 it   7 1.00000000   0.556E-04       0.001       32.256   0.100E-07
     TRS4 it   8 1.00000000   0.975E-08       0.001       32.256   0.100E-07
     Final TRS4 iteration    8 1.00000000   0.975E-08
     Chemical potential (mu):       0.01213
 
 PAO| energy:  -7.8048719132851243      penalty:   1.4478287792810825E-005
 PAO|CG| trace_G_new    2.1892563395419770E-004
 PAO|CG| trace_G_prev    7.7715842541934452E-004
 PAO|CG| trace_G_mix    3.5254932629402293E-006
 PAO|CG| trace_D    1.0401107077476165E-003
 PAO|CG| trace_D_Gnew  -1.9847128433190586E-006
 PAO|CG| beta:   0.27716374634300645     
 PAO| norm of gradient:   1.4796135777769738E-002
 PAO| energy improvement:  -1.7815024101608401E-004
 PAO| step     22                   -7.804871913  0.925E-03  0.456E+00     0.137
 PAO|LS| adapt:  T F F
 PAO|LS| adapt: scan_steps:    0.0000000000000000        0.0000000000000000        0.0000000000000000     
 PAO|LS| adapt: energies:   -7.8048719132851243        0.0000000000000000        0.0000000000000000     
 PAO| ======================= Iteration:        23 =============================

     Lanczos converged:  T threshold:   0.100E-02
     Est. extremal eigenvalues:    0.273E+01   0.192E+00
     Est. condition number :    0.143E+02

 Order=           3
     NS sqrt iter    1 1.00000000   0.702E+00       0.001       58.749
     NS sqrt iter    2 1.00000000   0.328E+00       0.001       99.251
     NS sqrt iter    3 1.00000000   0.727E-01       0.001       98.267
     NS sqrt iter    4 1.00000000   0.154E-02       0.001       97.453
     NS sqrt iter    5 1.00000000   0.225E-07       0.001       51.747
     Symmetrizing Results
     Final NS sqrt iter    5 1.00000000   0.415E-08

     Est. extremal eigenvalues     -0.93232     1.58130  converged:  T
     TRS4 it   1 1.00000000   0.827E+00       0.000       16.128   0.100E-07
     TRS4 it   2 1.00000000   0.582E+00       0.001       32.256   0.100E-07
     TRS4 it   3 1.00000000   0.387E+00       0.001       32.256   0.100E-07
     TRS4 it   4 1.00000000   0.186E+00       0.001       32.256   0.100E-07
     TRS4 it   5 1.00000000   0.526E-01       0.001       32.256   0.100E-07
     TRS4 it   6 1.00000000   0.502E-02       0.001       32.256   0.100E-07
     TRS4 it   7 1.00000000   0.566E-04       0.001       32.256   0.100E-07
     TRS4 it   8 1.00000000   0.101E-07       0.001       32.256   0.100E-07
     Final TRS4 iteration    8 1.00000000   0.101E-07
     Chemical potential (mu):       0.01190
 
 PAO| energy:  -7.8049148373938122      penalty:   1.3802212750419076E-005
 PAO|LS| adapt:  T T F
 PAO|LS| adapt: scan_steps:    0.0000000000000000       0.45558775597332152        0.0000000000000000     
 PAO|LS| adapt: energies:   -7.8048719132851243       -7.8049148373938122        0.0000000000000000     
 PAO| ======================= Iteration:        24 =============================

     Lanczos converged:  T threshold:   0.100E-02
     Est. extremal eigenvalues:    0.273E+01   0.192E+00
     Est. condition number :    0.143E+02

 Order=           3
     NS sqrt iter    1 1.00000000   0.702E+00       0.001       58.522
     NS sqrt iter    2 1.00000000   0.328E+00       0.001       98.681
     NS sqrt iter    3 1.00000000   0.728E-01       0.001      101.442
     NS sqrt iter    4 1.00000000   0.154E-02       0.001       99.918
     NS sqrt iter    5 1.00000000   0.223E-07       0.001       52.536
     Symmetrizing Results
     Final NS sqrt iter    5 1.00000000   0.416E-08

     Est. extremal eigenvalues     -0.93232     1.58168  converged:  T
     TRS4 it   1 1.00000000   0.828E+00       0.000       16.128   0.100E-07
     TRS4 it   2 1.00000000   0.583E+00       0.001       32.256   0.100E-07
     TRS4 it   3 1.00000000   0.387E+00       0.001       32.256   0.100E-07
     TRS4 it   4 1.00000000   0.186E+00       0.001       32.256   0.100E-07
     TRS4 it   5 1.00000000   0.528E-01       0.001       32.256   0.100E-07
     TRS4 it   6 1.00000000   0.506E-02       0.001       32.256   0.100E-07
     TRS4 it   7 1.00000000   0.575E-04       0.001       32.256   0.100E-07
     TRS4 it   8 1.00000000   0.104E-07       0.001       32.256   0.100E-07
     Final TRS4 iteration    8 1.00000000   0.104E-07
     Chemical potential (mu):       0.01166
 
 PAO| energy:  -7.8048429854683370      penalty:   1.3153538850071654E-005
 PAO|LS| adapt:  T T T
 PAO|LS| adapt: scan_steps:    0.0000000000000000       0.45558775597332152       0.91117551194664304     
 PAO|LS| adapt: energies:   -7.8048719132851243       -7.8049148373938122       -7.8048429854683370     
 PAO|LS| adapt: suggested step_size:   0.39817525156228351     
 PAO|LS| adapt: predicted energy  -7.8049157487541292     
 PAO| ======================= Iteration:        25 =============================

     Lanczos converged:  T threshold:   0.100E-02
     Est. extremal eigenvalues:    0.273E+01   0.192E+00
     Est. condition number :    0.143E+02

 Order=           3
     NS sqrt iter    1 1.00000000   0.702E+00       0.001       59.514
     NS sqrt iter    2 1.00000000   0.328E+00       0.001       97.381
     NS sqrt iter    3 1.00000000   0.727E-01       0.001       96.231
     NS sqrt iter    4 1.00000000   0.154E-02       0.001       98.891
     NS sqrt iter    5 1.00000000   0.225E-07       0.001       52.306
     Symmetrizing Results
     Final NS sqrt iter    5 1.00000000   0.415E-08

     Est. extremal eigenvalues     -0.93232     1.58125  converged:  T
     TRS4 it   1 1.00000000   0.827E+00       0.000       16.128   0.100E-07
     TRS4 it   2 1.00000000   0.582E+00       0.001       32.256   0.100E-07
     TRS4 it   3 1.00000000   0.387E+00       0.001       32.256   0.100E-07
     TRS4 it   4 1.00000000   0.186E+00       0.001       32.256   0.100E-07
     TRS4 it   5 1.00000000   0.526E-01       0.001       32.256   0.100E-07
     TRS4 it   6 1.00000000   0.502E-02       0.001       32.256   0.100E-07
     TRS4 it   7 1.00000000   0.565E-04       0.001       32.256   0.100E-07
     TRS4 it   8 1.00000000   0.101E-07       0.001       32.256   0.100E-07
     Final TRS4 iteration    8 1.00000000   0.101E-07
     Chemical potential (mu):       0.01193
 
 PAO| energy:  -7.8049157287626283      penalty:   1.3885890441330025E-005
 PAO|CG| trace_G_new    6.5158911607393985E-005
 PAO|CG| trace_G_prev    2.1892563395419770E-004
 PAO|CG| trace_G_mix    4.7933571895834534E-007
 PAO|CG| trace_D    2.9992685136734360E-004
 PAO|CG| trace_D_Gnew  -3.3763051274758375E-007
 PAO|CG| beta:   0.29544085231228567     
 PAO| norm of gradient:   8.0721070116416306E-003
 PAO| energy improvement:  -4.3815477503983402E-005
 PAO| step     25                   -7.804915729  0.505E-03  0.398E+00     0.056
 PAO|LS| adapt:  T F F
 PAO|LS| adapt: scan_steps:    0.0000000000000000        0.0000000000000000        0.0000000000000000     
 PAO|LS| adapt: energies:   -7.8049157287626283        0.0000000000000000        0.0000000000000000     
 PAO| ======================= Iteration:        26 =============================

     Lanczos converged:  T threshold:   0.100E-02
     Est. extremal eigenvalues:    0.273E+01   0.192E+00
     Est. condition number :    0.143E+02

 Order=           3
     NS sqrt iter    1 1.00000000   0.701E+00       0.001       58.360
     NS sqrt iter    2 1.00000000   0.328E+00       0.001       99.500
     NS sqrt iter    3 1.00000000   0.726E-01       0.001       99.902
     NS sqrt iter    4 1.00000000   0.153E-02       0.001       99.166
     NS sqrt iter    5 1.00000000   0.223E-07       0.001       51.819
     Symmetrizing Results
     Final NS sqrt iter    5 1.00000000   0.403E-08

     Est. extremal eigenvalues     -0.93233     1.58107  converged:  T
     TRS4 it   1 1.00000000   0.827E+00       0.000       16.128   0.100E-07
     TRS4 it   2 1.00000000   0.582E+00       0.001       32.256   0.100E-07
     TRS4 it   3 1.00000000   0.387E+00       0.001       32.256   0.100E-07
     TRS4 it   4 1.00000000   0.185E+00       0.001       32.256   0.100E-07
     TRS4 it   5 1.00000000   0.526E-01       0.001       32.256   0.100E-07
     TRS4 it   6 1.00000000   0.501E-02       0.001       32.256   0.100E-07
     TRS4 it   7 1.00000000   0.562E-04       0.001       32.256   0.100E-07
     TRS4 it   8 1.00000000   0.996E-08       0.001       32.256   0.100E-07
     Final TRS4 iteration    8 1.00000000   0.996E-08
     Chemical potential (mu):       0.01198
 
 PAO| energy:  -7.8049195253914228      penalty:   1.3271381562547207E-005
 PAO|LS| adapt:  T T F
 PAO|LS| adapt: scan_steps:    0.0000000000000000       0.39817525156228351        0.0000000000000000     
 PAO|LS| adapt: energies:   -7.8049157287626283       -7.8049195253914228        0.0000000000000000     
 PAO| ======================= Iteration:        27 =============================

     Lanczos converged:  T threshold:   0.100E-02
     Est. extremal eigenvalues:    0.273E+01   0.192E+00
     Est. condition number :    0.142E+02

 Order=           3
     NS sqrt iter    1 1.00000000   0.701E+00       0.001       58.080
     NS sqrt iter    2 1.00000000   0.328E+00       0.001       99.759
     NS sqrt iter    3 1.00000000   0.725E-01       0.001      100.573
     NS sqrt iter    4 1.00000000   0.153E-02       0.001       98.587
     NS sqrt iter    5 1.00000000   0.221E-07       0.001       52.134
     Symmetrizing Results
     Final NS sqrt iter    5 1.00000000   0.394E-08

     Est. extremal eigenvalues     -0.93232     1.58090  converged:  T
     TRS4 it   1 1.00000000   0.827E+00       0.000       16.128   0.100E-07
     TRS4 it   2 1.00000000   0.582E+00       0.001       32.256   0.100E-07
     TRS4 it   3 1.00000000   0.387E+00       0.001       32.256   0.100E-07
     TRS4 it   4 1.00000000   0.185E+00       0.001       32.256   0.100E-07
     TRS4 it   5 1.00000000   0.526E-01       0.001       32.256   0.100E-07
     TRS4 it   6 1.00000000   0.500E-02       0.001       32.256   0.100E-07
     TRS4 it   7 1.00000000   0.561E-04       0.001       32.256   0.100E-07
     TRS4 it   8 1.00000000   0.988E-08       0.001       32.256   0.100E-07
     Final TRS4 iteration    8 1.00000000   0.988E-08
     Chemical potential (mu):       0.01204
 
 PAO| energy:  -7.8048788959409210      penalty:   1.2673070819750338E-005
 PAO|LS| adapt:  T T T
 PAO|LS| adapt: scan_steps:    0.0000000000000000       0.39817525156228351       0.79635050312456701     
 PAO|LS| adapt: energies:   -7.8049157287626283       -7.8049195253914228       -7.8048788959409210     
 PAO|LS| adapt: suggested step_size:   0.23311546819423029     
 PAO|LS| adapt: predicted energy  -7.8049233425658633     
 PAO| ======================= Iteration:        28 =============================

     Lanczos converged:  T threshold:   0.100E-02
     Est. extremal eigenvalues:    0.273E+01   0.192E+00
     Est. condition number :    0.143E+02

 Order=           3
     NS sqrt iter    1 1.00000000   0.702E+00       0.001       58.103
     NS sqrt iter    2 1.00000000   0.328E+00       0.001       97.371
     NS sqrt iter    3 1.00000000   0.727E-01       0.001       97.213
     NS sqrt iter    4 1.00000000   0.154E-02       0.001       99.387
     NS sqrt iter    5 1.00000000   0.224E-07       0.001       52.408
     Symmetrizing Results
     Final NS sqrt iter    5 1.00000000   0.407E-08

     Est. extremal eigenvalues     -0.93233     1.58115  converged:  T
     TRS4 it   1 1.00000000   0.827E+00       0.000       16.128   0.100E-07
     TRS4 it   2 1.00000000   0.582E+00       0.001       32.256   0.100E-07
     TRS4 it   3 1.00000000   0.387E+00       0.001       32.256   0.100E-07
     TRS4 it   4 1.00000000   0.185E+00       0.001       32.256   0.100E-07
     TRS4 it   5 1.00000000   0.526E-01       0.001       32.256   0.100E-07
     TRS4 it   6 1.00000000   0.501E-02       0.001       32.256   0.100E-07
     TRS4 it   7 1.00000000   0.563E-04       0.001       32.256   0.100E-07
     TRS4 it   8 1.00000000   0.100E-07       0.001       32.256   0.100E-07
     Final TRS4 iteration    8 1.00000000   0.100E-07
     Chemical potential (mu):       0.01196
 
 PAO| energy:  -7.8049233372619629      penalty:   1.3524146436295982E-005
 PAO|CG| trace_G_new    1.8305579351809838E-005
 PAO|CG| trace_G_prev    6.5158911607393985E-005
 PAO|CG| trace_G_mix    1.1401621447236215E-008
 PAO|CG| trace_D    9.1537615664660191E-005
 PAO|CG| trace_D_Gnew  -2.1142862085491401E-008
 PAO|CG| beta:   0.28076248173989832     
 PAO| norm of gradient:   4.2785019985749498E-003
 PAO| energy improvement:  -7.6084993345659768E-006
 PAO| step     28                   -7.804923337  0.267E-03  0.233E+00     0.056
 PAO|LS| adapt:  T F F
 PAO|LS| adapt: scan_steps:    0.0000000000000000        0.0000000000000000        0.0000000000000000     
 PAO|LS| adapt: energies:   -7.8049233372619629        0.0000000000000000        0.0000000000000000     
 PAO| ======================= Iteration:        29 =============================

     Lanczos converged:  T threshold:   0.100E-02
     Est. extremal eigenvalues:    0.273E+01   0.192E+00
     Est. condition number :    0.143E+02

 Order=           3
     NS sqrt iter    1 1.00000000   0.701E+00       0.001       59.494
     NS sqrt iter    2 1.00000000   0.328E+00       0.001      100.021
     NS sqrt iter    3 1.00000000   0.726E-01       0.001       99.720
     NS sqrt iter    4 1.00000000   0.153E-02       0.001       99.076
     NS sqrt iter    5 1.00000000   0.224E-07       0.001       51.270
     Symmetrizing Results
     Final NS sqrt iter    5 1.00000000   0.403E-08

     Est. extremal eigenvalues     -0.93233     1.58125  converged:  T
     TRS4 it   1 1.00000000   0.827E+00       0.000       16.128   0.100E-07
     TRS4 it   2 1.00000000   0.582E+00       0.001       32.256   0.100E-07
     TRS4 it   3 1.00000000   0.387E+00       0.001       32.256   0.100E-07
     TRS4 it   4 1.00000000   0.185E+00       0.001       32.256   0.100E-07
     TRS4 it   5 1.00000000   0.526E-01       0.001       32.256   0.100E-07
     TRS4 it   6 1.00000000   0.501E-02       0.001       32.256   0.100E-07
     TRS4 it   7 1.00000000   0.562E-04       0.001       32.256   0.100E-07
     TRS4 it   8 1.00000000   0.994E-08       0.001       32.256   0.100E-07
     Final TRS4 iteration    8 1.00000000   0.994E-08
     Chemical potential (mu):       0.01203
 
 PAO| energy:  -7.8049270390668273      penalty:   1.3168936221548532E-005
 PAO|LS| adapt:  T T F
 PAO|LS| adapt: scan_steps:    0.0000000000000000       0.23311546819423029        0.0000000000000000     
 PAO|LS| adapt: energies:   -7.8049233372619629       -7.8049270390668273        0.0000000000000000     
 PAO| ======================= Iteration:        30 =============================

     Lanczos converged:  T threshold:   0.100E-02
     Est. extremal eigenvalues:    0.273E+01   0.192E+00
     Est. condition number :    0.143E+02

 Order=           3
     NS sqrt iter    1 1.00000000   0.701E+00       0.001       58.284
     NS sqrt iter    2 1.00000000   0.328E+00       0.001       98.206
     NS sqrt iter    3 1.00000000   0.726E-01       0.001      100.460
     NS sqrt iter    4 1.00000000   0.153E-02       0.001       99.307
     NS sqrt iter    5 1.00000000   0.224E-07       0.001       52.368
     Symmetrizing Results
     Final NS sqrt iter    5 1.00000000   0.398E-08

     Est. extremal eigenvalues     -0.93233     1.58136  converged:  T
     TRS4 it   1 1.00000000   0.828E+00       0.000       16.128   0.100E-07
     TRS4 it   2 1.00000000   0.582E+00       0.001       32.256   0.100E-07
     TRS4 it   3 1.00000000   0.387E+00       0.001       32.256   0.100E-07
     TRS4 it   4 1.00000000   0.185E+00       0.001       32.256   0.100E-07
     TRS4 it   5 1.00000000   0.525E-01       0.001       32.256   0.100E-07
     TRS4 it   6 1.00000000   0.500E-02       0.001       32.256   0.100E-07
     TRS4 it   7 1.00000000   0.560E-04       0.001       32.256   0.100E-07
     TRS4 it   8 1.00000000   0.987E-08       0.001       32.256   0.100E-07
     Final TRS4 iteration    8 1.00000000   0.987E-08
     Chemical potential (mu):       0.01209
 
 PAO| energy:  -7.8049296069473213      penalty:   1.2818779844089793E-005
 PAO|LS| adapt:  T T F
 PAO|LS| adapt: scan_steps:    0.0000000000000000       0.46623093638846058        0.0000000000000000     
 PAO|LS| adapt: energies:   -7.8049233372619629       -7.8049296069473213        0.0000000000000000     
 PAO| ======================= Iteration:        31 =============================

     Lanczos converged:  T threshold:   0.100E-02
     Est. extremal eigenvalues:    0.273E+01   0.191E+00
     Est. condition number :    0.143E+02

 Order=           3
     NS sqrt iter    1 1.00000000   0.701E+00       0.001       57.500
     NS sqrt iter    2 1.00000000   0.328E+00       0.001       97.562
     NS sqrt iter    3 1.00000000   0.725E-01       0.001       97.554
     NS sqrt iter    4 1.00000000   0.153E-02       0.001       98.799
     NS sqrt iter    5 1.00000000   0.223E-07       0.001       52.407
     Symmetrizing Results
     Final NS sqrt iter    5 1.00000000   0.389E-08

     Est. extremal eigenvalues     -0.93233     1.58157  converged:  T
     TRS4 it   1 1.00000000   0.828E+00       0.000       16.128   0.100E-07
     TRS4 it   2 1.00000000   0.582E+00       0.001       32.256   0.100E-07
     TRS4 it   3 1.00000000   0.387E+00       0.001       32.256   0.100E-07
     TRS4 it   4 1.00000000   0.185E+00       0.001       32.256   0.100E-07
     TRS4 it   5 1.00000000   0.525E-01       0.001       32.256   0.100E-07
     TRS4 it   6 1.00000000   0.499E-02       0.001       32.256   0.100E-07
     TRS4 it   7 1.00000000   0.557E-04       0.001       32.256   0.100E-07
     TRS4 it   8 1.00000000   0.975E-08       0.001       32.256   0.100E-07
     Final TRS4 iteration    8 1.00000000   0.975E-08
     Chemical potential (mu):       0.01223
 
 PAO| energy:  -7.8049313397925335      penalty:   1.2133575860772403E-005
 PAO|LS| Need extra step
 PAO|LS| adapt:  T T F
 PAO|LS| adapt: scan_steps:    0.0000000000000000       0.93246187277692116        0.0000000000000000     
 PAO|LS| adapt: energies:   -7.8049233372619629       -7.8049313397925335        0.0000000000000000     
 PAO| ======================= Iteration:        32 =============================

     Lanczos converged:  T threshold:   0.100E-02
     Est. extremal eigenvalues:    0.273E+01   0.191E+00
     Est. condition number :    0.143E+02

 Order=           3
     NS sqrt iter    1 1.00000000   0.700E+00       0.001       58.293
     NS sqrt iter    2 1.00000000   0.327E+00       0.017        6.428
     NS sqrt iter    3 1.00000000   0.722E-01       0.001       98.678
     NS sqrt iter    4 1.00000000   0.152E-02       0.001       99.226
     NS sqrt iter    5 1.00000000   0.223E-07       0.001       51.989
     Symmetrizing Results
     Final NS sqrt iter    5 1.00000000   0.371E-08

     Est. extremal eigenvalues     -0.93234     1.58198  converged:  T
     TRS4 it   1 1.00000000   0.828E+00       0.000       16.128   0.100E-07
     TRS4 it   2 1.00000000   0.583E+00       0.001       32.256   0.100E-07
     TRS4 it   3 1.00000000   0.387E+00       0.001       32.256   0.100E-07
     TRS4 it   4 1.00000000   0.185E+00       0.001       32.256   0.100E-07
     TRS4 it   5 1.00000000   0.524E-01       0.001       32.256   0.100E-07
     TRS4 it   6 1.00000000   0.496E-02       0.001       32.256   0.100E-07
     TRS4 it   7 1.00000000   0.551E-04       0.001       32.256   0.100E-07
     TRS4 it   8 1.00000000   0.950E-08       0.001       32.256   0.100E-07
     Final TRS4 iteration    8 1.00000000   0.950E-08
     Chemical potential (mu):       0.01250
 
 PAO| energy:  -7.8049211853873643      penalty:   1.0823235189203815E-005
 PAO|LS| Need extra step
 PAO|LS| adapt:  T T T
 PAO|LS| adapt: scan_steps:    0.0000000000000000       0.93246187277692116        1.8649237455538423     
 PAO|LS| adapt: energies:   -7.8049233372619629       -7.8049313397925335       -7.8049211853873643     
 PAO|LS| adapt: suggested step_size:   0.87720637573540439     
 PAO|LS| adapt: predicted energy  -7.8049313716712900     
 PAO| ======================= Iteration:        33 =============================

     Lanczos converged:  T threshold:   0.100E-02
     Est. extremal eigenvalues:    0.273E+01   0.191E+00
     Est. condition number :    0.143E+02

 Order=           3
     NS sqrt iter    1 1.00000000   0.701E+00       0.017        3.748
     NS sqrt iter    2 1.00000000   0.328E+00       0.001       97.990
[...]
     NS sqrt iter    4 1.00000000   0.448E-03       0.002       47.911
     NS sqrt iter    5 1.00000000   0.568E-09       0.002       16.825
     Symmetrizing Results
     Final NS sqrt iter    5 1.00000000   0.412E-10

     Est. extremal eigenvalues     -0.93224     1.45668  converged:  T
     TRS4 it   1 1.00000000   0.809E+00       0.001       16.128   0.100E-07
     TRS4 it   2 1.00000000   0.584E+00       0.001       32.256   0.100E-07
     TRS4 it   3 1.00000000   0.412E+00       0.001       32.256   0.100E-07
     TRS4 it   4 1.00000000   0.242E+00       0.001       32.256   0.100E-07
     TRS4 it   5 1.00000000   0.106E+00       0.001       32.256   0.100E-07
     TRS4 it   6 1.00000000   0.265E-01       0.001       32.256   0.100E-07
     TRS4 it   7 1.00000000   0.233E-02       0.001       32.256   0.100E-07
     TRS4 it   8 1.00000000   0.214E-04       0.001       32.256   0.100E-07
     TRS4 it   9 1.00000000   0.196E-08       0.001       32.256   0.100E-07
     Final TRS4 iteration    9 1.00000000   0.196E-08
     Chemical potential (mu):      -0.07657
 
 PAO| energy:  -7.8055344923078014      penalty:   2.1333786106131948E-011
 PAO|CG| warming up with steepest descent
 PAO|CG| beta:    0.0000000000000000     
 PAO| norm of gradient:   7.3920335224997723E-006
 PAO| energy improvement:  -3.0192737199286057E-011
 PAO| step    803                   -7.805534492  0.462E-06  0.277E+00     0.160
 PAO| converged after          803  steps :-)
 PAO| Recalculating energy after mixing.

     Lanczos converged:  T threshold:   0.100E-02
     Est. extremal eigenvalues:    0.251E+01   0.215E+00
     Est. condition number :    0.117E+02

 Order=           3
     NS sqrt iter    1 1.00000000   0.641E+00       0.006       10.815
     NS sqrt iter    2 1.00000000   0.278E+00       0.002       48.667
     NS sqrt iter    3 1.00000000   0.461E-01       0.001       80.602
     NS sqrt iter    4 1.00000000   0.448E-03       0.001       82.502
     NS sqrt iter    5 1.00000000   0.568E-09       0.001       30.132
     Symmetrizing Results
     Final NS sqrt iter    5 1.00000000   0.412E-10

     Est. extremal eigenvalues     -0.93224     1.45668  converged:  T
     TRS4 it   1 1.00000000   0.809E+00       0.001       16.128   0.100E-07
     TRS4 it   2 1.00000000   0.584E+00       0.001       32.256   0.100E-07
     TRS4 it   3 1.00000000   0.412E+00       0.001       32.256   0.100E-07
     TRS4 it   4 1.00000000   0.242E+00       0.001       32.256   0.100E-07
     TRS4 it   5 1.00000000   0.106E+00       0.001       32.256   0.100E-07
     TRS4 it   6 1.00000000   0.265E-01       0.001       32.256   0.100E-07
     TRS4 it   7 1.00000000   0.233E-02       0.001       32.256   0.100E-07
     TRS4 it   8 1.00000000   0.214E-04       0.001       32.256   0.100E-07
     TRS4 it   9 1.00000000   0.196E-08       0.001       32.256   0.100E-07
     Final TRS4 iteration    9 1.00000000   0.196E-08
     Chemical potential (mu):      -0.07657
 
 PAO| energy:  -7.8055344923002545      penalty:   2.1571928325852565E-011
 PAO| Writing restart file.
     Est. extremal eigenvalues     -0.93224     1.45668  converged:  T
     TRS4 it   1 1.00000000   0.809E+00       0.001       16.128   0.100E-07
     TRS4 it   2 1.00000000   0.584E+00       0.001       32.256   0.100E-07
     TRS4 it   3 1.00000000   0.412E+00       0.001       32.256   0.100E-07
     TRS4 it   4 1.00000000   0.242E+00       0.001       32.256   0.100E-07
     TRS4 it   5 1.00000000   0.106E+00       0.001       32.256   0.100E-07
     TRS4 it   6 1.00000000   0.265E-01       0.001       32.256   0.100E-07
     TRS4 it   7 1.00000000   0.233E-02       0.001       32.256   0.100E-07
     TRS4 it   8 1.00000000   0.214E-04       0.001       32.256   0.100E-07
     TRS4 it   9 1.00000000   0.196E-08       0.001       32.256   0.100E-07
     Final TRS4 iteration    9 1.00000000   0.196E-08
     Chemical potential (mu):      -0.07657

 SCF     1       -34.446792228       -34.446792228    3.255442

*********************************************************
 Using MIXING_FRACTION=0.450 to mix KS matrix:  iscf=  2
 KS_nw=0.450*KS + 0.550*KS_old
*********************************************************
     Est. extremal eigenvalues     -0.93224     1.45668  converged:  T
     TRS4 it   1 1.00000000   0.809E+00       0.000       16.128   0.100E-07
     TRS4 it   2 1.00000000   0.584E+00       0.001       32.256   0.100E-07
     TRS4 it   3 1.00000000   0.412E+00       0.001       32.256   0.100E-07
     TRS4 it   4 1.00000000   0.242E+00       0.001       32.256   0.100E-07
     TRS4 it   5 1.00000000   0.106E+00       0.001       32.256   0.100E-07
     TRS4 it   6 1.00000000   0.265E-01       0.001       32.256   0.100E-07
     TRS4 it   7 1.00000000   0.233E-02       0.001       32.256   0.100E-07
     TRS4 it   8 1.00000000   0.214E-04       0.001       32.256   0.100E-07
     TRS4 it   9 1.00000000   0.196E-08       0.001       32.256   0.100E-07
     Final TRS4 iteration    9 1.00000000   0.196E-08
     Chemical potential (mu):      -0.07657

 SCF     2       -34.446792228        -0.000000000    3.401446


 SCF run converged in     2 steps.

 PAO| Storing density matrix for ASPC guess in slot:           1

 ENERGY| Total FORCE_EVAL ( QS ) energy [a.u.]:              -34.446792227939703

 -------------------------------------------------------------------------------
 -                                                                             -
 -                                DBCSR STATISTICS                             -
 -                                                                             -
 -------------------------------------------------------------------------------
 COUNTER                                    TOTAL       BLAS       SMM       ACC
 flops     5 x     5 x     4                26000       0.0%    100.0%      0.0%
 flops    13 x     5 x     4                27040       0.0%    100.0%      0.0%
 flops     5 x    13 x     4                27040       0.0%    100.0%      0.0%
 flops    13 x    13 x     4                52728       0.0%    100.0%      0.0%
 flops     4 x     4 x     5              6274560       0.0%    100.0%      0.0%
 flops     5 x     4 x     5              7657600       0.0%    100.0%      0.0%
 flops     4 x     4 x    13              8156928       0.0%    100.0%      0.0%
 flops    13 x     4 x     5              9954880       0.0%    100.0%      0.0%
 flops     5 x     4 x    13              9954880       0.0%    100.0%      0.0%
 flops     5 x     4 x     4             11812160       0.0%    100.0%      0.0%
 flops    13 x     4 x    13             12941344       0.0%    100.0%      0.0%
 flops    13 x     4 x     4             15453152       0.0%    100.0%      0.0%
 flops     4 x     4 x     4            794445312       0.0%    100.0%      0.0%
 flops inhomo. stacks                           0       0.0%      0.0%      0.0%
 flops total                       876.783624E+06       0.0%    100.0%      0.0%
 flops max/rank                    876.783624E+06       0.0%    100.0%      0.0%
 matmuls inhomo. stacks                         0       0.0%      0.0%      0.0%
 matmuls total                            6462822       0.0%    100.0%      0.0%
 number of processed stacks                 51483       0.0%    100.0%      0.0%
 average stack size                                     0.0     125.5       0.0
 marketing flops                     1.431132E+09
 -------------------------------------------------------------------------------
 # multiplications                          43123
 max memory usage/rank             506.363904E+06
 # max total images/rank                        1
 # max 3D layers                                1
 # MPI messages exchanged                       0
 -------------------------------------------------------------------------------

 -------------------------------------------------------------------------------
 -                                                                             -
 -                                DBM STATISTICS                               -
 -                                                                             -
 -------------------------------------------------------------------------------
    M  x    N  x    K                                          COUNT     PERCENT
 -------------------------------------------------------------------------------

 -------------------------------------------------------------------------------
 -                                                                             -
 -                                GRID STATISTICS                              -
 -                                                                             -
 -------------------------------------------------------------------------------
 LP    KERNEL             BACKEND                              COUNT     PERCENT
 2     collocate ortho    REF                                  49179      30.74%
 2     integrate ortho    REF                                  49179      30.74%
 3     collocate ortho    REF                                  25272      15.80%
 3     integrate ortho    REF                                  25272      15.80%
 4     collocate ortho    REF                                   5525       3.45%
 4     integrate ortho    REF                                   5525       3.45%
 0     collocate general  REF                                      6       0.00%
 -------------------------------------------------------------------------------

 MEMORY| Estimated peak process memory [MiB]                                 483

 -------------------------------------------------------------------------------
 -                                                                             -
 -                           R E F E R E N C E S                               -
 -                                                                             -
 -------------------------------------------------------------------------------
 
 CP2K version 2023.1 (Development Version), the CP2K developers group (2023).
 CP2K is freely available from https://www.cp2k.org/ .

 Kuehne,Thomas D.; Iannuzzi,Marcella; Del Ben,Mauro;
 Rybkin,Vladimir V.; Seewald,Patrick; Stein,Frederick; Laino,Teodoro;
 Khaliullin,Rustam Z.; Schuett,Ole; Schiffmann,Florian; Golze,Dorothea;
 Wilhelm,Jan; Chulkov,Sergey; Bani-Hashemian,Mohammad Hossein;
 Weber,Valery; Borstnik,Urban; Taillefumier,Mathieu;
 Jakobovits,Alice Shoshana; Lazzaro,Alfio; Pabst,Hans; Mueller,Tiziano;
 Schade,Robert; Guidon,Manuel; Andermatt,Samuel; Holmberg,Nico;
 Schenter,Gregory K.; Hehn,Anna; Bussy,Augustin; Belleflamme,Fabian;
 Tabacchi,Gloria; Gloess,Andreas; Lass,Michael; Bethune,Iain;
 Mundy,Christopher J.; Plessl,Christian; Watkins,Matt;
 VandeVondele,Joost; Krack,Matthias; Hutter,Juerg. 
 The Journal of Chemical Physics, 152 (19), (2020). 
 CP2K: An electronic structure and molecular dynamics software package -
 Quickstep: Efficient and accurate electronic structure calculations.
 https://doi.org/10.1063/5.0007045

 Schuett, O; VandeVondele, J. 
 Journal of Chemical Theory and Computation, 14, (2018). 
 Machine Learning Adaptive Basis Sets for Efficient Large Scale
 Density Functional Theory Simulation.
 https://doi.org/10.1021/acs.jctc.8b00378

 Schuett, Ole; Messmer, Peter; Hutter, Juerg; VandeVondele, Joost. 
 Electronic Structure Calculations on Graphics Processing Units, John
 Wiley & Sons, Ltd, 173-190 (2016). 
 GPU-Accelerated Sparse Matrix-Matrix Multiplication for
 Linear Scaling Density Functional Theory.
 https://doi.org/10.1002/9781118670712.ch8

 Heinecke, A; Henry, G; Hutchinson, M; Pabst, H. 
 Proceedings of Intl. Supercomputing Conference, 981-991 (2016). 
 LIBXSMM: Accelerating Small Matrix Multiplications
 by Runtime Code Generation.
 https://doi.org/10.1109/SC.2016.83

 Borstnik, U; VandeVondele, J; Weber, V; Hutter, J. 
 PARALLEL COMPUTING, 40 (5-6), 47-58 (2014). 
 Sparse matrix multiplication: The distributed block-compressed sparse
 row library.
 https://doi.org/10.1016/j.parco.2014.03.012

 Hutter, J; Iannuzzi, M; Schiffmann, F; VandeVondele, J. 
 WIREs Comput Mol Sci., 4 (1), 15-25 (2014). 
 CP2K: atomistic simulations of condensed matter systems.
 https://doi.org/10.1002/wcms.1159

 VandeVondele, J; Borstnik, U; Hutter, J. 
 JOURNAL OF CHEMICAL THEORY AND COMPUTATION, 8 (10), 3565-3573 (2012). 
 Linear Scaling Self-Consistent Field Calculations with Millions of Atoms
 in the Condensed Phase.
 https://doi.org/10.1021/ct200897x

 VandeVondele, J; Hutter, J. 
 JOURNAL OF CHEMICAL PHYSICS, 127 (11), 114105 (2007). 
 Gaussian basis sets for accurate calculations on molecular systems in
 gas and condensed phases.
 https://doi.org/10.1063/1.2770708

 Krack, M. 
 THEORETICAL CHEMISTRY ACCOUNTS, 114 (1-3), 145-152 (2005). 
 Pseudopotentials for H to Kr optimized for gradient-corrected
 exchange-correlation functionals.
 https://doi.org/10.1007/s00214-005-0655-y

 VandeVondele, J; Krack, M; Mohamed, F; Parrinello, M; Chassaing, T;
 Hutter, J. COMPUTER PHYSICS COMMUNICATIONS, 167 (2), 103-128 (2005). 
 QUICKSTEP: Fast and accurate density functional calculations using a
 mixed Gaussian and plane waves approach.
 https://doi.org/10.1016/j.cpc.2004.12.014

 Frigo, M; Johnson, SG. 
 PROCEEDINGS OF THE IEEE, 93 (2), 216-231 (2005). 
 The design and implementation of FFTW3.
 https://doi.org/10.1109/JPROC.2004.840301

 Niklasson, AMN; Tymczak, CJ; Challacombe, M. 
 JOURNAL OF CHEMICAL PHYSICS, 118 (19), 8611-8620 (2003). 
 Trace resetting density matrix purification in O(N)
 self-consistent-field theory.
 https://doi.org/10.1063/1.1559913

 Hartwigsen, C; Goedecker, S; Hutter, J. 
 PHYSICAL REVIEW B, 58 (7), 3641-3662 (1998). 
 Relativistic separable dual-space Gaussian pseudopotentials from H to Rn.
 https://doi.org/10.1103/PhysRevB.58.3641

 Lippert, G; Hutter, J; Parrinello, M. 
 MOLECULAR PHYSICS, 92 (3), 477-487 (1997). 
 A hybrid Gaussian and plane wave density functional scheme.
 https://doi.org/10.1080/002689797170220

 Perdew, JP; Burke, K; Ernzerhof, M. 
 PHYSICAL REVIEW LETTERS, 77 (18), 3865-3868 (1996). 
 Generalized gradient approximation made simple.
 https://doi.org/10.1103/PhysRevLett.77.3865

 Goedecker, S; Teter, M; Hutter, J. 
 PHYSICAL REVIEW B, 54 (3), 1703-1710 (1996). 
 Separable dual-space Gaussian pseudopotentials.
 https://doi.org/10.1103/PhysRevB.54.1703


 -------------------------------------------------------------------------------
 -                                                                             -
 -                                T I M I N G                                  -
 -                                                                             -
 -------------------------------------------------------------------------------
 SUBROUTINE                       CALLS  ASD         SELF TIME        TOTAL TIME
                                MAXIMUM       AVERAGE  MAXIMUM  AVERAGE  MAXIMUM
 CP2K                                 1  1.0    0.025    0.025   72.628   72.628
 qs_energies                          1  2.0    0.000    0.000   71.650   71.650
 ls_scf                               1  3.0    0.000    0.000   71.447   71.447
 ls_scf_main                          6  4.0    0.002    0.002   45.890   45.890
 ls_scf_dm_to_ks                     12  5.0    0.001    0.001   45.642   45.642
 qs_ks_update_qs_env                 13  6.0    0.000    0.000   38.771   38.771
 rebuild_ks_matrix                   13  7.0    0.000    0.000   38.770   38.770
 qs_ks_build_kohn_sham_matrix        13  8.0    0.004    0.004   38.769   38.769
 qs_vxc_create                       13  9.0    0.001    0.001   23.129   23.129
 xc_vxc_pw_create                    13 10.0    0.525    0.525   23.128   23.128
 pao_update                           6  4.0    0.019    0.019   19.940   19.940
 pw_transfer                        248 11.1    0.036    0.036   19.871   19.871
 fft_wrap_pw1pw2                    222 12.3    0.005    0.005   19.326   19.326
 fft_wrap_pw1pw2_200                144 13.7    1.956    1.956   18.605   18.605
 pao_calc_energy                    808  5.0    0.007    0.007   18.077   18.077
 dbcsr_multiply_generic           43123  8.4    0.881    0.881   14.263   14.263
 xc_pw_derive                        78 12.0    0.002    0.002   13.235   13.235
 xc_rho_set_and_dset_create          13 11.0    0.595    0.595   13.219   13.219
 qs_rho_update_rho_low               13  6.0    0.000    0.000   12.381   12.381
 calculate_rho_elec                  13  7.0    0.084    0.084   12.381   12.381
 sum_up_and_integrate                13  9.0    0.267    0.267   12.038   12.038
 integrate_v_rspace                  13 10.0    0.001    0.001   11.771   11.771
 grid_integrate_task_list            13 11.0    9.421    9.421    9.421    9.421
 pao_dm_trs4                        808  6.0    0.007    0.007    9.065    9.065
 xc_pw_divergence                    13 11.0    0.001    0.001    9.046    9.046
 ls_scf_init_matrix_S               814  7.0    0.006    0.006    8.892    8.892
 pao_rebuild_S                      808  6.0    0.003    0.003    8.815    8.815
 density_matrix_trs4                820  7.0    0.304    0.304    8.766    8.766
 fft3d_s                            223 14.2    8.081    8.081    8.160    8.160
 matrix_sqrt_Newton_Schulz          814  8.0    0.215    0.215    8.107    8.107
 grid_collocate_task_list            13  8.0    7.796    7.796    7.796    7.796
 pao_guess_initial_P                  1  4.0    0.000    0.000    5.522    5.522
 pao_read_preopt_dm                   1  5.0    0.000    0.000    5.522    5.522
 multiply_cannon                  43123  9.4    2.270    2.270    5.507    5.507
 xc_functional_eval                  13 12.0    0.000    0.000    5.458    5.458
 pbe_lda_eval                        13 13.0    5.457    5.457    5.457    5.457
 make_m2s                         86246  9.4    0.333    0.333    5.334    5.334
 make_images                      86246 10.4    1.304    1.304    4.714    4.714
 pw_gather_s                        105 13.8    4.578    4.578    4.578    4.578
 pw_scatter_s                       117 14.7    4.565    4.565    4.565    4.565
 density_rs2pw                       13  8.0    0.001    0.001    4.501    4.501
 arnoldi_extremal                  1634  8.5    0.023    0.023    2.982    2.982
 arnoldi_normal_ev                 1634  9.5    0.023    0.023    2.959    2.959
 pw_derive                           78 13.0    2.655    2.655    2.655    2.655
 potential_pw2rs                     13 11.0    0.007    0.007    2.348    2.348
 build_subspace                    1634 10.5    0.162    0.162    2.337    2.337
 dbcsr_matrix_vector_mult         39212 11.5    0.230    0.230    2.119    2.119
 pao_calc_AB                       1062  5.8    0.018    0.018    1.920    1.920
 pao_calc_AB_equi                  1062  6.8    0.067    0.067    1.902    1.902
 pw_copy                            156 11.8    1.811    1.811    1.811    1.811
 pao_calc_grad_lnv_wrt_AB           253  7.0    0.016    0.016    1.675    1.675
 dbcsr_finalize                  103032  9.6    0.260    0.260    1.508    1.508
 -------------------------------------------------------------------------------

 The number of warnings for this run is : 0
 
 -------------------------------------------------------------------------------
  **** **** ******  **  PROGRAM ENDED AT                 2023-02-01 10:49:08.364
 ***** ** ***  *** **   PROGRAM RAN ON                                    moritz
 **    ****   ******    PROGRAM RAN BY                                       ole
 ***** **    ** ** **   PROGRAM PROCESS ID                                148680
  **** **  *******  **  PROGRAM STOPPED IN /home/ole/git/pao_ml_equivar/2H2O_MD/
                                           frame_0125
