 DBCSR| CPU Multiplication driver                                           BLAS
 DBCSR| Multrec recursion limit                                              512
 DBCSR| Multiplication stack size                                           1000
 DBCSR| Maximum elements for images                                    UNLIMITED
 DBCSR| Multiplicative factor virtual images                                   1
 DBCSR| Use multiplication densification                                       T
 DBCSR| Multiplication size stacks                                             3


  **** **** ******  **  PROGRAM STARTED AT               2019-03-28 17:31:45.739
 ***** ** ***  *** **   PROGRAM STARTED ON        oleschuett.zrh.corp.google.com
 **    ****   ******    PROGRAM STARTED BY                            oleschuett
 ***** **    ** ** **   PROGRAM PROCESS ID                                 29192
  **** **  *******  **  PROGRAM STARTED IN /usr/local/google/home/oleschuett/git
                                           /pao_ml_equivar/2H2O_rotations/phi_03

 CP2K| version string:                    CP2K version 7.0 (Development Version)
 CP2K| source code revision number:                                git:d9814d431
 CP2K| cp2kflags: libint fftw3 libxc libderiv_max_am1=5 libint_max_am=6         
 CP2K| is freely available from                            https://www.cp2k.org/
 CP2K| Program compiled at                          Mon Mar 25 16:50:07 CET 2019
 CP2K| Program compiled on                        oleschuett.zrh.corp.google.com
 CP2K| Program compiled for                                                local
 CP2K| Data directory path       /usr/local/google/home/oleschuett/git/cp2k/data
 CP2K| Input file name                                            2H2O_pao44.inp

 GLOBAL| Force Environment number                                              1
 GLOBAL| Basis set file name                                        BASIS_MOLOPT
 GLOBAL| Potential file name                                      GTH_POTENTIALS
 GLOBAL| MM Potential file name                                     MM_POTENTIAL
 GLOBAL| Coordinate file name                                         coords.xyz
 GLOBAL| Method name                                                        CP2K
 GLOBAL| Project name                                                 2H2O_pao44
 GLOBAL| Preferred FFT library                                             FFTW3
 GLOBAL| Preferred diagonalization lib.                                       SL
 GLOBAL| Run type                                                         ENERGY
 GLOBAL| All-to-all communication in single precision                          F
 GLOBAL| FFTs using library dependent lengths                                  F
 GLOBAL| Global print level                                                  LOW
 GLOBAL| MPI I/O enabled                                                       T
 GLOBAL| Total number of message passing processes                             1
 GLOBAL| Number of threads for this process                                    1
 GLOBAL| This output is from process                                           0
 GLOBAL| CPU model name :  Intel(R) Xeon(R) CPU E5-1650 v4 @ 3.60GHz

 MEMORY| system memory details [Kb]
 MEMORY|                        rank 0           min           max       average
 MEMORY| MemTotal             65953612      65953612      65953612      65953612
 MEMORY| MemFree               6589040       6589040       6589040       6589040
 MEMORY| Buffers               2547996       2547996       2547996       2547996
 MEMORY| Cached               25385676      25385676      25385676      25385676
 MEMORY| Slab                  3623792       3623792       3623792       3623792
 MEMORY| SReclaimable          2422904       2422904       2422904       2422904
 MEMORY| MemLikelyFree        36945616      36945616      36945616      36945616


 GENERATE|  Preliminary Number of Bonds generated:                             0
 GENERATE|  Achieved consistency in connectivity generation.

 *******************************************************************************
 *******************************************************************************
 **                                                                           **
 **     #####                         ##              ##                      **
 **    ##   ##            ##          ##              ##                      **
 **   ##     ##                       ##            ######                    **
 **   ##     ##  ##   ##  ##   #####  ##  ##   ####   ##    #####    #####    **
 **   ##     ##  ##   ##  ##  ##      ## ##   ##      ##   ##   ##  ##   ##   **
 **   ##  ## ##  ##   ##  ##  ##      ####     ###    ##   ######   ######    **
 **    ##  ###   ##   ##  ##  ##      ## ##      ##   ##   ##       ##        **
 **     #######   #####   ##   #####  ##  ##  ####    ##    #####   ##        **
 **           ##                                                    ##        **
 **                                                                           **
 **                                                ... make the atoms dance   **
 **                                                                           **
 **            Copyright (C) by CP2K developers group (2000 - 2018)           **
 **                                                                           **
 *******************************************************************************


 TOTAL NUMBERS AND MAXIMUM NUMBERS

  Total number of            - Atomic kinds:                                   2
                             - Atoms:                                          6
                             - Shell sets:                                     6
                             - Shells:                                        22
                             - Primitive Cartesian functions:                 42
                             - Cartesian basis functions:                     48
                             - Spherical basis functions:                     46

  Maximum angular momentum of- Orbital basis functions:                        2
                             - Local part of the GTH pseudopotential:          2
                             - Non-local part of the GTH pseudopotential:      0

 ------------------------------ Linear scaling SCF -----------------------------
 eps_scf:                                                              0.100E-07
 eps_filter:                                                           0.100E-07
 mixing_fraction:                                                      0.450E+00
 max_scf:                                                                     25
 fixed chemical potential (mu)                                                 F
 has unit metric:                                                              F
 Computing inv(S):                                                             T
 Computing sqrt(S):                                                            T
 Computing s preconditioner                                                    F
 sign sqrt order:                                                              3
 Extrapolation order:                                                          1
 Use single precision matrices                                                 F
 S preconditioner type                                                      NONE
 Polarized Atomic Orbitals (PAO)                                               T
 Purification method                                   Trace resetting 4th order
 Cluster type                                                             ATOMIC
 Computing Chebyshev                                                       FALSE
 Using PAO                                                                     T
 -------------------------------------------------------------------------------

 
 PAO|                                  EPS_PAO                           0.1E-04
 PAO|                                  MIXING                            0.5E+00
 PAO|                                  MAX_PAO                              1000
 PAO|                                  MAX_CYCLES                           1000
 PAO|                                  PARAMETERIZATION                   DIRECT
 PAO|                                  PRECONDITION                            F
 PAO|                                  REGULARIZATION                    0.0E+00
 PAO|                                  EPS_PGF                           0.1E-09
 PAO|                                  PENALTY_DISTANCE                  0.1E+00
 PAO|                                  PENALTY_STRENGTH                  0.5E-02
 PAO|                                  LINPOT_PRECONDITION_DELTA         0.0E+00
 PAO|                                  LINPOT_INITGUESS_DELT             0.0E+00
 PAO|                                  LINPOT_REGULARIZATION_DELTA       0.0E+00
 PAO|                                  LINPOT_REGULARIZATION_STRENGTH    0.0E+00
 PAO|                                  OPTIMIZER                              CG
 PAO|                                  CG_INIT_STEPS                           2
 PAO|                                  CG_RESET_LIMIT                    0.1E+00
 PAO|                                  CHECK_UNITARY_TOL                -0.1E+01
 PAO|                                  CHECK_GRADIENT_TOL               -0.1E+01
 PAO|                                  NUM_GRADIENT_ORDER                      2
 PAO|                                  NUM_GRADIENT_EPS                  0.1E-07
 PAO|                                  PRINT%RESTART%WRITE_CYCLES            100
 PAO|                                  RESTART_FILE 
 PAO|                                  PREOPT_DM_FILE 2H2O_ref_LS_DM_SPIN_1_RESTART.dm
 PAO|                                  MACHINE_LEARNING%METHOD        GAUSSIAN_P
 PAO|                                  MACHINE_LEARNING%PRIOR               ZERO
 PAO|                                  MACHINE_LEARNING%DESCRIPTOR     POTENTIAL
 PAO|                                  MACHINE_LEARNING%TOLERANCE        0.1E-01
 PAO|                                  MACHINE_LEARNING%GP_NOISE_VAR     0.1E+00
 PAO|                                  MACHINE_LEARNING%GP_SCALE         0.5E-01
 

 Calculating atomic Fock matrix for atomic kind: O

 Electronic structure
    Total number of core electrons                                          2.00
    Total number of valence electrons                                       6.00
    Total number of electrons                                               8.00
    Multiplicity                                                   not specified
    S   [  2.00] 2.00
    P      4.00


 *******************************************************************************
                  Iteration          Convergence                     Energy [au]
 *******************************************************************************
                          1        0.708315                     -15.576645311500
                          2        0.608879                     -15.587933561584
                          3        0.102828E-01                 -15.656849565404
                          4        0.113889E-02                 -15.656866888140
                          5        0.434197E-03                 -15.656867072159
                          6        0.263771E-03                 -15.656867091904
                          7        0.478536E-06                 -15.656867103452

 Energy components [Hartree]           Total Energy ::          -15.656867103452
                                        Band Energy ::           -3.000198112285
                                     Kinetic Energy ::           11.759971203220
                                   Potential Energy ::          -27.416838306672
                                      Virial (-V/T) ::            2.331369510426
                                        Core Energy ::          -26.140716385623
                                          XC Energy ::           -3.154051012914
                                     Coulomb Energy ::           13.637900295084
                       Total Pseudopotential Energy ::          -37.935781716540
                       Local Pseudopotential Energy ::          -39.218907440693
                    Nonlocal Pseudopotential Energy ::            1.283125724153
                                        Confinement ::            0.350941276976

 Orbital energies  State     L     Occupation   Energy[a.u.]          Energy[eV]

                       1     0          2.000      -0.864471          -23.523463

                       1     1          4.000      -0.317814           -8.648154


 Total Electron Density at R=0:                                         0.000068

 Calculating atomic Fock matrix for atomic kind: H

 Electronic structure
    Total number of core electrons                                          0.00
    Total number of valence electrons                                       1.00
    Total number of electrons                                               1.00
    Multiplicity                                                   not specified
    S      1.00


 *******************************************************************************
                  Iteration          Convergence                     Energy [au]
 *******************************************************************************
                          1        0.437545E-02                  -0.424159432110
                          2        0.531356E-03                  -0.424178438213
                          3        0.259176E-06                  -0.424178722480

 Energy components [Hartree]           Total Energy ::           -0.424178722480
                                        Band Energy ::           -0.199015229016
                                     Kinetic Energy ::            0.464007633961
                                   Potential Energy ::           -0.888186356441
                                      Virial (-V/T) ::            1.914163240935
                                        Core Energy ::           -0.479160803564
                                          XC Energy ::           -0.244352904054
                                     Coulomb Energy ::            0.299334985138
                       Total Pseudopotential Energy ::           -0.962295316385
                       Local Pseudopotential Energy ::           -0.962295316385
                    Nonlocal Pseudopotential Energy ::            0.000000000000
                                        Confinement ::            0.191268788606

 Orbital energies  State     L     Occupation   Energy[a.u.]          Energy[eV]

                       1     0          1.000      -0.199015           -5.415480


 Total Electron Density at R=0:                                         0.242907
 PAO| Made initial guess for matrix_X with norm:   4.8989794855663558     

     Lanczos converged:  T threshold:   0.100E-02
     Est. extremal eigenvalues:    0.336E+01   0.110E+00
     Est. condition number :    0.306E+02
     NS sqrt iter    1 1.00000000   0.820E+00       0.002       36.887
     NS sqrt iter    2 1.00000000   0.440E+00       0.002       63.069
     NS sqrt iter    3 1.00000000   0.171E+00       0.016        6.918
     NS sqrt iter    4 1.00000000   0.213E-01       0.006       18.474
     NS sqrt iter    5 1.00000000   0.640E-04       0.002       44.438
     Final NS sqrt iter    5 1.00000000   0.351E-08

 PAO| Read restart DM 2H2O_ref_LS_DM_SPIN_1_RESTART.dm with checksum:    57.342589195968138     
 PAO| Quickstep energy from restart density:  -34.450349707247931     
 PAO| ======================= Iteration:         1 =============================

     Lanczos converged:  T threshold:   0.100E-02
     Est. extremal eigenvalues:    0.336E+01   0.110E+00
     Est. condition number :    0.306E+02
     NS sqrt iter    1 1.00000000   0.820E+00       0.002       42.244
     NS sqrt iter    2 1.00000000   0.440E+00       0.001       91.382
     NS sqrt iter    3 1.00000000   0.171E+00       0.001       91.611
     NS sqrt iter    4 1.00000000   0.213E-01       0.001       85.650
     NS sqrt iter    5 1.00000000   0.640E-04       0.001       86.724
     Final NS sqrt iter    5 1.00000000   0.351E-08

     Est. extremal eigenvalues     -0.92055     1.96553  converged:  T
     TRS4 it   1 1.00000000   0.901E+00       0.000       16.128   0.100E-07
     TRS4 it   2 1.00000000   0.712E+00       0.001       32.256   0.100E-07
     TRS4 it   3 1.00000000   0.507E+00       0.001       32.256   0.100E-07
     TRS4 it   4 1.00000000   0.320E+00       0.001       32.256   0.100E-07
     TRS4 it   5 1.00000000   0.160E+00       0.001       32.256   0.100E-07
     TRS4 it   6 1.00000000   0.514E-01       0.001       32.256   0.100E-07
     TRS4 it   7 1.00000000   0.741E-02       0.001       32.256   0.100E-07
     TRS4 it   8 1.00000000   0.217E-03       0.001       32.256   0.100E-07
     TRS4 it   9 1.00000000   0.210E-06       0.001       32.256   0.100E-07
     TRS4 it  10 1.00000000   0.197E-12       0.001       32.256   0.100E-07
     Final TRS4 iteration   10 1.00000000   0.197E-12
     Chemical potential (mu):      -0.06634
 
 PAO| energy:  -7.6328929046916523      penalty:   3.4512664603419270E-033
 PAO|CG| warming up with steepest descent
 PAO|CG| beta:    0.0000000000000000     
 PAO| norm of gradient:  0.78333575246837250     
 PAO|LS| adapt:  T F F
 PAO|LS| adapt: scan_steps:    0.0000000000000000        0.0000000000000000        0.0000000000000000     
 PAO|LS| adapt: energies:   -7.6328929046916523        0.0000000000000000        0.0000000000000000     
 PAO| ======================= Iteration:         2 =============================

     Lanczos converged:  T threshold:   0.100E-02
     Est. extremal eigenvalues:    0.327E+01   0.122E+00
     Est. condition number :    0.268E+02
     NS sqrt iter    1 1.00000000   0.804E+00       0.002       42.229
     NS sqrt iter    2 1.00000000   0.425E+00       0.001       90.868
     NS sqrt iter    3 1.00000000   0.154E+00       0.001       87.454
     NS sqrt iter    4 1.00000000   0.149E-01       0.001       77.676
     NS sqrt iter    5 1.00000000   0.222E-04       0.001       61.278
     Final NS sqrt iter    5 1.00000000   0.772E-09

     Est. extremal eigenvalues     -0.92422     1.90916  converged:  T
     TRS4 it   1 1.00000000   0.900E+00       0.000       16.128   0.100E-07
     TRS4 it   2 1.00000000   0.694E+00       0.001       32.256   0.100E-07
     TRS4 it   3 1.00000000   0.493E+00       0.001       32.256   0.100E-07
     TRS4 it   4 1.00000000   0.301E+00       0.001       32.256   0.100E-07
     TRS4 it   5 1.00000000   0.142E+00       0.001       32.256   0.100E-07
     TRS4 it   6 1.00000000   0.404E-01       0.001       32.256   0.100E-07
     TRS4 it   7 1.00000000   0.462E-02       0.001       32.256   0.100E-07
     TRS4 it   8 1.00000000   0.851E-04       0.001       32.256   0.100E-07
     TRS4 it   9 1.00000000   0.321E-07       0.001       32.256   0.100E-07
     Final TRS4 iteration    9 1.00000000   0.321E-07
     Chemical potential (mu):      -0.05441
 
 PAO| energy:  -7.6883719172756786      penalty:   2.2485642615856459E-008
 PAO|LS| adapt:  T T F
 PAO|LS| adapt: scan_steps:    0.0000000000000000       0.10000000000000001        0.0000000000000000     
 PAO|LS| adapt: energies:   -7.6328929046916523       -7.6883719172756786        0.0000000000000000     
 PAO| ======================= Iteration:         3 =============================

     Lanczos converged:  T threshold:   0.100E-02
     Est. extremal eigenvalues:    0.318E+01   0.133E+00
     Est. condition number :    0.239E+02
     NS sqrt iter    1 1.00000000   0.786E+00       0.001       53.430
     NS sqrt iter    2 1.00000000   0.408E+00       0.001       86.851
     NS sqrt iter    3 1.00000000   0.137E+00       0.001       88.595
     NS sqrt iter    4 1.00000000   0.104E-01       0.001       94.619
     NS sqrt iter    5 1.00000000   0.798E-05       0.001       61.261
     Final NS sqrt iter    5 1.00000000   0.101E-09

     Est. extremal eigenvalues     -0.92766     1.86228  converged:  T
     TRS4 it   1 1.00000000   0.898E+00       0.001       16.128   0.100E-07
     TRS4 it   2 1.00000000   0.678E+00       0.001       32.256   0.100E-07
     TRS4 it   3 1.00000000   0.479E+00       0.001       32.256   0.100E-07
     TRS4 it   4 1.00000000   0.283E+00       0.001       32.256   0.100E-07
     TRS4 it   5 1.00000000   0.124E+00       0.001       32.256   0.100E-07
     TRS4 it   6 1.00000000   0.308E-01       0.001       32.256   0.100E-07
     TRS4 it   7 1.00000000   0.268E-02       0.001       32.256   0.100E-07
     TRS4 it   8 1.00000000   0.286E-04       0.001       32.256   0.100E-07
     TRS4 it   9 1.00000000   0.364E-08       0.001       32.256   0.100E-07
     Final TRS4 iteration    9 1.00000000   0.364E-08
     Chemical potential (mu):      -0.04152
 
 PAO| energy:  -7.7314275229825924      penalty:   3.5977056457118558E-007
 PAO|LS| adapt:  T T F
 PAO|LS| adapt: scan_steps:    0.0000000000000000       0.20000000000000001        0.0000000000000000     
 PAO|LS| adapt: energies:   -7.6328929046916523       -7.7314275229825924        0.0000000000000000     
 PAO| ======================= Iteration:         4 =============================

     Lanczos converged:  T threshold:   0.100E-02
     Est. extremal eigenvalues:    0.299E+01   0.151E+00
     Est. condition number :    0.197E+02
     NS sqrt iter    1 1.00000000   0.749E+00       0.001       43.178
     NS sqrt iter    2 1.00000000   0.374E+00       0.002       65.543
     NS sqrt iter    3 1.00000000   0.108E+00       0.002       67.654
     NS sqrt iter    4 1.00000000   0.522E-02       0.002       71.623
     NS sqrt iter    5 1.00000000   0.119E-05       0.001       65.251
     Final NS sqrt iter    5 1.00000000   0.239E-11

     Est. extremal eigenvalues     -0.93300     1.79067  converged:  T
     TRS4 it   1 1.00000000   0.894E+00       0.001       16.128   0.100E-07
     TRS4 it   2 1.00000000   0.650E+00       0.001       32.256   0.100E-07
     TRS4 it   3 1.00000000   0.452E+00       0.001       32.256   0.100E-07
     TRS4 it   4 1.00000000   0.247E+00       0.001       32.256   0.100E-07
     TRS4 it   5 1.00000000   0.928E-01       0.001       32.256   0.100E-07
     TRS4 it   6 1.00000000   0.167E-01       0.001       32.256   0.100E-07
     TRS4 it   7 1.00000000   0.745E-03       0.001       32.256   0.100E-07
     TRS4 it   8 1.00000000   0.213E-05       0.001       32.256   0.100E-07
     TRS4 it   9 1.00000000   0.202E-10       0.001       32.256   0.100E-07
     Final TRS4 iteration    9 1.00000000   0.202E-10
     Chemical potential (mu):      -0.01296
 
 PAO| energy:  -7.7786544303848792      penalty:   5.7563312948891699E-006
 PAO|LS| Need extra step
 PAO|LS| adapt:  T T F
 PAO|LS| adapt: scan_steps:    0.0000000000000000       0.40000000000000002        0.0000000000000000     
 PAO|LS| adapt: energies:   -7.6328929046916523       -7.7786544303848792        0.0000000000000000     
 PAO| ======================= Iteration:         5 =============================

     Lanczos converged:  T threshold:   0.100E-02
     Est. extremal eigenvalues:    0.264E+01   0.180E+00
     Est. condition number :    0.146E+02
     NS sqrt iter    1 1.00000000   0.686E+00       0.002       41.291
     NS sqrt iter    2 1.00000000   0.313E+00       0.002       62.996
     NS sqrt iter    3 1.00000000   0.669E-01       0.002       64.731
     NS sqrt iter    4 1.00000000   0.146E-02       0.002       64.727
     NS sqrt iter    5 1.00000000   0.311E-07       0.002       40.396
     Final NS sqrt iter    5 1.00000000   0.250E-08

     Est. extremal eigenvalues     -0.93424     1.70289  converged:  T
     TRS4 it   1 1.00000000   0.886E+00       0.001       16.128   0.100E-07
     TRS4 it   2 1.00000000   0.609E+00       0.001       32.256   0.100E-07
     TRS4 it   3 1.00000000   0.404E+00       0.001       32.256   0.100E-07
     TRS4 it   4 1.00000000   0.191E+00       0.001       32.256   0.100E-07
     TRS4 it   5 1.00000000   0.514E-01       0.001       32.256   0.100E-07
     TRS4 it   6 1.00000000   0.463E-02       0.001       32.256   0.100E-07
     TRS4 it   7 1.00000000   0.487E-04       0.001       32.256   0.100E-07
     TRS4 it   8 1.00000000   0.698E-08       0.001       32.256   0.100E-07
     Final TRS4 iteration    8 1.00000000   0.698E-08
     Chemical potential (mu):       0.03583
 
 PAO| energy:  -7.7239011749661337      penalty:   9.2101318812270316E-005
 PAO|LS| Need extra step
 PAO|LS| adapt:  T T T
 PAO|LS| adapt: scan_steps:    0.0000000000000000       0.40000000000000002       0.80000000000000004     
 PAO|LS| adapt: energies:   -7.6328929046916523       -7.7786544303848792       -7.7239011749661337     
 PAO|LS| adapt: suggested step_size:   0.49077462496259588     
 PAO|LS| adapt: predicted energy  -7.7838177063865421     
 PAO| ======================= Iteration:         6 =============================

     Lanczos converged:  T threshold:   0.100E-02
     Est. extremal eigenvalues:    0.290E+01   0.159E+00
     Est. condition number :    0.183E+02
     NS sqrt iter    1 1.00000000   0.733E+00       0.002       41.005
     NS sqrt iter    2 1.00000000   0.359E+00       0.002       63.590
     NS sqrt iter    3 1.00000000   0.962E-01       0.002       64.228
     NS sqrt iter    4 1.00000000   0.386E-02       0.002       64.507
     NS sqrt iter    5 1.00000000   0.517E-06       0.002       50.382
     Final NS sqrt iter    5 1.00000000   0.463E-12

     Est. extremal eigenvalues     -0.93448     1.76554  converged:  T
     TRS4 it   1 1.00000000   0.892E+00       0.001       16.128   0.100E-07
     TRS4 it   2 1.00000000   0.639E+00       0.001       32.256   0.100E-07
     TRS4 it   3 1.00000000   0.440E+00       0.001       32.256   0.100E-07
     TRS4 it   4 1.00000000   0.233E+00       0.001       32.256   0.100E-07
     TRS4 it   5 1.00000000   0.809E-01       0.001       32.256   0.100E-07
     TRS4 it   6 1.00000000   0.124E-01       0.001       32.256   0.100E-07
     TRS4 it   7 1.00000000   0.391E-03       0.001       32.256   0.100E-07
     TRS4 it   8 1.00000000   0.559E-06       0.001       32.256   0.100E-07
     TRS4 it   9 1.00000000   0.137E-11       0.001       32.256   0.100E-07
     Final TRS4 iteration    9 1.00000000   0.137E-11
     Chemical potential (mu):       0.00094
 
 PAO| energy:  -7.7830926881791500      penalty:   1.3044704533394516E-005
 PAO|CG| warming up with steepest descent
 PAO|CG| beta:    0.0000000000000000     
 PAO| norm of gradient:  0.41702073227406095     
 PAO| energy improvement: -0.15019978348749774     
 PAO| step      6                   -7.783092688  0.261E-01  0.491E+00     0.116
 PAO|LS| adapt:  T F F
 PAO|LS| adapt: scan_steps:    0.0000000000000000        0.0000000000000000        0.0000000000000000     
 PAO|LS| adapt: energies:   -7.7830926881791500        0.0000000000000000        0.0000000000000000     
 PAO| ======================= Iteration:         7 =============================

     Lanczos converged:  T threshold:   0.100E-02
     Est. extremal eigenvalues:    0.282E+01   0.172E+00
     Est. condition number :    0.164E+02
     NS sqrt iter    1 1.00000000   0.716E+00       0.002       40.503
     NS sqrt iter    2 1.00000000   0.338E+00       0.002       63.406
     NS sqrt iter    3 1.00000000   0.807E-01       0.002       64.698
     NS sqrt iter    4 1.00000000   0.238E-02       0.002       63.791
     NS sqrt iter    5 1.00000000   0.135E-06       0.002       48.656
     Final NS sqrt iter    5 1.00000000   0.113E-08

     Est. extremal eigenvalues     -0.93620     1.74998  converged:  T
     TRS4 it   1 1.00000000   0.890E+00       0.001       16.128   0.100E-07
     TRS4 it   2 1.00000000   0.636E+00       0.001       32.256   0.100E-07
     TRS4 it   3 1.00000000   0.439E+00       0.001       32.256   0.100E-07
     TRS4 it   4 1.00000000   0.233E+00       0.001       32.256   0.100E-07
     TRS4 it   5 1.00000000   0.815E-01       0.001       32.256   0.100E-07
     TRS4 it   6 1.00000000   0.123E-01       0.001       32.256   0.100E-07
     TRS4 it   7 1.00000000   0.367E-03       0.001       32.256   0.100E-07
     TRS4 it   8 1.00000000   0.467E-06       0.001       32.256   0.100E-07
     TRS4 it   9 1.00000000   0.931E-12       0.001       32.256   0.100E-07
     Final TRS4 iteration    9 1.00000000   0.931E-12
     Chemical potential (mu):       0.00286
 
 PAO| energy:  -7.7772170130090599      penalty:   1.9741139245535563E-005
 PAO|LS| adapt:  T F T
 PAO|LS| adapt: scan_steps:    0.0000000000000000        0.0000000000000000       0.49077462496259588     
 PAO|LS| adapt: energies:   -7.7830926881791500        0.0000000000000000       -7.7772170130090599     
 PAO| ======================= Iteration:         8 =============================

     Lanczos converged:  T threshold:   0.100E-02
     Est. extremal eigenvalues:    0.286E+01   0.165E+00
     Est. condition number :    0.173E+02
     NS sqrt iter    1 1.00000000   0.725E+00       0.002       41.446
     NS sqrt iter    2 1.00000000   0.349E+00       0.002       64.242
     NS sqrt iter    3 1.00000000   0.883E-01       0.002       64.636
     NS sqrt iter    4 1.00000000   0.305E-02       0.002       64.295
     NS sqrt iter    5 1.00000000   0.269E-06       0.002       50.459
     Final NS sqrt iter    5 1.00000000   0.614E-09

     Est. extremal eigenvalues     -0.93629     1.75717  converged:  T
     TRS4 it   1 1.00000000   0.891E+00       0.001       16.128   0.100E-07
     TRS4 it   2 1.00000000   0.637E+00       0.001       32.239   0.100E-07
     TRS4 it   3 1.00000000   0.439E+00       0.001       32.256   0.100E-07
     TRS4 it   4 1.00000000   0.232E+00       0.001       31.364   0.100E-07
     TRS4 it   5 1.00000000   0.809E-01       0.001       32.256   0.100E-07
     TRS4 it   6 1.00000000   0.124E-01       0.001       32.256   0.100E-07
     TRS4 it   7 1.00000000   0.388E-03       0.001       32.256   0.100E-07
     TRS4 it   8 1.00000000   0.542E-06       0.001       32.256   0.100E-07
     TRS4 it   9 1.00000000   0.128E-11       0.001       32.256   0.100E-07
     Final TRS4 iteration    9 1.00000000   0.128E-11
     Chemical potential (mu):       0.00141
 
 PAO| energy:  -7.8027227880188121      penalty:   1.4143683192263021E-005
 PAO|LS| adapt:  T T T
 PAO|LS| adapt: scan_steps:    0.0000000000000000       0.24538731248129794       0.49077462496259588     
 PAO|LS| adapt: energies:   -7.7830926881791500       -7.8027227880188121       -7.7772170130090599     
 PAO|LS| adapt: suggested step_size:   0.22941535953021633     
 PAO|LS| adapt: predicted energy  -7.8028183981039705     
 PAO| ======================= Iteration:         9 =============================

     Lanczos converged:  T threshold:   0.100E-02
     Est. extremal eigenvalues:    0.286E+01   0.165E+00
     Est. condition number :    0.174E+02
     NS sqrt iter    1 1.00000000   0.725E+00       0.002       41.256
     NS sqrt iter    2 1.00000000   0.349E+00       0.002       64.133
     NS sqrt iter    3 1.00000000   0.888E-01       0.002       64.281
     NS sqrt iter    4 1.00000000   0.310E-02       0.002       64.458
     NS sqrt iter    5 1.00000000   0.281E-06       0.002       51.483
     Final NS sqrt iter    5 1.00000000   0.643E-09

     Est. extremal eigenvalues     -0.93623     1.75767  converged:  T
     TRS4 it   1 1.00000000   0.891E+00       0.001       16.128   0.100E-07
     TRS4 it   2 1.00000000   0.637E+00       0.001       32.256   0.100E-07
     TRS4 it   3 1.00000000   0.439E+00       0.001       32.256   0.100E-07
     TRS4 it   4 1.00000000   0.232E+00       0.001       32.256   0.100E-07
     TRS4 it   5 1.00000000   0.809E-01       0.001       32.256   0.100E-07
     TRS4 it   6 1.00000000   0.124E-01       0.001       32.256   0.100E-07
     TRS4 it   7 1.00000000   0.389E-03       0.001       32.256   0.100E-07
     TRS4 it   8 1.00000000   0.545E-06       0.001       32.256   0.100E-07
     TRS4 it   9 1.00000000   0.129E-11       0.001       32.256   0.100E-07
     Final TRS4 iteration    9 1.00000000   0.129E-11
     Chemical potential (mu):       0.00135
 
 PAO| energy:  -7.8028421610351009      penalty:   1.3973311208161727E-005
 PAO|CG| trace_G_new    3.6860297118740948E-002
 PAO|CG| trace_G_prev   0.17390629114639400     
 PAO|CG| trace_G_mix   -1.4405925310396867E-003
 PAO|CG| trace_D   0.17390629114639400     
 PAO|CG| trace_D_Gnew   1.4405925310396867E-003
 PAO|CG| beta:   0.22023866645249204     
 PAO| norm of gradient:  0.19199035683789159     
 PAO| energy improvement:  -1.9749472855950856E-002
 PAO| step      9                   -7.802842161  0.120E-01  0.229E+00     0.082
 PAO|LS| adapt:  T F F
 PAO|LS| adapt: scan_steps:    0.0000000000000000        0.0000000000000000        0.0000000000000000     
 PAO|LS| adapt: energies:   -7.8028421610351009        0.0000000000000000        0.0000000000000000     
 PAO| ======================= Iteration:        10 =============================

     Lanczos converged:  T threshold:   0.100E-02
     Est. extremal eigenvalues:    0.283E+01   0.171E+00
     Est. condition number :    0.166E+02
     NS sqrt iter    1 1.00000000   0.717E+00       0.002       40.341
     NS sqrt iter    2 1.00000000   0.341E+00       0.002       63.665
     NS sqrt iter    3 1.00000000   0.832E-01       0.002       63.432
     NS sqrt iter    4 1.00000000   0.255E-02       0.002       64.458
     NS sqrt iter    5 1.00000000   0.156E-06       0.002       49.370
     Final NS sqrt iter    5 1.00000000   0.101E-08

     Est. extremal eigenvalues     -0.93712     1.74897  converged:  T
     TRS4 it   1 1.00000000   0.888E+00       0.001       16.128   0.100E-07
     TRS4 it   2 1.00000000   0.634E+00       0.001       32.256   0.100E-07
     TRS4 it   3 1.00000000   0.436E+00       0.001       32.256   0.100E-07
     TRS4 it   4 1.00000000   0.229E+00       0.001       32.256   0.100E-07
     TRS4 it   5 1.00000000   0.785E-01       0.001       32.256   0.100E-07
     TRS4 it   6 1.00000000   0.116E-01       0.001       32.256   0.100E-07
     TRS4 it   7 1.00000000   0.336E-03       0.001       32.256   0.100E-07
     TRS4 it   8 1.00000000   0.396E-06       0.001       32.256   0.100E-07
     TRS4 it   9 1.00000000   0.671E-12       0.001       32.256   0.100E-07
     Final TRS4 iteration    9 1.00000000   0.671E-12
     Chemical potential (mu):       0.00454
 
 PAO| energy:  -7.8078728199568133      penalty:   1.4511886216586630E-005
 PAO|LS| adapt:  T T F
 PAO|LS| adapt: scan_steps:    0.0000000000000000       0.22941535953021633        0.0000000000000000     
 PAO|LS| adapt: energies:   -7.8028421610351009       -7.8078728199568133        0.0000000000000000     
 PAO| ======================= Iteration:        11 =============================

     Lanczos converged:  T threshold:   0.100E-02
     Est. extremal eigenvalues:    0.279E+01   0.177E+00
     Est. condition number :    0.158E+02
     NS sqrt iter    1 1.00000000   0.710E+00       0.002       41.087
     NS sqrt iter    2 1.00000000   0.333E+00       0.002       65.503
     NS sqrt iter    3 1.00000000   0.778E-01       0.002       62.799
     NS sqrt iter    4 1.00000000   0.209E-02       0.002       63.327
     NS sqrt iter    5 1.00000000   0.849E-07       0.002       47.404
     Final NS sqrt iter    5 1.00000000   0.674E-09

     Est. extremal eigenvalues     -0.93703     1.74137  converged:  T
     TRS4 it   1 1.00000000   0.885E+00       0.001       16.128   0.100E-07
     TRS4 it   2 1.00000000   0.632E+00       0.001       32.256   0.100E-07
     TRS4 it   3 1.00000000   0.434E+00       0.001       32.256   0.100E-07
     TRS4 it   4 1.00000000   0.226E+00       0.001       32.256   0.100E-07
     TRS4 it   5 1.00000000   0.761E-01       0.001       32.256   0.100E-07
     TRS4 it   6 1.00000000   0.108E-01       0.001       32.256   0.100E-07
     TRS4 it   7 1.00000000   0.289E-03       0.001       32.256   0.100E-07
     TRS4 it   8 1.00000000   0.283E-06       0.001       32.256   0.100E-07
     TRS4 it   9 1.00000000   0.336E-12       0.001       32.256   0.100E-07
     Final TRS4 iteration    9 1.00000000   0.336E-12
     Chemical potential (mu):       0.00785
 
 PAO| energy:  -7.8064419346366920      penalty:   1.5719605690881293E-005
 PAO|LS| adapt:  T T T
 PAO|LS| adapt: scan_steps:    0.0000000000000000       0.22941535953021633       0.45883071906043266     
 PAO|LS| adapt: energies:   -7.8028421610351009       -7.8078728199568133       -7.8064419346366920     
 PAO|LS| adapt: suggested step_size:   0.29331984769340935     
 PAO|LS| adapt: predicted energy  -7.8081235024852020     
 PAO| ======================= Iteration:        12 =============================

     Lanczos converged:  T threshold:   0.100E-02
     Est. extremal eigenvalues:    0.281E+01   0.172E+00
     Est. condition number :    0.163E+02
     NS sqrt iter    1 1.00000000   0.715E+00       0.002       40.807
     NS sqrt iter    2 1.00000000   0.339E+00       0.002       64.042
     NS sqrt iter    3 1.00000000   0.816E-01       0.002       63.756
     NS sqrt iter    4 1.00000000   0.242E-02       0.002       64.467
     NS sqrt iter    5 1.00000000   0.132E-06       0.002       48.600
     Final NS sqrt iter    5 1.00000000   0.109E-08

     Est. extremal eigenvalues     -0.93720     1.74674  converged:  T
     TRS4 it   1 1.00000000   0.887E+00       0.001       16.128   0.100E-07
     TRS4 it   2 1.00000000   0.634E+00       0.001       32.256   0.100E-07
     TRS4 it   3 1.00000000   0.436E+00       0.001       32.256   0.100E-07
     TRS4 it   4 1.00000000   0.228E+00       0.001       32.256   0.100E-07
     TRS4 it   5 1.00000000   0.778E-01       0.001       32.256   0.100E-07
     TRS4 it   6 1.00000000   0.114E-01       0.001       32.256   0.100E-07
     TRS4 it   7 1.00000000   0.322E-03       0.001       32.256   0.100E-07
     TRS4 it   8 1.00000000   0.361E-06       0.001       32.256   0.100E-07
     TRS4 it   9 1.00000000   0.555E-12       0.001       32.256   0.100E-07
     Final TRS4 iteration    9 1.00000000   0.555E-12
     Chemical potential (mu):       0.00546
 
 PAO| energy:  -7.8081073945237289      penalty:   1.4773455717404186E-005
 PAO|CG| trace_G_new    1.1807077165091799E-002
 PAO|CG| trace_G_prev    3.6860297118740948E-002
 PAO|CG| trace_G_mix   -4.6053682314484232E-004
 PAO|CG| trace_D    4.4661085623277509E-002
 PAO|CG| trace_D_Gnew   2.1084916674143244E-004
 PAO|CG| beta:   0.33281375754291997     
 PAO| norm of gradient:  0.10866037532187986     
 PAO| energy improvement:  -5.2652334886280627E-003
 PAO| step     12                   -7.808107395  0.679E-02  0.293E+00     0.082
 PAO|LS| adapt:  T F F
 PAO|LS| adapt: scan_steps:    0.0000000000000000        0.0000000000000000        0.0000000000000000     
 PAO|LS| adapt: energies:   -7.8081073945237289        0.0000000000000000        0.0000000000000000     
 PAO| ======================= Iteration:        13 =============================

     Lanczos converged:  T threshold:   0.100E-02
     Est. extremal eigenvalues:    0.278E+01   0.176E+00
     Est. condition number :    0.158E+02
     NS sqrt iter    1 1.00000000   0.708E+00       0.002       40.689
     NS sqrt iter    2 1.00000000   0.332E+00       0.002       63.242
     NS sqrt iter    3 1.00000000   0.773E-01       0.002       63.472
     NS sqrt iter    4 1.00000000   0.207E-02       0.002       63.544
     NS sqrt iter    5 1.00000000   0.828E-07       0.002       47.128
     Final NS sqrt iter    5 1.00000000   0.667E-09

     Est. extremal eigenvalues     -0.93768     1.73848  converged:  T
     TRS4 it   1 1.00000000   0.886E+00       0.001       16.128   0.100E-07
     TRS4 it   2 1.00000000   0.630E+00       0.001       32.256   0.100E-07
     TRS4 it   3 1.00000000   0.432E+00       0.001       32.256   0.100E-07
     TRS4 it   4 1.00000000   0.223E+00       0.001       32.256   0.100E-07
     TRS4 it   5 1.00000000   0.741E-01       0.001       32.256   0.100E-07
     TRS4 it   6 1.00000000   0.102E-01       0.001       32.256   0.100E-07
     TRS4 it   7 1.00000000   0.258E-03       0.001       32.256   0.100E-07
     TRS4 it   8 1.00000000   0.226E-06       0.001       32.256   0.100E-07
     TRS4 it   9 1.00000000   0.213E-12       0.001       32.256   0.100E-07
     Final TRS4 iteration    9 1.00000000   0.213E-12
     Chemical potential (mu):       0.01003
 
 PAO| energy:  -7.8101718794827413      penalty:   1.5078442062238612E-005
 PAO|LS| adapt:  T T F
 PAO|LS| adapt: scan_steps:    0.0000000000000000       0.29331984769340935        0.0000000000000000     
 PAO|LS| adapt: energies:   -7.8081073945237289       -7.8101718794827413        0.0000000000000000     
 PAO| ======================= Iteration:        14 =============================

     Lanczos converged:  T threshold:   0.100E-02
     Est. extremal eigenvalues:    0.275E+01   0.181E+00
     Est. condition number :    0.152E+02
     NS sqrt iter    1 1.00000000   0.701E+00       0.002       40.856
     NS sqrt iter    2 1.00000000   0.325E+00       0.002       63.834
     NS sqrt iter    3 1.00000000   0.732E-01       0.002       64.686
     NS sqrt iter    4 1.00000000   0.176E-02       0.002       63.446
     NS sqrt iter    5 1.00000000   0.519E-07       0.002       45.647
     Final NS sqrt iter    5 1.00000000   0.436E-09

     Est. extremal eigenvalues     -0.93766     1.73057  converged:  T
     TRS4 it   1 1.00000000   0.885E+00       0.001       16.128   0.100E-07
     TRS4 it   2 1.00000000   0.627E+00       0.001       32.256   0.100E-07
     TRS4 it   3 1.00000000   0.428E+00       0.001       32.256   0.100E-07
     TRS4 it   4 1.00000000   0.218E+00       0.001       32.256   0.100E-07
     TRS4 it   5 1.00000000   0.706E-01       0.001       32.256   0.100E-07
     TRS4 it   6 1.00000000   0.923E-02       0.001       32.256   0.100E-07
     TRS4 it   7 1.00000000   0.207E-03       0.001       32.256   0.100E-07
     TRS4 it   8 1.00000000   0.141E-06       0.001       32.256   0.100E-07
     TRS4 it   9 1.00000000   0.808E-13       0.001       32.256   0.100E-07
     Final TRS4 iteration    9 1.00000000   0.808E-13
     Chemical potential (mu):       0.01451
 
 PAO| energy:  -7.8095296218863925      penalty:   1.5861139352711136E-005
 PAO|LS| adapt:  T T T
 PAO|LS| adapt: scan_steps:    0.0000000000000000       0.29331984769340935       0.58663969538681870     
 PAO|LS| adapt: energies:   -7.8081073945237289       -7.8101718794827413       -7.8095296218863925     
 PAO|LS| adapt: suggested step_size:   0.37038065138447984     
 PAO|LS| adapt: predicted energy  -7.8102652911496131     
 PAO| ======================= Iteration:        15 =============================

     Lanczos converged:  T threshold:   0.100E-02
     Est. extremal eigenvalues:    0.277E+01   0.178E+00
     Est. condition number :    0.156E+02
     NS sqrt iter    1 1.00000000   0.706E+00       0.002       40.665
     NS sqrt iter    2 1.00000000   0.330E+00       0.002       64.326
     NS sqrt iter    3 1.00000000   0.762E-01       0.002       65.187
     NS sqrt iter    4 1.00000000   0.198E-02       0.002       63.737
     NS sqrt iter    5 1.00000000   0.732E-07       0.002       46.468
     Final NS sqrt iter    5 1.00000000   0.590E-09

     Est. extremal eigenvalues     -0.93772     1.73637  converged:  T
     TRS4 it   1 1.00000000   0.886E+00       0.001       16.128   0.100E-07
     TRS4 it   2 1.00000000   0.629E+00       0.001       32.256   0.100E-07
     TRS4 it   3 1.00000000   0.431E+00       0.001       32.256   0.100E-07
     TRS4 it   4 1.00000000   0.222E+00       0.001       32.256   0.100E-07
     TRS4 it   5 1.00000000   0.732E-01       0.001       32.256   0.100E-07
     TRS4 it   6 1.00000000   0.997E-02       0.001       32.256   0.100E-07
     TRS4 it   7 1.00000000   0.244E-03       0.001       32.256   0.100E-07
     TRS4 it   8 1.00000000   0.199E-06       0.001       32.256   0.100E-07
     TRS4 it   9 1.00000000   0.165E-12       0.001       32.256   0.100E-07
     Final TRS4 iteration    9 1.00000000   0.165E-12
     Chemical potential (mu):       0.01122
 
 PAO| energy:  -7.8102622301572655      penalty:   1.5234759705733565E-005
 PAO|CG| trace_G_new    2.6222849731836425E-003
 PAO|CG| trace_G_prev    1.1807077165091799E-002
 PAO|CG| trace_G_mix    6.4548133954350873E-005
 PAO|CG| trace_D    1.6613615182626426E-002
 PAO|CG| trace_D_Gnew   3.3915533052728385E-005
 PAO|CG| beta:   0.21662743483978963     
 PAO| norm of gradient:   5.1208251026408261E-002
 PAO| energy improvement:  -2.1548356335365781E-003
 PAO| step     15                   -7.810262230  0.320E-02  0.370E+00     0.082
 PAO|LS| adapt:  T F F
 PAO|LS| adapt: scan_steps:    0.0000000000000000        0.0000000000000000        0.0000000000000000     
 PAO|LS| adapt: energies:   -7.8102622301572655        0.0000000000000000        0.0000000000000000     
 PAO| ======================= Iteration:        16 =============================

     Lanczos converged:  T threshold:   0.100E-02
     Est. extremal eigenvalues:    0.276E+01   0.178E+00
     Est. condition number :    0.155E+02
     NS sqrt iter    1 1.00000000   0.705E+00       0.002       40.532
     NS sqrt iter    2 1.00000000   0.329E+00       0.002       63.827
     NS sqrt iter    3 1.00000000   0.755E-01       0.002       64.868
     NS sqrt iter    4 1.00000000   0.192E-02       0.002       63.956
     NS sqrt iter    5 1.00000000   0.669E-07       0.002       45.993
     Final NS sqrt iter    5 1.00000000   0.579E-09

     Est. extremal eigenvalues     -0.93775     1.73501  converged:  T
     TRS4 it   1 1.00000000   0.886E+00       0.001       16.128   0.100E-07
     TRS4 it   2 1.00000000   0.628E+00       0.001       32.256   0.100E-07
     TRS4 it   3 1.00000000   0.429E+00       0.001       32.256   0.100E-07
     TRS4 it   4 1.00000000   0.220E+00       0.001       32.256   0.100E-07
     TRS4 it   5 1.00000000   0.719E-01       0.001       32.256   0.100E-07
     TRS4 it   6 1.00000000   0.965E-02       0.001       32.256   0.100E-07
     TRS4 it   7 1.00000000   0.229E-03       0.001       32.256   0.100E-07
     TRS4 it   8 1.00000000   0.178E-06       0.001       32.256   0.100E-07
     TRS4 it   9 1.00000000   0.133E-12       0.001       32.256   0.100E-07
     Final TRS4 iteration    9 1.00000000   0.133E-12
     Chemical potential (mu):       0.01206
 
 PAO| energy:  -7.8103884425630543      penalty:   1.5015979025541275E-005
 PAO|LS| adapt:  T T F
 PAO|LS| adapt: scan_steps:    0.0000000000000000       0.37038065138447984        0.0000000000000000     
 PAO|LS| adapt: energies:   -7.8102622301572655       -7.8103884425630543        0.0000000000000000     
 PAO| ======================= Iteration:        17 =============================

     Lanczos converged:  T threshold:   0.100E-02
     Est. extremal eigenvalues:    0.275E+01   0.179E+00
     Est. condition number :    0.154E+02
     NS sqrt iter    1 1.00000000   0.703E+00       0.002       40.809
     NS sqrt iter    2 1.00000000   0.328E+00       0.002       63.853
     NS sqrt iter    3 1.00000000   0.749E-01       0.002       63.912
     NS sqrt iter    4 1.00000000   0.187E-02       0.002       65.407
     NS sqrt iter    5 1.00000000   0.613E-07       0.002       46.975
     Final NS sqrt iter    5 1.00000000   0.560E-09

     Est. extremal eigenvalues     -0.93765     1.73371  converged:  T
     TRS4 it   1 1.00000000   0.886E+00       0.001       16.128   0.100E-07
     TRS4 it   2 1.00000000   0.627E+00       0.001       32.256   0.100E-07
     TRS4 it   3 1.00000000   0.428E+00       0.001       32.256   0.100E-07
     TRS4 it   4 1.00000000   0.219E+00       0.001       32.256   0.100E-07
     TRS4 it   5 1.00000000   0.707E-01       0.001       32.256   0.100E-07
     TRS4 it   6 1.00000000   0.934E-02       0.001       32.256   0.100E-07
     TRS4 it   7 1.00000000   0.216E-03       0.001       32.256   0.100E-07
     TRS4 it   8 1.00000000   0.159E-06       0.001       32.256   0.100E-07
     TRS4 it   9 1.00000000   0.107E-12       0.001       32.256   0.100E-07
     Final TRS4 iteration    9 1.00000000   0.107E-12
     Chemical potential (mu):       0.01289
 
 PAO| energy:  -7.8088245007826904      penalty:   1.4923136658083776E-005
 PAO|LS| adapt:  T T T
 PAO|LS| adapt: scan_steps:    0.0000000000000000       0.37038065138447984       0.74076130276895968     
 PAO|LS| adapt: energies:   -7.8102622301572655       -7.8103884425630543       -7.8088245007826904     
 PAO|LS| adapt: suggested step_size:   0.21284853193865913     
 PAO|LS| adapt: predicted energy  -7.8105413180944305     
 PAO| ======================= Iteration:        18 =============================

     Lanczos converged:  T threshold:   0.100E-02
     Est. extremal eigenvalues:    0.277E+01   0.178E+00
     Est. condition number :    0.156E+02
     NS sqrt iter    1 1.00000000   0.705E+00       0.002       41.010
     NS sqrt iter    2 1.00000000   0.329E+00       0.002       64.519
     NS sqrt iter    3 1.00000000   0.758E-01       0.002       63.302
     NS sqrt iter    4 1.00000000   0.195E-02       0.002       64.676
     NS sqrt iter    5 1.00000000   0.695E-07       0.002       47.264
     Final NS sqrt iter    5 1.00000000   0.567E-09

     Est. extremal eigenvalues     -0.93775     1.73558  converged:  T
     TRS4 it   1 1.00000000   0.886E+00       0.001       16.128   0.100E-07
     TRS4 it   2 1.00000000   0.629E+00       0.001       32.256   0.100E-07
     TRS4 it   3 1.00000000   0.430E+00       0.001       32.256   0.100E-07
     TRS4 it   4 1.00000000   0.221E+00       0.001       32.256   0.100E-07
     TRS4 it   5 1.00000000   0.724E-01       0.001       32.256   0.100E-07
     TRS4 it   6 1.00000000   0.978E-02       0.001       32.256   0.100E-07
     TRS4 it   7 1.00000000   0.235E-03       0.001       32.256   0.100E-07
     TRS4 it   8 1.00000000   0.187E-06       0.001       32.256   0.100E-07
     TRS4 it   9 1.00000000   0.146E-12       0.001       32.256   0.100E-07
     Final TRS4 iteration    9 1.00000000   0.146E-12
     Chemical potential (mu):       0.01171
 
 PAO| energy:  -7.8105408621771897      penalty:   1.5093918554550304E-005
 PAO|CG| trace_G_new    7.2616361560060700E-004
 PAO|CG| trace_G_prev    2.6222849731836425E-003
 PAO|CG| trace_G_mix    1.4272199932315204E-006
 PAO|CG| trace_D    3.3872254247912263E-003
 PAO|CG| trace_D_Gnew  -1.7314131194860240E-006
 PAO|CG| beta:   0.27637590994829725     
 PAO| norm of gradient:   2.6947423171810082E-002
 PAO| energy improvement:  -2.7863201992417430E-004
 PAO| step     18                   -7.810540862  0.168E-02  0.213E+00     0.082
 PAO|LS| adapt:  T F F
 PAO|LS| adapt: scan_steps:    0.0000000000000000        0.0000000000000000        0.0000000000000000     
 PAO|LS| adapt: energies:   -7.8105408621771897        0.0000000000000000        0.0000000000000000     
 PAO| ======================= Iteration:        19 =============================

     Lanczos converged:  T threshold:   0.100E-02
     Est. extremal eigenvalues:    0.277E+01   0.178E+00
     Est. condition number :    0.156E+02
     NS sqrt iter    1 1.00000000   0.705E+00       0.002       40.619
     NS sqrt iter    2 1.00000000   0.330E+00       0.002       64.059
     NS sqrt iter    3 1.00000000   0.760E-01       0.002       64.532
     NS sqrt iter    4 1.00000000   0.196E-02       0.002       63.281
     NS sqrt iter    5 1.00000000   0.703E-07       0.002       46.998
     Final NS sqrt iter    5 1.00000000   0.579E-09

     Est. extremal eigenvalues     -0.93775     1.73563  converged:  T
     TRS4 it   1 1.00000000   0.886E+00       0.001       16.128   0.100E-07
     TRS4 it   2 1.00000000   0.629E+00       0.001       32.256   0.100E-07
     TRS4 it   3 1.00000000   0.430E+00       0.001       32.256   0.100E-07
     TRS4 it   4 1.00000000   0.221E+00       0.001       32.256   0.100E-07
     TRS4 it   5 1.00000000   0.723E-01       0.001       32.256   0.100E-07
     TRS4 it   6 1.00000000   0.977E-02       0.001       32.256   0.100E-07
     TRS4 it   7 1.00000000   0.236E-03       0.001       32.256   0.100E-07
     TRS4 it   8 1.00000000   0.189E-06       0.001       32.256   0.100E-07
     TRS4 it   9 1.00000000   0.151E-12       0.001       32.256   0.100E-07
     Final TRS4 iteration    9 1.00000000   0.151E-12
     Chemical potential (mu):       0.01142
 
 PAO| energy:  -7.8106588159875825      penalty:   1.4804698349314511E-005
 PAO|LS| adapt:  T T F
 PAO|LS| adapt: scan_steps:    0.0000000000000000       0.21284853193865913        0.0000000000000000     
 PAO|LS| adapt: energies:   -7.8105408621771897       -7.8106588159875825        0.0000000000000000     
 PAO| ======================= Iteration:        20 =============================

     Lanczos converged:  T threshold:   0.100E-02
     Est. extremal eigenvalues:    0.277E+01   0.178E+00
     Est. condition number :    0.156E+02
     NS sqrt iter    1 1.00000000   0.705E+00       0.002       40.865
     NS sqrt iter    2 1.00000000   0.330E+00       0.002       57.573
     NS sqrt iter    3 1.00000000   0.762E-01       0.002       64.400
     NS sqrt iter    4 1.00000000   0.197E-02       0.002       61.811
     NS sqrt iter    5 1.00000000   0.712E-07       0.002       46.732
     Final NS sqrt iter    5 1.00000000   0.592E-09

     Est. extremal eigenvalues     -0.93775     1.73569  converged:  T
     TRS4 it   1 1.00000000   0.886E+00       0.001       16.128   0.100E-07
     TRS4 it   2 1.00000000   0.628E+00       0.001       32.256   0.100E-07
     TRS4 it   3 1.00000000   0.429E+00       0.001       32.256   0.100E-07
     TRS4 it   4 1.00000000   0.221E+00       0.001       32.256   0.100E-07
     TRS4 it   5 1.00000000   0.722E-01       0.001       32.256   0.100E-07
     TRS4 it   6 1.00000000   0.976E-02       0.001       32.256   0.100E-07
     TRS4 it   7 1.00000000   0.236E-03       0.001       32.256   0.100E-07
     TRS4 it   8 1.00000000   0.192E-06       0.001       32.256   0.100E-07
     TRS4 it   9 1.00000000   0.156E-12       0.001       32.256   0.100E-07
     Final TRS4 iteration    9 1.00000000   0.156E-12
     Chemical potential (mu):       0.01114
 
 PAO| energy:  -7.8107029555697709      penalty:   1.4527936724013686E-005
 PAO|LS| adapt:  T T F
 PAO|LS| adapt: scan_steps:    0.0000000000000000       0.42569706387731826        0.0000000000000000     
 PAO|LS| adapt: energies:   -7.8105408621771897       -7.8107029555697709        0.0000000000000000     
 PAO| ======================= Iteration:        21 =============================

     Lanczos converged:  T threshold:   0.100E-02
     Est. extremal eigenvalues:    0.277E+01   0.177E+00
     Est. condition number :    0.156E+02
     NS sqrt iter    1 1.00000000   0.705E+00       0.002       40.769
     NS sqrt iter    2 1.00000000   0.330E+00       0.002       63.350
     NS sqrt iter    3 1.00000000   0.767E-01       0.002       64.564
     NS sqrt iter    4 1.00000000   0.199E-02       0.002       63.862
     NS sqrt iter    5 1.00000000   0.730E-07       0.002       47.611
     Final NS sqrt iter    5 1.00000000   0.613E-09

     Est. extremal eigenvalues     -0.93774     1.73581  converged:  T
     TRS4 it   1 1.00000000   0.886E+00       0.001       16.128   0.100E-07
     TRS4 it   2 1.00000000   0.628E+00       0.001       32.256   0.100E-07
     TRS4 it   3 1.00000000   0.429E+00       0.001       32.256   0.100E-07
     TRS4 it   4 1.00000000   0.220E+00       0.001       32.256   0.100E-07
     TRS4 it   5 1.00000000   0.720E-01       0.001       32.256   0.100E-07
     TRS4 it   6 1.00000000   0.973E-02       0.001       32.256   0.100E-07
     TRS4 it   7 1.00000000   0.237E-03       0.001       32.256   0.100E-07
     TRS4 it   8 1.00000000   0.197E-06       0.001       32.256   0.100E-07
     TRS4 it   9 1.00000000   0.167E-12       0.001       32.256   0.100E-07
     Final TRS4 iteration    9 1.00000000   0.167E-12
     Chemical potential (mu):       0.01056
 
 PAO| energy:  -7.8105674318284626      penalty:   1.4011207343642984E-005
 PAO|LS| Need extra step
 PAO|LS| adapt:  T T T
 PAO|LS| adapt: scan_steps:    0.0000000000000000       0.42569706387731826       0.85139412775463652     
 PAO|LS| adapt: energies:   -7.8105408621771897       -7.8107029555697709       -7.8105674318284626     
 PAO|LS| adapt: suggested step_size:   0.44469903192146337     
 PAO|LS| adapt: predicted energy  -7.8107032520691533     
 PAO| ======================= Iteration:        22 =============================

     Lanczos converged:  T threshold:   0.100E-02
     Est. extremal eigenvalues:    0.277E+01   0.178E+00
     Est. condition number :    0.156E+02
     NS sqrt iter    1 1.00000000   0.705E+00       0.002       40.477
     NS sqrt iter    2 1.00000000   0.330E+00       0.002       63.160
     NS sqrt iter    3 1.00000000   0.763E-01       0.002       63.889
     NS sqrt iter    4 1.00000000   0.197E-02       0.002       62.932
     NS sqrt iter    5 1.00000000   0.712E-07       0.002       47.307
     Final NS sqrt iter    5 1.00000000   0.594E-09

     Est. extremal eigenvalues     -0.93775     1.73569  converged:  T
     TRS4 it   1 1.00000000   0.886E+00       0.001       16.128   0.100E-07
     TRS4 it   2 1.00000000   0.628E+00       0.001       32.256   0.100E-07
     TRS4 it   3 1.00000000   0.429E+00       0.001       32.256   0.100E-07
     TRS4 it   4 1.00000000   0.221E+00       0.001       32.256   0.100E-07
     TRS4 it   5 1.00000000   0.722E-01       0.001       32.256   0.100E-07
     TRS4 it   6 1.00000000   0.976E-02       0.001       32.256   0.100E-07
     TRS4 it   7 1.00000000   0.236E-03       0.001       32.256   0.100E-07
     TRS4 it   8 1.00000000   0.192E-06       0.001       32.256   0.100E-07
     TRS4 it   9 1.00000000   0.156E-12       0.001       32.256   0.100E-07
     Final TRS4 iteration    9 1.00000000   0.156E-12
     Chemical potential (mu):       0.01111
 
 PAO| energy:  -7.8107032871364446      penalty:   1.4503828687087265E-005
 PAO|CG| trace_G_new    2.2219542443513180E-004
 PAO|CG| trace_G_prev    7.2616361560060700E-004
 PAO|CG| trace_G_mix    2.9526047243218514E-006
 PAO|CG| trace_D    9.8584927699265821E-004
 PAO|CG| trace_D_Gnew  -1.8384012184603938E-006
 PAO|CG| beta:   0.30191931267373551     
 PAO| norm of gradient:   1.4906220997795913E-002
 PAO| energy improvement:  -1.6242495925489209E-004
 PAO| step     22                   -7.810703287  0.932E-03  0.445E+00     0.107
 PAO|LS| adapt:  T F F
 PAO|LS| adapt: scan_steps:    0.0000000000000000        0.0000000000000000        0.0000000000000000     
 PAO|LS| adapt: energies:   -7.8107032871364446        0.0000000000000000        0.0000000000000000     
 PAO| ======================= Iteration:        23 =============================

     Lanczos converged:  T threshold:   0.100E-02
     Est. extremal eigenvalues:    0.277E+01   0.178E+00
     Est. condition number :    0.156E+02
     NS sqrt iter    1 1.00000000   0.705E+00       0.002       40.273
     NS sqrt iter    2 1.00000000   0.330E+00       0.002       64.108
     NS sqrt iter    3 1.00000000   0.763E-01       0.002       63.437
     NS sqrt iter    4 1.00000000   0.197E-02       0.002       64.003
     NS sqrt iter    5 1.00000000   0.711E-07       0.002       46.996
     Final NS sqrt iter    5 1.00000000   0.594E-09

     Est. extremal eigenvalues     -0.93775     1.73515  converged:  T
     TRS4 it   1 1.00000000   0.885E+00       0.001       16.128   0.100E-07
     TRS4 it   2 1.00000000   0.628E+00       0.001       32.256   0.100E-07
     TRS4 it   3 1.00000000   0.429E+00       0.001       32.256   0.100E-07
     TRS4 it   4 1.00000000   0.221E+00       0.001       32.256   0.100E-07
     TRS4 it   5 1.00000000   0.723E-01       0.001       32.256   0.100E-07
     TRS4 it   6 1.00000000   0.979E-02       0.001       32.256   0.100E-07
     TRS4 it   7 1.00000000   0.239E-03       0.001       32.256   0.100E-07
     TRS4 it   8 1.00000000   0.197E-06       0.001       32.256   0.100E-07
     TRS4 it   9 1.00000000   0.164E-12       0.001       32.256   0.100E-07
     Final TRS4 iteration    9 1.00000000   0.164E-12
     Chemical potential (mu):       0.01078
 
 PAO| energy:  -7.8107527735429549      penalty:   1.3822061108675062E-005
 PAO|LS| adapt:  T T F
 PAO|LS| adapt: scan_steps:    0.0000000000000000       0.44469903192146337        0.0000000000000000     
 PAO|LS| adapt: energies:   -7.8107032871364446       -7.8107527735429549        0.0000000000000000     
 PAO| ======================= Iteration:        24 =============================

     Lanczos converged:  T threshold:   0.100E-02
     Est. extremal eigenvalues:    0.277E+01   0.178E+00
     Est. condition number :    0.156E+02
     NS sqrt iter    1 1.00000000   0.705E+00       0.002       40.366
     NS sqrt iter    2 1.00000000   0.330E+00       0.002       64.542
     NS sqrt iter    3 1.00000000   0.763E-01       0.002       63.664
     NS sqrt iter    4 1.00000000   0.197E-02       0.002       64.641
     NS sqrt iter    5 1.00000000   0.710E-07       0.002       47.205
     Final NS sqrt iter    5 1.00000000   0.604E-09

     Est. extremal eigenvalues     -0.93775     1.73461  converged:  T
     TRS4 it   1 1.00000000   0.885E+00       0.001       16.128   0.100E-07
     TRS4 it   2 1.00000000   0.628E+00       0.001       32.256   0.100E-07
     TRS4 it   3 1.00000000   0.429E+00       0.001       32.256   0.100E-07
     TRS4 it   4 1.00000000   0.221E+00       0.001       32.256   0.100E-07
     TRS4 it   5 1.00000000   0.723E-01       0.001       32.256   0.100E-07
     TRS4 it   6 1.00000000   0.983E-02       0.001       32.256   0.100E-07
     TRS4 it   7 1.00000000   0.241E-03       0.001       32.256   0.100E-07
     TRS4 it   8 1.00000000   0.201E-06       0.001       32.256   0.100E-07
     TRS4 it   9 1.00000000   0.172E-12       0.001       32.256   0.100E-07
     Final TRS4 iteration    9 1.00000000   0.172E-12
     Chemical potential (mu):       0.01045
 
 PAO| energy:  -7.8107024937133858      penalty:   1.3168689139552140E-005
 PAO|LS| adapt:  T T T
 PAO|LS| adapt: scan_steps:    0.0000000000000000       0.44469903192146337       0.88939806384292674     
 PAO|LS| adapt: energies:   -7.8107032871364446       -7.8107527735429549       -7.8107024937133858     
 PAO|LS| adapt: suggested step_size:   0.44293072592926741     
 PAO|LS| adapt: predicted energy  -7.8107527743316991     
 PAO| ======================= Iteration:        25 =============================

     Lanczos converged:  T threshold:   0.100E-02
     Est. extremal eigenvalues:    0.277E+01   0.178E+00
     Est. condition number :    0.156E+02
     NS sqrt iter    1 1.00000000   0.705E+00       0.002       40.764
     NS sqrt iter    2 1.00000000   0.330E+00       0.002       63.638
     NS sqrt iter    3 1.00000000   0.763E-01       0.002       64.536
     NS sqrt iter    4 1.00000000   0.197E-02       0.002       64.316
     NS sqrt iter    5 1.00000000   0.711E-07       0.002       47.066
     Final NS sqrt iter    5 1.00000000   0.594E-09

     Est. extremal eigenvalues     -0.93775     1.73516  converged:  T
     TRS4 it   1 1.00000000   0.885E+00       0.001       16.128   0.100E-07
     TRS4 it   2 1.00000000   0.628E+00       0.001       32.256   0.100E-07
     TRS4 it   3 1.00000000   0.429E+00       0.001       32.256   0.100E-07
     TRS4 it   4 1.00000000   0.221E+00       0.001       32.256   0.100E-07
     TRS4 it   5 1.00000000   0.723E-01       0.001       32.256   0.100E-07
     TRS4 it   6 1.00000000   0.979E-02       0.001       32.256   0.100E-07
     TRS4 it   7 1.00000000   0.239E-03       0.001       32.256   0.100E-07
     TRS4 it   8 1.00000000   0.197E-06       0.001       32.256   0.100E-07
     TRS4 it   9 1.00000000   0.164E-12       0.001       32.256   0.100E-07
     Final TRS4 iteration    9 1.00000000   0.164E-12
     Chemical potential (mu):       0.01078
 
 PAO| energy:  -7.8107527737101634      penalty:   1.3824715455926484E-005
 PAO|CG| trace_G_new    7.9585579810057054E-005
 PAO|CG| trace_G_prev    2.2219542443513180E-004
 PAO|CG| trace_G_mix    6.9170703319775517E-007
 PAO|CG| trace_D    3.1317088046935426E-004
 PAO|CG| trace_D_Gnew  -3.5153174496019136E-007
 PAO|CG| beta:   0.35506524482862040     
 PAO| norm of gradient:   8.9210750366789902E-003
 PAO| energy improvement:  -4.9486573718837690E-005
 PAO| step     25                   -7.810752774  0.558E-03  0.443E+00     0.082
 PAO|LS| adapt:  T F F
 PAO|LS| adapt: scan_steps:    0.0000000000000000        0.0000000000000000        0.0000000000000000     
 PAO|LS| adapt: energies:   -7.8107527737101634        0.0000000000000000        0.0000000000000000     
 PAO| ======================= Iteration:        26 =============================

     Lanczos converged:  T threshold:   0.100E-02
     Est. extremal eigenvalues:    0.277E+01   0.178E+00
     Est. condition number :    0.156E+02
     NS sqrt iter    1 1.00000000   0.705E+00       0.002       40.958
     NS sqrt iter    2 1.00000000   0.330E+00       0.002       57.781
     NS sqrt iter    3 1.00000000   0.762E-01       0.002       63.734
     NS sqrt iter    4 1.00000000   0.196E-02       0.002       64.207
     NS sqrt iter    5 1.00000000   0.701E-07       0.002       46.119
     Final NS sqrt iter    5 1.00000000   0.597E-09

     Est. extremal eigenvalues     -0.93775     1.73437  converged:  T
     TRS4 it   1 1.00000000   0.885E+00       0.001       16.128   0.100E-07
     TRS4 it   2 1.00000000   0.628E+00       0.001       32.256   0.100E-07
     TRS4 it   3 1.00000000   0.429E+00       0.001       32.256   0.100E-07
     TRS4 it   4 1.00000000   0.220E+00       0.001       32.256   0.100E-07
     TRS4 it   5 1.00000000   0.722E-01       0.001       32.256   0.100E-07
     TRS4 it   6 1.00000000   0.976E-02       0.001       32.256   0.100E-07
     TRS4 it   7 1.00000000   0.237E-03       0.001       32.256   0.100E-07
     TRS4 it   8 1.00000000   0.194E-06       0.001       32.256   0.100E-07
     TRS4 it   9 1.00000000   0.159E-12       0.001       32.256   0.100E-07
     Final TRS4 iteration    9 1.00000000   0.159E-12
     Chemical potential (mu):       0.01088
 
 PAO| energy:  -7.8107566711426131      penalty:   1.3101297730749768E-005
 PAO|LS| adapt:  T T F
 PAO|LS| adapt: scan_steps:    0.0000000000000000       0.44293072592926741        0.0000000000000000     
 PAO|LS| adapt: energies:   -7.8107527737101634       -7.8107566711426131        0.0000000000000000     
 PAO| ======================= Iteration:        27 =============================

     Lanczos converged:  T threshold:   0.100E-02
     Est. extremal eigenvalues:    0.277E+01   0.178E+00
     Est. condition number :    0.155E+02
     NS sqrt iter    1 1.00000000   0.705E+00       0.002       41.772
     NS sqrt iter    2 1.00000000   0.330E+00       0.002       63.641
     NS sqrt iter    3 1.00000000   0.761E-01       0.002       64.006
     NS sqrt iter    4 1.00000000   0.195E-02       0.002       64.223
     NS sqrt iter    5 1.00000000   0.692E-07       0.002       46.185
     Final NS sqrt iter    5 1.00000000   0.591E-09

     Est. extremal eigenvalues     -0.93775     1.73359  converged:  T
     TRS4 it   1 1.00000000   0.885E+00       0.001       16.128   0.100E-07
     TRS4 it   2 1.00000000   0.628E+00       0.001       32.256   0.100E-07
     TRS4 it   3 1.00000000   0.429E+00       0.001       32.256   0.100E-07
     TRS4 it   4 1.00000000   0.220E+00       0.001       32.256   0.100E-07
     TRS4 it   5 1.00000000   0.720E-01       0.001       32.256   0.100E-07
     TRS4 it   6 1.00000000   0.973E-02       0.001       32.256   0.100E-07
     TRS4 it   7 1.00000000   0.236E-03       0.001       32.256   0.100E-07
     TRS4 it   8 1.00000000   0.191E-06       0.001       32.256   0.100E-07
     TRS4 it   9 1.00000000   0.154E-12       0.001       32.256   0.100E-07
     Final TRS4 iteration    9 1.00000000   0.154E-12
     Chemical potential (mu):       0.01099
 
 PAO| energy:  -7.8106976468285536      penalty:   1.2401633373349230E-005
 PAO|LS| adapt:  T T T
 PAO|LS| adapt: scan_steps:    0.0000000000000000       0.44293072592926741       0.88586145185853482     
 PAO|LS| adapt: energies:   -7.8107527737101634       -7.8107566711426131       -7.8106976468285536     
 PAO|LS| adapt: suggested step_size:   0.24890091076747090     
 PAO|LS| adapt: predicted energy  -7.8107627083500271     
 PAO| ======================= Iteration:        28 =============================

     Lanczos converged:  T threshold:   0.100E-02
     Est. extremal eigenvalues:    0.277E+01   0.178E+00
     Est. condition number :    0.156E+02
     NS sqrt iter    1 1.00000000   0.705E+00       0.002       40.807
     NS sqrt iter    2 1.00000000   0.330E+00       0.002       61.133
     NS sqrt iter    3 1.00000000   0.762E-01       0.002       63.454
     NS sqrt iter    4 1.00000000   0.197E-02       0.002       62.639
     NS sqrt iter    5 1.00000000   0.706E-07       0.002       46.729
     Final NS sqrt iter    5 1.00000000   0.596E-09

     Est. extremal eigenvalues     -0.93775     1.73472  converged:  T
     TRS4 it   1 1.00000000   0.885E+00       0.001       16.128   0.100E-07
     TRS4 it   2 1.00000000   0.628E+00       0.001       32.256   0.100E-07
     TRS4 it   3 1.00000000   0.429E+00       0.001       32.256   0.100E-07
     TRS4 it   4 1.00000000   0.220E+00       0.001       32.256   0.100E-07
     TRS4 it   5 1.00000000   0.722E-01       0.001       32.256   0.100E-07
     TRS4 it   6 1.00000000   0.977E-02       0.001       32.256   0.100E-07
     TRS4 it   7 1.00000000   0.238E-03       0.001       32.256   0.100E-07
     TRS4 it   8 1.00000000   0.195E-06       0.001       32.256   0.100E-07
     TRS4 it   9 1.00000000   0.161E-12       0.001       32.256   0.100E-07
     Final TRS4 iteration    9 1.00000000   0.161E-12
     Chemical potential (mu):       0.01084
 
 PAO| energy:  -7.8107626991947026      penalty:   1.3415254572377604E-005
 PAO|CG| trace_G_new    3.1636813178306741E-005
 PAO|CG| trace_G_prev    7.9585579810057054E-005
 PAO|CG| trace_G_mix    4.8697758760238936E-008
 PAO|CG| trace_D    1.1931708203862119E-004
 PAO|CG| trace_D_Gnew  -2.4778439169330770E-008
 PAO|CG| beta:   0.39690752388732087     
 PAO| norm of gradient:   5.6246611611995567E-003
 PAO| energy improvement:  -9.9254845391527624E-006
 PAO| step     28                   -7.810762699  0.352E-03  0.249E+00     0.082
 PAO|LS| adapt:  T F F
 PAO|LS| adapt: scan_steps:    0.0000000000000000        0.0000000000000000        0.0000000000000000     
 PAO|LS| adapt: energies:   -7.8107626991947026        0.0000000000000000        0.0000000000000000     
 PAO| ======================= Iteration:        29 =============================

     Lanczos converged:  T threshold:   0.100E-02
     Est. extremal eigenvalues:    0.277E+01   0.178E+00
     Est. condition number :    0.156E+02
     NS sqrt iter    1 1.00000000   0.705E+00       0.002       40.418
     NS sqrt iter    2 1.00000000   0.330E+00       0.002       64.020
     NS sqrt iter    3 1.00000000   0.762E-01       0.002       63.281
     NS sqrt iter    4 1.00000000   0.196E-02       0.002       64.391
     NS sqrt iter    5 1.00000000   0.701E-07       0.002       46.462
     Final NS sqrt iter    5 1.00000000   0.593E-09

     Est. extremal eigenvalues     -0.93775     1.73442  converged:  T
     TRS4 it   1 1.00000000   0.885E+00       0.001       16.128   0.100E-07
     TRS4 it   2 1.00000000   0.628E+00       0.001       32.256   0.100E-07
     TRS4 it   3 1.00000000   0.429E+00       0.001       32.256   0.100E-07
     TRS4 it   4 1.00000000   0.220E+00       0.001       32.256   0.100E-07
     TRS4 it   5 1.00000000   0.721E-01       0.001       32.256   0.100E-07
     TRS4 it   6 1.00000000   0.975E-02       0.001       32.256   0.100E-07
     TRS4 it   7 1.00000000   0.236E-03       0.001       32.256   0.100E-07
     TRS4 it   8 1.00000000   0.192E-06       0.001       32.256   0.100E-07
     TRS4 it   9 1.00000000   0.157E-12       0.001       32.256   0.100E-07
     Final TRS4 iteration    9 1.00000000   0.157E-12
     Chemical potential (mu):       0.01096
 
 PAO| energy:  -7.8107696280558150      penalty:   1.2985944270966137E-005
 PAO|LS| adapt:  T T F
 PAO|LS| adapt: scan_steps:    0.0000000000000000       0.24890091076747090        0.0000000000000000     
 PAO|LS| adapt: energies:   -7.8107626991947026       -7.8107696280558150        0.0000000000000000     
 PAO| ======================= Iteration:        30 =============================

     Lanczos converged:  T threshold:   0.100E-02
     Est. extremal eigenvalues:    0.277E+01   0.178E+00
     Est. condition number :    0.156E+02
     NS sqrt iter    1 1.00000000   0.705E+00       0.002       40.181
     NS sqrt iter    2 1.00000000   0.330E+00       0.002       64.691
     NS sqrt iter    3 1.00000000   0.761E-01       0.002       63.388
     NS sqrt iter    4 1.00000000   0.196E-02       0.002       63.588
     NS sqrt iter    5 1.00000000   0.697E-07       0.002       46.576
     Final NS sqrt iter    5 1.00000000   0.594E-09

     Est. extremal eigenvalues     -0.93776     1.73413  converged:  T
     TRS4 it   1 1.00000000   0.885E+00       0.001       16.128   0.100E-07
     TRS4 it   2 1.00000000   0.628E+00       0.001       32.256   0.100E-07
     TRS4 it   3 1.00000000   0.429E+00       0.001       32.256   0.100E-07
     TRS4 it   4 1.00000000   0.220E+00       0.001       32.256   0.100E-07
     TRS4 it   5 1.00000000   0.720E-01       0.001       32.256   0.100E-07
     TRS4 it   6 1.00000000   0.972E-02       0.001       32.256   0.100E-07
     TRS4 it   7 1.00000000   0.235E-03       0.001       32.256   0.100E-07
     TRS4 it   8 1.00000000   0.190E-06       0.001       32.256   0.100E-07
     TRS4 it   9 1.00000000   0.152E-12       0.001       32.256   0.100E-07
     Final TRS4 iteration    9 1.00000000   0.152E-12
     Chemical potential (mu):       0.01109
 
 PAO| energy:  -7.8107746611829585      penalty:   1.2564411893006365E-005
 PAO|LS| adapt:  T T F
 PAO|LS| adapt: scan_steps:    0.0000000000000000       0.49780182153494179        0.0000000000000000     
 PAO|LS| adapt: energies:   -7.8107626991947026       -7.8107746611829585        0.0000000000000000     
 PAO| ======================= Iteration:        31 =============================

     Lanczos converged:  T threshold:   0.100E-02
     Est. extremal eigenvalues:    0.276E+01   0.178E+00
     Est. condition number :    0.155E+02
     NS sqrt iter    1 1.00000000   0.704E+00       0.002       40.693
     NS sqrt iter    2 1.00000000   0.329E+00       0.002       64.172
     NS sqrt iter    3 1.00000000   0.760E-01       0.002       64.192
     NS sqrt iter    4 1.00000000   0.195E-02       0.002       64.532
     NS sqrt iter    5 1.00000000   0.688E-07       0.002       47.056
     Final NS sqrt iter    5 1.00000000   0.588E-09

     Est. extremal eigenvalues     -0.93776     1.73354  converged:  T
     TRS4 it   1 1.00000000   0.885E+00       0.001       16.128   0.100E-07
     TRS4 it   2 1.00000000   0.628E+00       0.001       32.256   0.100E-07
     TRS4 it   3 1.00000000   0.429E+00       0.001       32.256   0.100E-07
     TRS4 it   4 1.00000000   0.220E+00       0.001       32.221   0.100E-07
     TRS4 it   5 1.00000000   0.718E-01       0.001       32.256   0.100E-07
     TRS4 it   6 1.00000000   0.967E-02       0.001       32.256   0.100E-07
     TRS4 it   7 1.00000000   0.232E-03       0.001       32.256   0.100E-07
     TRS4 it   8 1.00000000   0.185E-06       0.001       32.256   0.100E-07
     TRS4 it   9 1.00000000   0.144E-12       0.001       32.256   0.100E-07
     Final TRS4 iteration    9 1.00000000   0.144E-12
     Chemical potential (mu):       0.01134
 
 PAO| energy:  -7.8107790413240847      penalty:   1.1744525041182639E-005
 PAO|LS| Need extra step
 PAO|LS| adapt:  T T F
 PAO|LS| adapt: scan_steps:    0.0000000000000000       0.99560364306988358        0.0000000000000000     
 PAO|LS| adapt: energies:   -7.8107626991947026       -7.8107790413240847        0.0000000000000000     
 PAO| ======================= Iteration:        32 =============================

     Lanczos converged:  T threshold:   0.100E-02
     Est. extremal eigenvalues:    0.276E+01   0.178E+00
     Est. condition number :    0.155E+02
     NS sqrt iter    1 1.00000000   0.704E+00       0.002       40.699
     NS sqrt iter    2 1.00000000   0.329E+00       0.002       64.233
     NS sqrt iter    3 1.00000000   0.757E-01       0.002       63.407
     NS sqrt iter    4 1.00000000   0.193E-02       0.002       63.316
     NS sqrt iter    5 1.00000000   0.672E-07       0.002       45.873
     Final NS sqrt iter    5 1.00000000   0.597E-09

     Est. extremal eigenvalues     -0.93776     1.73235  converged:  T
     TRS4 it   1 1.00000000   0.885E+00       0.001       16.128   0.100E-07
     TRS4 it   2 1.00000000   0.627E+00       0.001       32.256   0.100E-07
     TRS4 it   3 1.00000000   0.428E+00       0.001       32.256   0.100E-07
     TRS4 it   4 1.00000000   0.219E+00       0.001       32.256   0.100E-07
     TRS4 it   5 1.00000000   0.714E-01       0.001       32.256   0.100E-07
     TRS4 it   6 1.00000000   0.956E-02       0.001       32.256   0.100E-07
     TRS4 it   7 1.00000000   0.227E-03       0.001       32.256   0.100E-07
     TRS4 it   8 1.00000000   0.175E-06       0.001       32.256   0.100E-07
     TRS4 it   9 1.00000000   0.129E-12       0.001       32.256   0.100E-07
     Final TRS4 iteration    9 1.00000000   0.129E-12
     Chemical potential (mu):       0.01183
 
 PAO| energy:  -7.8107650584968322      penalty:   1.0196382466629360E-005
 PAO|LS| Need extra step
 PAO|LS| adapt:  T T T
 PAO|LS| adapt: scan_steps:    0.0000000000000000       0.99560364306988358        1.9912072861397672     
 PAO|LS| adapt: energies:   -7.8107626991947026       -7.8107790413240847       -7.8107650584968322     
 PAO|LS| adapt: suggested step_size:    1.0343329613619208     
 PAO|LS| adapt: predicted energy  -7.8107790642684973     
 PAO| ======================= Iteration:        33 =============================

     Lanczos converged:  T threshold:   0.100E-02
     Est. extremal eigenvalues:    0.276E+01   0.178E+00
     Est. condition number :    0.155E+02
     NS sqrt iter    1 1.00000000   0.704E+00       0.002       41.158
     NS sqrt iter    2 1.00000000   0.329E+00       0.002       63.438
     NS sqrt iter    3 1.00000000   0.759E-01       0.002       64.193
     NS sqrt iter    4 1.00000000   0.195E-02       0.002       63.929
     NS sqrt iter    5 1.00000000   0.688E-07       0.002       46.753
     Final NS sqrt iter    5 1.00000000   0.587E-09

     Est. extremal eigenvalues     -0.93776     1.73350  converged:  T
     TRS4 it   1 1.00000000   0.885E+00       0.001       16.128   0.100E-07
     TRS4 it   2 1.00000000   0.628E+00       0.001       32.256   0.100E-07
     TRS4 it   3 1.00000000   0.429E+00       0.001       32.256   0.100E-07
     TRS4 it   4 1.00000000   0.220E+00       0.001       32.256   0.100E-07
     TRS4 it   5 1.00000000   0.718E-01       0.001       32.256   0.100E-07
     TRS4 it   6 1.00000000   0.966E-02       0.001       32.256   0.100E-07
[...]
     NS sqrt iter    3 1.00000000   0.487E-01       0.002       63.045
     NS sqrt iter    4 1.00000000   0.765E-03       0.002       65.409
     NS sqrt iter    5 1.00000000   0.587E-08       0.002       24.039
     Final NS sqrt iter    5 1.00000000   0.342E-09

     Est. extremal eigenvalues     -0.93744     1.63161  converged:  T
     TRS4 it   1 1.00000000   0.880E+00       0.001       16.128   0.100E-07
     TRS4 it   2 1.00000000   0.633E+00       0.001       32.256   0.100E-07
     TRS4 it   3 1.00000000   0.455E+00       0.001       32.256   0.100E-07
     TRS4 it   4 1.00000000   0.278E+00       0.001       32.256   0.100E-07
     TRS4 it   5 1.00000000   0.138E+00       0.001       32.256   0.100E-07
     TRS4 it   6 1.00000000   0.435E-01       0.001       32.256   0.100E-07
     TRS4 it   7 1.00000000   0.604E-02       0.001       32.256   0.100E-07
     TRS4 it   8 1.00000000   0.155E-03       0.001       32.256   0.100E-07
     TRS4 it   9 1.00000000   0.107E-06       0.001       32.256   0.100E-07
     TRS4 it  10 1.00000000   0.515E-13       0.001       32.256   0.100E-07
     Final TRS4 iteration   10 1.00000000   0.515E-13
     Chemical potential (mu):      -0.07655
 
 PAO| energy:  -7.8098475478418727      penalty:   2.9776431939240845E-008
 PAO|LS| Need extra step
 PAO|LS| adapt:  T T T
 PAO|LS| adapt: scan_steps:    0.0000000000000000       0.20000000000000001       0.40000000000000002     
 PAO|LS| adapt: energies:   -7.8098475438262511       -7.8098475491744903       -7.8098475478418727     
 PAO|LS| adapt: suggested step_size:   0.26010638693875127     
 PAO|LS| adapt: predicted energy  -7.8098475494761956     
 PAO| ======================= Iteration:       411 =============================

     Lanczos converged:  T threshold:   0.100E-02
     Est. extremal eigenvalues:    0.249E+01   0.190E+00
     Est. condition number :    0.131E+02
     NS sqrt iter    1 1.00000000   0.633E+00       0.001       43.914
     NS sqrt iter    2 1.00000000   0.275E+00       0.001       74.778
     NS sqrt iter    3 1.00000000   0.487E-01       0.001       75.528
     NS sqrt iter    4 1.00000000   0.765E-03       0.001       74.274
     NS sqrt iter    5 1.00000000   0.587E-08       0.001       30.980
     Final NS sqrt iter    5 1.00000000   0.342E-09

     Est. extremal eigenvalues     -0.93744     1.63160  converged:  T
     TRS4 it   1 1.00000000   0.880E+00       0.001       16.128   0.100E-07
     TRS4 it   2 1.00000000   0.633E+00       0.001       32.256   0.100E-07
     TRS4 it   3 1.00000000   0.455E+00       0.001       32.256   0.100E-07
     TRS4 it   4 1.00000000   0.278E+00       0.001       32.256   0.100E-07
     TRS4 it   5 1.00000000   0.138E+00       0.001       30.405   0.100E-07
     TRS4 it   6 1.00000000   0.435E-01       0.001       30.395   0.100E-07
     TRS4 it   7 1.00000000   0.604E-02       0.001       30.456   0.100E-07
     TRS4 it   8 1.00000000   0.155E-03       0.001       25.999   0.100E-07
     TRS4 it   9 1.00000000   0.107E-06       0.001       30.474   0.100E-07
     TRS4 it  10 1.00000000   0.517E-13       0.001       25.585   0.100E-07
     Final TRS4 iteration   10 1.00000000   0.517E-13
     Chemical potential (mu):      -0.07655
 
 PAO| energy:  -7.8098475494762036      penalty:   3.0115812703517034E-008
 PAO|CG| warming up with steepest descent
 PAO|CG| beta:    0.0000000000000000     
 PAO| norm of gradient:   1.3746362133913446E-004
 PAO| energy improvement:  -5.6499525058484323E-009
 PAO| step    411                   -7.809847549  0.859E-05  0.260E+00     0.111
 PAO| converged after          411  steps :-)
 PAO| Recalculating energy after mixing.

     Lanczos converged:  T threshold:   0.100E-02
     Est. extremal eigenvalues:    0.249E+01   0.190E+00
     Est. condition number :    0.131E+02
     NS sqrt iter    1 1.00000000   0.633E+00       0.002       40.872
     NS sqrt iter    2 1.00000000   0.275E+00       0.002       65.863
     NS sqrt iter    3 1.00000000   0.487E-01       0.002       58.691
     NS sqrt iter    4 1.00000000   0.765E-03       0.002       65.588
     NS sqrt iter    5 1.00000000   0.587E-08       0.001       27.073
     Final NS sqrt iter    5 1.00000000   0.342E-09

     Est. extremal eigenvalues     -0.93744     1.63160  converged:  T
     TRS4 it   1 1.00000000   0.880E+00       0.001       16.128   0.100E-07
     TRS4 it   2 1.00000000   0.633E+00       0.001       28.222   0.100E-07
     TRS4 it   3 1.00000000   0.455E+00       0.001       32.256   0.100E-07
     TRS4 it   4 1.00000000   0.278E+00       0.001       32.256   0.100E-07
     TRS4 it   5 1.00000000   0.138E+00       0.001       32.256   0.100E-07
     TRS4 it   6 1.00000000   0.435E-01       0.001       32.256   0.100E-07
     TRS4 it   7 1.00000000   0.604E-02       0.001       32.256   0.100E-07
     TRS4 it   8 1.00000000   0.155E-03       0.001       32.256   0.100E-07
     TRS4 it   9 1.00000000   0.107E-06       0.001       32.256   0.100E-07
     TRS4 it  10 1.00000000   0.522E-13       0.001       32.256   0.100E-07
     Final TRS4 iteration   10 1.00000000   0.522E-13
     Chemical potential (mu):      -0.07655
 
 PAO| energy:  -7.8098475480637042      penalty:   3.0433039811114218E-008
 PAO| Writing restart file.
     Est. extremal eigenvalues     -0.93744     1.63160  converged:  T
     TRS4 it   1 1.00000000   0.880E+00       0.001       16.128   0.100E-07
     TRS4 it   2 1.00000000   0.633E+00       0.001       32.256   0.100E-07
     TRS4 it   3 1.00000000   0.455E+00       0.001       32.256   0.100E-07
     TRS4 it   4 1.00000000   0.278E+00       0.001       32.256   0.100E-07
     TRS4 it   5 1.00000000   0.138E+00       0.001       32.256   0.100E-07
     TRS4 it   6 1.00000000   0.435E-01       0.001       32.256   0.100E-07
     TRS4 it   7 1.00000000   0.604E-02       0.001       32.256   0.100E-07
     TRS4 it   8 1.00000000   0.155E-03       0.001       32.256   0.100E-07
     TRS4 it   9 1.00000000   0.107E-06       0.001       32.256   0.100E-07
     TRS4 it  10 1.00000000   0.522E-13       0.001       29.106   0.100E-07
     Final TRS4 iteration   10 1.00000000   0.522E-13
     Chemical potential (mu):      -0.07655

 SCF     1       -34.449803530       -34.449803530    2.285331

*********************************************************
 Using MIXING_FRACTION=0.450 to mix KS matrix:  iscf=  2
 KS_nw=0.450*KS + 0.550*KS_old
*********************************************************
     Est. extremal eigenvalues     -0.93745     1.63160  converged:  T
     TRS4 it   1 1.00000000   0.880E+00       0.001       16.128   0.100E-07
     TRS4 it   2 1.00000000   0.633E+00       0.001       32.256   0.100E-07
     TRS4 it   3 1.00000000   0.455E+00       0.001       32.256   0.100E-07
     TRS4 it   4 1.00000000   0.278E+00       0.001       32.256   0.100E-07
     TRS4 it   5 1.00000000   0.138E+00       0.001       32.256   0.100E-07
     TRS4 it   6 1.00000000   0.435E-01       0.001       32.256   0.100E-07
     TRS4 it   7 1.00000000   0.604E-02       0.001       32.256   0.100E-07
     TRS4 it   8 1.00000000   0.155E-03       0.001       32.256   0.100E-07
     TRS4 it   9 1.00000000   0.107E-06       0.001       32.256   0.100E-07
     TRS4 it  10 1.00000000   0.515E-13       0.001       32.256   0.100E-07
     Final TRS4 iteration   10 1.00000000   0.515E-13
     Chemical potential (mu):      -0.07655

 SCF     2       -34.449803530        -0.000000000    2.434537

 PAO| Storing density matrix for ASPC guess in slot:           1

 ENERGY| Total FORCE_EVAL ( QS ) energy (a.u.):              -34.449803529878594


 -------------------------------------------------------------------------------
 -                                                                             -
 -                                DBCSR STATISTICS                             -
 -                                                                             -
 -------------------------------------------------------------------------------
 COUNTER                                    TOTAL       BLAS       SMM       ACC
 flops     5 x     5 x     4                20000     100.0%      0.0%      0.0%
 flops    13 x     5 x     4                20800     100.0%      0.0%      0.0%
 flops     5 x    13 x     4                20800     100.0%      0.0%      0.0%
 flops    13 x    13 x     4                40560     100.0%      0.0%      0.0%
 flops     4 x     4 x     5              3229440     100.0%      0.0%      0.0%
 flops     5 x     4 x     5              3948800     100.0%      0.0%      0.0%
 flops     4 x     4 x    13              4198272     100.0%      0.0%      0.0%
 flops    13 x     4 x     5              5133440     100.0%      0.0%      0.0%
 flops     5 x     4 x    13              5133440     100.0%      0.0%      0.0%
 flops     5 x     4 x     4              6260000     100.0%      0.0%      0.0%
 flops    13 x     4 x    13              6673472     100.0%      0.0%      0.0%
 flops    13 x     4 x     4              8271744     100.0%      0.0%      0.0%
 flops     4 x     4 x     4            418151424     100.0%      0.0%      0.0%
 flops inhomo. stacks                           0       0.0%      0.0%      0.0%
 flops total                       461.102192E+06     100.0%      0.0%      0.0%
 flops max/rank                    461.102192E+06     100.0%      0.0%      0.0%
 matmuls inhomo. stacks                         0       0.0%      0.0%      0.0%
 matmuls total                            3400727     100.0%      0.0%      0.0%
 number of processed stacks                 27076     100.0%      0.0%      0.0%
 average stack size                                   125.6       0.0       0.0
 marketing flops                   749.822208E+06
 -------------------------------------------------------------------------------
 # multiplications                          22654
 max memory usage/rank             327.520256E+06
 # max total images/rank                        1
 # max 3D layers                                1
 # MPI messages exchanged                       0
 MPI messages size (bytes):
  total size                         0.000000E+00
  min size                           0.000000E+00
  max size                           0.000000E+00
  average size                       0.000000E+00
 MPI breakdown and total messages size (bytes):
             size <=      128                   0                        0
       128 < size <=     8192                   0                        0
      8192 < size <=    32768                   0                        0
     32768 < size <=   131072                   0                        0
    131072 < size <=  4194304                   0                        0
   4194304 < size <= 16777216                   0                        0
  16777216 < size                               0                        0
 -------------------------------------------------------------------------------

 MEMORY| Estimated peak process memory [MiB]                                 313

 -------------------------------------------------------------------------------
 -                                                                             -
 -                           R E F E R E N C E S                               -
 -                                                                             -
 -------------------------------------------------------------------------------
 
 CP2K version 7.0 (Development Version), the CP2K developers group (2018).
 CP2K is freely available from https://www.cp2k.org/ .

 Schuett, O; VandeVondele, J. 
 Journal of Chemical Theory and Computation, 14, (2018). 
 Machine Learning Adaptive Basis Sets for Efficient Large Scale Density Functional Theory Simulation.
 https://dx.doi.org/10.1021/acs.jctc.8b00378


 Schuett, Ole; Messmer, Peter; Hutter, Juerg; VandeVondele, Joost. 
 Electronic Structure Calculations on Graphics Processing Units, John Wiley & Sons, Ltd, 173-190 (2016). 
 GPU-Accelerated Sparse Matrix-Matrix Multiplication for Linear Scaling Density Functional Theory.
 https://dx.doi.org/10.1002/9781118670712.ch8


 Borstnik, U; VandeVondele, J; Weber, V; Hutter, J. 
 PARALLEL COMPUTING, 40 (5-6), 47-58 (2014). 
 Sparse matrix multiplication: The distributed block-compressed sparse
 row library.
 https://dx.doi.org/10.1016/j.parco.2014.03.012


 Hutter, J; Iannuzzi, M; Schiffmann, F; VandeVondele, J. 
 WILEY INTERDISCIPLINARY REVIEWS-COMPUTATIONAL MOLECULAR SCIENCE, 4 (1), 15-25 (2014). 
 CP2K: atomistic simulations of condensed matter systems.
 https://dx.doi.org/10.1002/wcms.1159


 VandeVondele, J; Borstnik, U; Hutter, J. 
 JOURNAL OF CHEMICAL THEORY AND COMPUTATION, 8 (10), 3565-3573 (2012). 
 Linear Scaling Self-Consistent Field Calculations with Millions of Atoms
 in the Condensed Phase.
 https://dx.doi.org/10.1021/ct200897x


 VandeVondele, J; Hutter, J. 
 JOURNAL OF CHEMICAL PHYSICS, 127 (11), 114105 (2007). 
 Gaussian basis sets for accurate calculations on molecular systems in
 gas and condensed phases.
 https://dx.doi.org/10.1063/1.2770708


 Krack, M. 
 THEORETICAL CHEMISTRY ACCOUNTS, 114 (1-3), 145-152 (2005). 
 Pseudopotentials for H to Kr optimized for gradient-corrected
 exchange-correlation functionals.
 https://dx.doi.org/10.1007/s00214-005-0655-y


 VandeVondele, J; Krack, M; Mohamed, F; Parrinello, M; Chassaing, T;
 Hutter, J. COMPUTER PHYSICS COMMUNICATIONS, 167 (2), 103-128 (2005). 
 QUICKSTEP: Fast and accurate density functional calculations using a
 mixed Gaussian and plane waves approach.
 https://dx.doi.org/10.1016/j.cpc.2004.12.014


 Frigo, M; Johnson, SG. 
 PROCEEDINGS OF THE IEEE, 93 (2), 216-231 (2005). 
 The design and implementation of FFTW3.
 https://dx.doi.org/10.1109/JPROC.2004.840301


 Niklasson, AMN; Tymczak, CJ; Challacombe, M. 
 JOURNAL OF CHEMICAL PHYSICS, 118 (19), 8611-8620 (2003). 
 Trace resetting density matrix purification in O(N)
 self-consistent-field theory.
 https://dx.doi.org/10.1063/1.1559913


 Hartwigsen, C; Goedecker, S; Hutter, J. 
 PHYSICAL REVIEW B, 58 (7), 3641-3662 (1998). 
 Relativistic separable dual-space Gaussian pseudopotentials from H to Rn.
 https://dx.doi.org/10.1103/PhysRevB.58.3641


 Lippert, G; Hutter, J; Parrinello, M. 
 MOLECULAR PHYSICS, 92 (3), 477-487 (1997). 
 A hybrid Gaussian and plane wave density functional scheme.
 https://dx.doi.org/10.1080/002689797170220


 Perdew, JP; Burke, K; Ernzerhof, M. 
 PHYSICAL REVIEW LETTERS, 77 (18), 3865-3868 (1996). 
 Generalized gradient approximation made simple.
 https://dx.doi.org/10.1103/PhysRevLett.77.3865


 Goedecker, S; Teter, M; Hutter, J. 
 PHYSICAL REVIEW B, 54 (3), 1703-1710 (1996). 
 Separable dual-space Gaussian pseudopotentials.
 https://dx.doi.org/10.1103/PhysRevB.54.1703


 -------------------------------------------------------------------------------
 -                                                                             -
 -                                T I M I N G                                  -
 -                                                                             -
 -------------------------------------------------------------------------------
 SUBROUTINE                       CALLS  ASD         SELF TIME        TOTAL TIME
                                MAXIMUM       AVERAGE  MAXIMUM  AVERAGE  MAXIMUM
 CP2K                                 1  1.0    0.013    0.013   35.745   35.745
 qs_energies                          1  2.0    0.000    0.000   35.226   35.226
 ls_scf                               1  3.0    0.000    0.000   35.064   35.064
 ls_scf_main                          4  4.0    0.001    0.001   21.023   21.023
 ls_scf_dm_to_ks                      9  5.0    0.000    0.000   20.903   20.903
 qs_ks_update_qs_env                 10  6.0    0.000    0.000   16.446   16.446
 rebuild_ks_matrix                   10  7.0    0.000    0.000   16.446   16.446
 qs_ks_build_kohn_sham_matrix        10  8.0    0.001    0.001   16.446   16.446
 pao_update                           4  4.0    0.011    0.011   11.388   11.388
 pao_calc_energy                    414  5.0    0.005    0.005   10.255   10.255
 qs_vxc_create                       10  9.0    0.000    0.000   10.025   10.025
 xc_vxc_pw_create                    10 10.0    0.131    0.131   10.025   10.025
 dbcsr_multiply_generic           22654  8.4    0.548    0.548    8.849    8.849
 xc_rho_set_and_dset_create          10 11.0    0.035    0.035    7.096    7.096
 pw_transfer                        191 10.6    0.015    0.015    7.004    7.004
 qs_rho_update_rho                   10  6.0    0.000    0.000    6.934    6.934
 calculate_rho_elec                  10  7.0    5.397    5.397    6.934    6.934
 fft_wrap_pw1pw2                    171 11.7    0.002    0.002    6.912    6.912
 fft_wrap_pw1pw2_200                111 12.8    0.351    0.351    6.610    6.610
 sum_up_and_integrate                10  9.0    0.023    0.023    5.512    5.512
 integrate_v_rspace                  10 10.0    4.650    4.650    5.488    5.488
 pao_dm_trs4                        414  6.0    0.003    0.003    5.320    5.320
 density_matrix_trs4                423  7.0    0.188    0.188    5.137    5.137
 xc_functional_eval                  10 12.0    0.000    0.000    5.067    5.067
 pbe_lda_eval                        10 13.0    5.067    5.067    5.067    5.067
 ls_scf_init_matrix_S               418  7.0    0.004    0.004    4.957    4.957
 pao_rebuild_S                      414  6.0    0.002    0.002    4.888    4.888
 matrix_sqrt_Newton_Schulz          418  8.0    0.116    0.116    4.475    4.475
 multiply_cannon                  22654  9.4    1.411    1.411    4.184    4.184
 fft3d_s                            172 13.6    3.624    3.624    3.640    3.640
 make_m2s                         45308  9.4    0.204    0.204    2.808    2.808
 pao_guess_initial_P                  1  4.0    0.000    0.000    2.484    2.484
 pao_read_preopt_dm                   1  5.0    0.000    0.000    2.484    2.484
 make_images                      45308 10.4    0.670    0.670    2.473    2.473
 pw_gather_s                         81 13.1    1.778    1.778    1.778    1.778
 multiply_cannon_multrec          22654 10.4    1.481    1.481    1.617    1.617
 density_rs2pw                       10  8.0    0.001    0.001    1.523    1.523
 arnoldi_extremal                   841  8.5    0.005    0.005    1.231    1.231
 arnoldi_normal_ev                  841  9.5    0.013    0.013    1.225    1.225
 pw_scatter_s                        90 14.2    1.127    1.127    1.127    1.127
 pao_calc_AB                        546  5.8    0.001    0.001    1.112    1.112
 pao_calc_AB_direct                 546  6.8    0.030    0.030    1.111    1.111
 pao_calc_grad_lnv_wrt_AB           131  7.0    0.008    0.008    1.049    1.049
 build_subspace                     841 10.5    0.064    0.064    0.917    0.917
 potential_pw2rs                     10 11.0    0.003    0.003    0.837    0.837
 dbcsr_matrix_vector_mult         20181 11.5    0.125    0.125    0.824    0.824
 dbcsr_finalize                   53984  9.6    0.131    0.131    0.809    0.809
 dbcsr_create_new                173246 10.7    0.393    0.393    0.755    0.755
 -------------------------------------------------------------------------------

 The number of warnings for this run is : 0
 
 -------------------------------------------------------------------------------
  **** **** ******  **  PROGRAM ENDED AT                 2019-03-28 17:32:21.662
 ***** ** ***  *** **   PROGRAM RAN ON            oleschuett.zrh.corp.google.com
 **    ****   ******    PROGRAM RAN BY                                oleschuett
 ***** **    ** ** **   PROGRAM PROCESS ID                                 29192
  **** **  *******  **  PROGRAM STOPPED IN /usr/local/google/home/oleschuett/git
                                           /pao_ml_equivar/2H2O_rotations/phi_03
