 DBCSR| CPU Multiplication driver                                           XSMM (U)
 DBCSR| Multrec recursion limit                                              512 (U)
 DBCSR| Multiplication stack size                                           1000 (D)
 DBCSR| Maximum elements for images                                    UNLIMITED (U)
 DBCSR| Multiplicative factor virtual images                                   1 (U)
 DBCSR| Use multiplication densification                                       T (D)
 DBCSR| Multiplication size stacks                                             3 (U)
 DBCSR| Use memory pool for CPU allocation                                     F (U)
 DBCSR| OMP: Current number of threads                                         1
 DBCSR| OMP: Max number of threads                                             1
 DBCSR| Split modifier for TAS multiplication algorithm                  1.0E+00 (U)


  **** **** ******  **  PROGRAM STARTED AT               2023-02-01 10:45:19.663
 ***** ** ***  *** **   PROGRAM STARTED ON                                moritz
 **    ****   ******    PROGRAM STARTED BY                                   ole
 ***** **    ** ** **   PROGRAM PROCESS ID                                148560
  **** **  *******  **  PROGRAM STARTED IN /home/ole/git/pao_ml_equivar/2H2O_rot
                                           ations/phi_03

 CP2K| version string:                 CP2K version 2023.1 (Development Version)
 CP2K| source code revision number:                                  git:03b4147
 CP2K| cp2kflags: omp libint fftw3 libxc quip xsmm spglib libvori libbqb libtorc
 CP2K|            h
 CP2K| is freely available from                            https://www.cp2k.org/
 CP2K| Program compiled at                           Mi 01 Feb 2023 10:36:52 CET
 CP2K| Program compiled on                                                moritz
 CP2K| Program compiled for                                                local
 CP2K| Data directory path                               /home/ole/git/cp2k/data
 CP2K| Input file name                                            2H2O_pao44.inp

 GLOBAL| Force Environment number                                              1
 GLOBAL| Basis set file name                                        BASIS_MOLOPT
 GLOBAL| Potential file name                                      GTH_POTENTIALS
 GLOBAL| MM Potential file name                                     MM_POTENTIAL
 GLOBAL| Coordinate file name                                         coords.xyz
 GLOBAL| Method name                                                        CP2K
 GLOBAL| Project name                                                 2H2O_pao44
 GLOBAL| Run type                                                         ENERGY
 GLOBAL| FFT library                                                       FFTW3
 GLOBAL| Diagonalization library                                       ScaLAPACK
 GLOBAL| DGEMM library                                                      BLAS
 GLOBAL| Orthonormality check for eigenvectors                          DISABLED
 GLOBAL| Matrix multiplication library                                 ScaLAPACK
 GLOBAL| All-to-all communication in single precision                          F
 GLOBAL| FFTs using library dependent lengths                                  F
 GLOBAL| Grid backend                                                       AUTO
 GLOBAL| Global print level                                                  LOW
 GLOBAL| MPI I/O enabled                                                       T
 GLOBAL| Total number of message passing processes                             1
 GLOBAL| Number of threads for this process                                    1
 GLOBAL| This output is from process                                           0
 GLOBAL| Stack size for threads created by OpenMP (OMP_STACKSIZE)        default
 GLOBAL| CPU model name           AMD Ryzen Threadripper 3970X 32-Core Processor
 GLOBAL| CPUID                                                              1002
 GLOBAL| Compiled for CPUID                                                    0

 *** HINT in environment.F:884 :: The compiler target flags (generic) used ***
 *** to build this binary cannot exploit all extensions of this CPU model  ***
 *** (x86_avx2). Consider compiler target flags as part of FCFLAGS and     ***
 *** CFLAGS (ARCH file).                                                   ***


 MEMORY| system memory details [Kb]
 MEMORY|                        rank 0           min           max       average
 MEMORY| MemTotal            131773860     131773860     131773860     131773860
 MEMORY| MemFree             118711696     118711696     118711696     118711696
 MEMORY| Buffers                301580        301580        301580        301580
 MEMORY| Cached                7018548       7018548       7018548       7018548
 MEMORY| Slab                   776140        776140        776140        776140
 MEMORY| SReclaimable           331304        331304        331304        331304
 MEMORY| MemLikelyFree       126363128     126363128     126363128     126363128


 GENERATE|  Preliminary Number of Bonds generated:                             0
 GENERATE|  Achieved consistency in connectivity generation.

 *******************************************************************************
 *******************************************************************************
 **                                                                           **
 **     #####                         ##              ##                      **
 **    ##   ##            ##          ##              ##                      **
 **   ##     ##                       ##            ######                    **
 **   ##     ##  ##   ##  ##   #####  ##  ##   ####   ##    #####    #####    **
 **   ##     ##  ##   ##  ##  ##      ## ##   ##      ##   ##   ##  ##   ##   **
 **   ##  ## ##  ##   ##  ##  ##      ####     ###    ##   ######   ######    **
 **    ##  ###   ##   ##  ##  ##      ## ##      ##   ##   ##       ##        **
 **     #######   #####   ##   #####  ##  ##  ####    ##    #####   ##        **
 **           ##                                                    ##        **
 **                                                                           **
 **                                                ... make the atoms dance   **
 **                                                                           **
 **            Copyright (C) by CP2K developers group (2000-2023)             **
 **                      J. Chem. Phys. 152, 194103 (2020)                    **
 **                                                                           **
 *******************************************************************************


 TOTAL NUMBERS AND MAXIMUM NUMBERS

  Total number of            - Atomic kinds:                                   2
                             - Atoms:                                          6
                             - Shell sets:                                     6
                             - Shells:                                        22
                             - Primitive Cartesian functions:                 42
                             - Cartesian basis functions:                     48
                             - Spherical basis functions:                     46

  Maximum angular momentum of- Orbital basis functions:                        2
                             - Local part of the GTH pseudopotential:          2
                             - Non-local part of the GTH pseudopotential:      0

 ------------------------------ Linear scaling SCF -----------------------------
 eps_scf:                                                              0.100E-07
 eps_filter:                                                           0.100E-07
 mixing_fraction:                                                      0.450E+00
 max_scf:                                                                     25
 fixed chemical potential (mu)                                                 F
 has unit metric:                                                              F
 Computing inv(S):                                                             T
 Computing sqrt(S):                                                            T
 Computing S preconditioner                                                    F
 S sqrt method:                                                     NEWTONSCHULZ
 S sqrt order:                                                                 3
 Extrapolation order:                                                          1
 Use single precision matrices                                                 F
 S preconditioner type                                                      NONE
 Polarized Atomic Orbitals (PAO)                                               T
 Purification method                                   Trace resetting 4th order
 Cluster type                                                             ATOMIC
 Computing Chebyshev                                                       FALSE
 Using PAO                                                                     T
 -------------------------------------------------------------------------------

 
 PAO|                                  EPS_PAO                           0.1E-04
 PAO|                                  MIXING                            0.5E+00
 PAO|                                  MAX_PAO                              1000
 PAO|                                  MAX_CYCLES                           1000
 PAO|                                  PARAMETERIZATION              EQUIVARIANT
 PAO|                                  PRECONDITION                            F
 PAO|                                  REGULARIZATION                    0.0E+00
 PAO|                                  EPS_PGF                           0.1E-09
 PAO|                                  PENALTY_DISTANCE                  0.1E+00
 PAO|                                  PENALTY_STRENGTH                  0.5E-02
 PAO|                                  LINPOT_PRECONDITION_DELTA         0.0E+00
 PAO|                                  LINPOT_INITGUESS_DELT             0.0E+00
 PAO|                                  LINPOT_REGULARIZATION_DELTA       0.0E+00
 PAO|                                  LINPOT_REGULARIZATION_STRENGTH    0.0E+00
 PAO|                                  OPTIMIZER                              CG
 PAO|                                  CG_INIT_STEPS                           2
 PAO|                                  CG_RESET_LIMIT                    0.1E+00
 PAO|                                  CHECK_UNITARY_TOL                -0.1E+01
 PAO|                                  CHECK_GRADIENT_TOL               -0.1E+01
 PAO|                                  NUM_GRADIENT_ORDER                      2
 PAO|                                  NUM_GRADIENT_EPS                  0.1E-07
 PAO|                                  PRINT%RESTART%WRITE_CYCLES            100
 PAO|                                  RESTART_FILE 
 PAO|                                  PREOPT_DM_FILE 2H2O_ref_LS_DM_SPIN_1_RESTART.dm
 PAO|                                  MACHINE_LEARNING%METHOD       GAUSSIAN_PR
 PAO|                                  MACHINE_LEARNING%PRIOR               ZERO
 PAO|                                  MACHINE_LEARNING%DESCRIPTOR     POTENTIAL
 PAO|                                  MACHINE_LEARNING%TOLERANCE        0.1E-01
 PAO|                                  MACHINE_LEARNING%GP_NOISE_VAR     0.1E+00
 PAO|                                  MACHINE_LEARNING%GP_SCALE         0.5E-01
 

 Calculating atomic Fock matrix for atomic kind: O

 Electronic structure
    Total number of core electrons                                          2.00
    Total number of valence electrons                                       6.00
    Total number of electrons                                               8.00
    Multiplicity                                                   not specified
    S   [  2.00] 2.00
    P      4.00


 *******************************************************************************
                  Iteration          Convergence                     Energy [au]
 *******************************************************************************
                          1        0.708315                     -15.576645311500
                          2        0.608879                     -15.587933561584
                          3        0.102828E-01                 -15.656849565404
                          4        0.113889E-02                 -15.656866888140
                          5        0.434197E-03                 -15.656867072159
                          6        0.263771E-03                 -15.656867091904
                          7        0.478536E-06                 -15.656867103452

 Energy components [Hartree]           Total Energy ::          -15.656867103452
                                        Band Energy ::           -3.000198112285
                                     Kinetic Energy ::           11.759971203220
                                   Potential Energy ::          -27.416838306672
                                      Virial (-V/T) ::            2.331369510426
                                        Core Energy ::          -26.140716385623
                                          XC Energy ::           -3.154051012914
                                     Coulomb Energy ::           13.637900295084
                       Total Pseudopotential Energy ::          -37.935781716540
                       Local Pseudopotential Energy ::          -39.218907440693
                    Nonlocal Pseudopotential Energy ::            1.283125724153
                                        Confinement ::            0.350941276976

 Orbital energies  State     L     Occupation   Energy[a.u.]          Energy[eV]

                       1     0          2.000      -0.864471          -23.523463

                       1     1          4.000      -0.317814           -8.648154


 Total Electron Density at R=0:                                         0.000068

 Calculating atomic Fock matrix for atomic kind: H

 Electronic structure
    Total number of core electrons                                          0.00
    Total number of valence electrons                                       1.00
    Total number of electrons                                               1.00
    Multiplicity                                                   not specified
    S      1.00


 *******************************************************************************
                  Iteration          Convergence                     Energy [au]
 *******************************************************************************
                          1        0.437545E-02                  -0.424159432110
                          2        0.531356E-03                  -0.424178438213
                          3        0.259176E-06                  -0.424178722480

 Energy components [Hartree]           Total Energy ::           -0.424178722480
                                        Band Energy ::           -0.199015229016
                                     Kinetic Energy ::            0.464007633961
                                   Potential Energy ::           -0.888186356441
                                      Virial (-V/T) ::            1.914163240935
                                        Core Energy ::           -0.479160803564
                                          XC Energy ::           -0.244352904054
                                     Coulomb Energy ::            0.299334985138
                       Total Pseudopotential Energy ::           -0.962295316385
                       Local Pseudopotential Energy ::           -0.962295316385
                    Nonlocal Pseudopotential Energy ::            0.000000000000
                                        Confinement ::            0.191268788606

 Orbital energies  State     L     Occupation   Energy[a.u.]          Energy[eV]

                       1     0          1.000      -0.199015           -5.415480


 Total Electron Density at R=0:                                         0.242907
 PAO| Made initial guess for matrix_X with norm:   4.8989794855663558     

     Lanczos converged:  T threshold:   0.100E-02
     Est. extremal eigenvalues:    0.336E+01   0.110E+00
     Est. condition number :    0.306E+02

 Order=           3
     NS sqrt iter    1 1.00000000   0.820E+00       0.001       64.512
     NS sqrt iter    2 1.00000000   0.440E+00       0.001      110.592
     NS sqrt iter    3 1.00000000   0.171E+00       0.001      110.592
     NS sqrt iter    4 1.00000000   0.213E-01       0.001      110.592
     NS sqrt iter    5 1.00000000   0.640E-04       0.001       99.328
     Symmetrizing Results
     Final NS sqrt iter    5 1.00000000   0.351E-08

 PAO| Read restart DM 2H2O_ref_LS_DM_SPIN_1_RESTART.dm with checksum:    57.342589195975584     
 PAO| Quickstep energy from restart density:  -34.450349707263129     
 PAO| ======================= Iteration:         1 =============================

     Lanczos converged:  T threshold:   0.100E-02
     Est. extremal eigenvalues:    0.336E+01   0.110E+00
     Est. condition number :    0.306E+02

 Order=           3
     NS sqrt iter    1 1.00000000   0.820E+00       0.001       64.512
     NS sqrt iter    2 1.00000000   0.440E+00       0.001      110.592
     NS sqrt iter    3 1.00000000   0.171E+00       0.001      110.592
     NS sqrt iter    4 1.00000000   0.213E-01       0.001      110.592
     NS sqrt iter    5 1.00000000   0.640E-04       0.001       99.328
     Symmetrizing Results
     Final NS sqrt iter    5 1.00000000   0.351E-08

     Est. extremal eigenvalues     -0.92055     1.96553  converged:  T
     TRS4 it   1 1.00000000   0.901E+00       0.000       16.128   0.100E-07
     TRS4 it   2 1.00000000   0.712E+00       0.000       32.256   0.100E-07
     TRS4 it   3 1.00000000   0.507E+00       0.000       32.256   0.100E-07
     TRS4 it   4 1.00000000   0.320E+00       0.000       32.256   0.100E-07
     TRS4 it   5 1.00000000   0.160E+00       0.000       32.256   0.100E-07
     TRS4 it   6 1.00000000   0.514E-01       0.000       32.256   0.100E-07
     TRS4 it   7 1.00000000   0.741E-02       0.000       32.256   0.100E-07
     TRS4 it   8 1.00000000   0.217E-03       0.000       32.256   0.100E-07
     TRS4 it   9 1.00000000   0.210E-06       0.000       32.256   0.100E-07
     TRS4 it  10 1.00000000   0.197E-12       0.000       32.256   0.100E-07
     Final TRS4 iteration   10 1.00000000   0.197E-12
     Chemical potential (mu):      -0.06634
 
 PAO| energy:  -7.6328929046586351      penalty:   3.7594152514438850E-033
 PAO|CG| warming up with steepest descent
 PAO|CG| beta:    0.0000000000000000     
 PAO| norm of gradient:  0.78333575246751896     
 PAO|LS| adapt:  T F F
 PAO|LS| adapt: scan_steps:    0.0000000000000000        0.0000000000000000        0.0000000000000000     
 PAO|LS| adapt: energies:   -7.6328929046586351        0.0000000000000000        0.0000000000000000     
 PAO| ======================= Iteration:         2 =============================

     Lanczos converged:  T threshold:   0.100E-02
     Est. extremal eigenvalues:    0.327E+01   0.122E+00
     Est. condition number :    0.268E+02

 Order=           3
     NS sqrt iter    1 1.00000000   0.804E+00       0.001       64.512
     NS sqrt iter    2 1.00000000   0.425E+00       0.001      110.592
     NS sqrt iter    3 1.00000000   0.154E+00       0.001      110.592
     NS sqrt iter    4 1.00000000   0.149E-01       0.001      110.592
     NS sqrt iter    5 1.00000000   0.222E-04       0.001       82.944
     Symmetrizing Results
     Final NS sqrt iter    5 1.00000000   0.772E-09

     Est. extremal eigenvalues     -0.92422     1.90916  converged:  T
     TRS4 it   1 1.00000000   0.900E+00       0.000       16.128   0.100E-07
     TRS4 it   2 1.00000000   0.694E+00       0.000       32.256   0.100E-07
     TRS4 it   3 1.00000000   0.493E+00       0.000       32.256   0.100E-07
     TRS4 it   4 1.00000000   0.301E+00       0.000       32.256   0.100E-07
     TRS4 it   5 1.00000000   0.142E+00       0.000       32.256   0.100E-07
     TRS4 it   6 1.00000000   0.404E-01       0.000       32.256   0.100E-07
     TRS4 it   7 1.00000000   0.462E-02       0.000       32.256   0.100E-07
     TRS4 it   8 1.00000000   0.851E-04       0.000       32.256   0.100E-07
     TRS4 it   9 1.00000000   0.321E-07       0.000       32.256   0.100E-07
     Final TRS4 iteration    9 1.00000000   0.321E-07
     Chemical potential (mu):      -0.05441
 
 PAO| energy:  -7.6883719172425469      penalty:   2.2485642615729043E-008
 PAO|LS| adapt:  T T F
 PAO|LS| adapt: scan_steps:    0.0000000000000000       0.10000000000000001        0.0000000000000000     
 PAO|LS| adapt: energies:   -7.6328929046586351       -7.6883719172425469        0.0000000000000000     
 PAO| ======================= Iteration:         3 =============================

     Lanczos converged:  T threshold:   0.100E-02
     Est. extremal eigenvalues:    0.318E+01   0.133E+00
     Est. condition number :    0.239E+02

 Order=           3
     NS sqrt iter    1 1.00000000   0.786E+00       0.001       64.512
     NS sqrt iter    2 1.00000000   0.408E+00       0.001      110.592
     NS sqrt iter    3 1.00000000   0.137E+00       0.001      110.592
     NS sqrt iter    4 1.00000000   0.104E-01       0.001      110.592
     NS sqrt iter    5 1.00000000   0.798E-05       0.001       82.944
     Symmetrizing Results
     Final NS sqrt iter    5 1.00000000   0.101E-09

     Est. extremal eigenvalues     -0.92766     1.86228  converged:  T
     TRS4 it   1 1.00000000   0.898E+00       0.000       16.128   0.100E-07
     TRS4 it   2 1.00000000   0.678E+00       0.000       32.256   0.100E-07
     TRS4 it   3 1.00000000   0.479E+00       0.000       32.256   0.100E-07
     TRS4 it   4 1.00000000   0.283E+00       0.000       32.256   0.100E-07
     TRS4 it   5 1.00000000   0.124E+00       0.000       32.256   0.100E-07
     TRS4 it   6 1.00000000   0.308E-01       0.000       32.256   0.100E-07
     TRS4 it   7 1.00000000   0.268E-02       0.000       32.256   0.100E-07
     TRS4 it   8 1.00000000   0.286E-04       0.000       32.256   0.100E-07
     TRS4 it   9 1.00000000   0.364E-08       0.000       32.256   0.100E-07
     Final TRS4 iteration    9 1.00000000   0.364E-08
     Chemical potential (mu):      -0.04152
 
 PAO| energy:  -7.7314275229493843      penalty:   3.5977056456909643E-007
 PAO|LS| adapt:  T T F
 PAO|LS| adapt: scan_steps:    0.0000000000000000       0.20000000000000001        0.0000000000000000     
 PAO|LS| adapt: energies:   -7.6328929046586351       -7.7314275229493843        0.0000000000000000     
 PAO| ======================= Iteration:         4 =============================

     Lanczos converged:  T threshold:   0.100E-02
     Est. extremal eigenvalues:    0.299E+01   0.151E+00
     Est. condition number :    0.197E+02

 Order=           3
     NS sqrt iter    1 1.00000000   0.749E+00       0.001       64.512
     NS sqrt iter    2 1.00000000   0.374E+00       0.001      110.592
     NS sqrt iter    3 1.00000000   0.108E+00       0.001      110.592
     NS sqrt iter    4 1.00000000   0.522E-02       0.001      110.592
     NS sqrt iter    5 1.00000000   0.119E-05       0.001       82.944
     Symmetrizing Results
     Final NS sqrt iter    5 1.00000000   0.239E-11

     Est. extremal eigenvalues     -0.93300     1.79067  converged:  T
     TRS4 it   1 1.00000000   0.894E+00       0.000       16.128   0.100E-07
     TRS4 it   2 1.00000000   0.650E+00       0.000       32.256   0.100E-07
     TRS4 it   3 1.00000000   0.452E+00       0.000       32.256   0.100E-07
     TRS4 it   4 1.00000000   0.247E+00       0.000       32.256   0.100E-07
     TRS4 it   5 1.00000000   0.928E-01       0.000       32.256   0.100E-07
     TRS4 it   6 1.00000000   0.167E-01       0.000       32.256   0.100E-07
     TRS4 it   7 1.00000000   0.745E-03       0.000       32.256   0.100E-07
     TRS4 it   8 1.00000000   0.213E-05       0.000       32.256   0.100E-07
     TRS4 it   9 1.00000000   0.202E-10       0.000       32.256   0.100E-07
     Final TRS4 iteration    9 1.00000000   0.202E-10
     Chemical potential (mu):      -0.01296
 
 PAO| energy:  -7.7786544303515761      penalty:   5.7563312948547313E-006
 PAO|LS| Need extra step
 PAO|LS| adapt:  T T F
 PAO|LS| adapt: scan_steps:    0.0000000000000000       0.40000000000000002        0.0000000000000000     
 PAO|LS| adapt: energies:   -7.6328929046586351       -7.7786544303515761        0.0000000000000000     
 PAO| ======================= Iteration:         5 =============================

     Lanczos converged:  T threshold:   0.100E-02
     Est. extremal eigenvalues:    0.264E+01   0.180E+00
     Est. condition number :    0.146E+02

 Order=           3
     NS sqrt iter    1 1.00000000   0.686E+00       0.001       64.512
     NS sqrt iter    2 1.00000000   0.313E+00       0.001      110.592
     NS sqrt iter    3 1.00000000   0.669E-01       0.001      110.592
     NS sqrt iter    4 1.00000000   0.146E-02       0.001      110.592
     NS sqrt iter    5 1.00000000   0.311E-07       0.001       62.848
     Symmetrizing Results
     Final NS sqrt iter    5 1.00000000   0.250E-08

     Est. extremal eigenvalues     -0.93424     1.70289  converged:  T
     TRS4 it   1 1.00000000   0.886E+00       0.000       16.128   0.100E-07
     TRS4 it   2 1.00000000   0.609E+00       0.000       32.256   0.100E-07
     TRS4 it   3 1.00000000   0.404E+00       0.000       32.256   0.100E-07
     TRS4 it   4 1.00000000   0.191E+00       0.000       32.256   0.100E-07
     TRS4 it   5 1.00000000   0.514E-01       0.000       32.256   0.100E-07
     TRS4 it   6 1.00000000   0.463E-02       0.000       32.256   0.100E-07
     TRS4 it   7 1.00000000   0.487E-04       0.000       32.256   0.100E-07
     TRS4 it   8 1.00000000   0.698E-08       0.000       32.256   0.100E-07
     Final TRS4 iteration    8 1.00000000   0.698E-08
     Chemical potential (mu):       0.03583
 
 PAO| energy:  -7.7239011749327826      penalty:   9.2101318811708103E-005
 PAO|LS| Need extra step
 PAO|LS| adapt:  T T T
 PAO|LS| adapt: scan_steps:    0.0000000000000000       0.40000000000000002       0.80000000000000004     
 PAO|LS| adapt: energies:   -7.6328929046586351       -7.7786544303515761       -7.7239011749327826     
 PAO|LS| adapt: suggested step_size:   0.49077462496237051     
 PAO|LS| adapt: predicted energy  -7.7838177063532070     
 PAO| ======================= Iteration:         6 =============================

     Lanczos converged:  T threshold:   0.100E-02
     Est. extremal eigenvalues:    0.290E+01   0.159E+00
     Est. condition number :    0.183E+02

 Order=           3
     NS sqrt iter    1 1.00000000   0.733E+00       0.001       64.512
     NS sqrt iter    2 1.00000000   0.359E+00       0.001      110.592
     NS sqrt iter    3 1.00000000   0.962E-01       0.001      110.592
     NS sqrt iter    4 1.00000000   0.386E-02       0.001      110.592
     NS sqrt iter    5 1.00000000   0.517E-06       0.001       82.944
     Symmetrizing Results
     Final NS sqrt iter    5 1.00000000   0.463E-12

     Est. extremal eigenvalues     -0.93448     1.76554  converged:  T
     TRS4 it   1 1.00000000   0.892E+00       0.000       16.128   0.100E-07
     TRS4 it   2 1.00000000   0.639E+00       0.000       32.256   0.100E-07
     TRS4 it   3 1.00000000   0.440E+00       0.000       32.256   0.100E-07
     TRS4 it   4 1.00000000   0.233E+00       0.000       32.256   0.100E-07
     TRS4 it   5 1.00000000   0.809E-01       0.000       32.256   0.100E-07
     TRS4 it   6 1.00000000   0.124E-01       0.000       32.256   0.100E-07
     TRS4 it   7 1.00000000   0.391E-03       0.000       32.256   0.100E-07
     TRS4 it   8 1.00000000   0.559E-06       0.000       32.256   0.100E-07
     TRS4 it   9 1.00000000   0.137E-11       0.000       32.256   0.100E-07
     Final TRS4 iteration    9 1.00000000   0.137E-11
     Chemical potential (mu):       0.00094
 
 PAO| energy:  -7.7830926881458309      penalty:   1.3044704533291688E-005
 PAO|CG| warming up with steepest descent
 PAO|CG| beta:    0.0000000000000000     
 PAO| norm of gradient:  0.41702073227490910     
 PAO| energy improvement: -0.15019978348719576     
 PAO| step      6                   -7.783092688  0.261E-01  0.491E+00     0.058
 PAO|LS| adapt:  T F F
 PAO|LS| adapt: scan_steps:    0.0000000000000000        0.0000000000000000        0.0000000000000000     
 PAO|LS| adapt: energies:   -7.7830926881458309        0.0000000000000000        0.0000000000000000     
 PAO| ======================= Iteration:         7 =============================

     Lanczos converged:  T threshold:   0.100E-02
     Est. extremal eigenvalues:    0.282E+01   0.172E+00
     Est. condition number :    0.164E+02

 Order=           3
     NS sqrt iter    1 1.00000000   0.716E+00       0.001       64.512
     NS sqrt iter    2 1.00000000   0.338E+00       0.001      110.592
     NS sqrt iter    3 1.00000000   0.807E-01       0.001      110.592
     NS sqrt iter    4 1.00000000   0.238E-02       0.001      110.592
     NS sqrt iter    5 1.00000000   0.135E-06       0.001       78.464
     Symmetrizing Results
     Final NS sqrt iter    5 1.00000000   0.113E-08

     Est. extremal eigenvalues     -0.93620     1.74998  converged:  T
     TRS4 it   1 1.00000000   0.890E+00       0.000       16.128   0.100E-07
     TRS4 it   2 1.00000000   0.636E+00       0.000       32.256   0.100E-07
     TRS4 it   3 1.00000000   0.439E+00       0.000       32.256   0.100E-07
     TRS4 it   4 1.00000000   0.233E+00       0.000       32.256   0.100E-07
     TRS4 it   5 1.00000000   0.815E-01       0.000       32.256   0.100E-07
     TRS4 it   6 1.00000000   0.123E-01       0.000       32.256   0.100E-07
     TRS4 it   7 1.00000000   0.367E-03       0.000       32.256   0.100E-07
     TRS4 it   8 1.00000000   0.467E-06       0.000       32.256   0.100E-07
     TRS4 it   9 1.00000000   0.932E-12       0.000       32.256   0.100E-07
     Final TRS4 iteration    9 1.00000000   0.932E-12
     Chemical potential (mu):       0.00286
 
 PAO| energy:  -7.7772170129749503      penalty:   1.9741139245463412E-005
 PAO|LS| adapt:  T F T
 PAO|LS| adapt: scan_steps:    0.0000000000000000        0.0000000000000000       0.49077462496237051     
 PAO|LS| adapt: energies:   -7.7830926881458309        0.0000000000000000       -7.7772170129749503     
 PAO| ======================= Iteration:         8 =============================

     Lanczos converged:  T threshold:   0.100E-02
     Est. extremal eigenvalues:    0.286E+01   0.165E+00
     Est. condition number :    0.173E+02

 Order=           3
     NS sqrt iter    1 1.00000000   0.725E+00       0.001       64.512
     NS sqrt iter    2 1.00000000   0.349E+00       0.001      110.592
     NS sqrt iter    3 1.00000000   0.883E-01       0.001      110.592
     NS sqrt iter    4 1.00000000   0.305E-02       0.001      110.592
     NS sqrt iter    5 1.00000000   0.269E-06       0.001       81.536
     Symmetrizing Results
     Final NS sqrt iter    5 1.00000000   0.614E-09

     Est. extremal eigenvalues     -0.93629     1.75717  converged:  T
     TRS4 it   1 1.00000000   0.891E+00       0.000       16.128   0.100E-07
     TRS4 it   2 1.00000000   0.637E+00       0.000       32.256   0.100E-07
     TRS4 it   3 1.00000000   0.439E+00       0.000       32.256   0.100E-07
     TRS4 it   4 1.00000000   0.232E+00       0.000       32.256   0.100E-07
     TRS4 it   5 1.00000000   0.809E-01       0.000       32.256   0.100E-07
     TRS4 it   6 1.00000000   0.124E-01       0.000       32.256   0.100E-07
     TRS4 it   7 1.00000000   0.388E-03       0.000       32.256   0.100E-07
     TRS4 it   8 1.00000000   0.542E-06       0.000       32.256   0.100E-07
     TRS4 it   9 1.00000000   0.128E-11       0.000       32.256   0.100E-07
     Final TRS4 iteration    9 1.00000000   0.128E-11
     Chemical potential (mu):       0.00141
 
 PAO| energy:  -7.8027227879853758      penalty:   1.4143683192168289E-005
 PAO|LS| adapt:  T T T
 PAO|LS| adapt: scan_steps:    0.0000000000000000       0.24538731248118525       0.49077462496237051     
 PAO|LS| adapt: energies:   -7.7830926881458309       -7.8027227879853758       -7.7772170129749503     
 PAO|LS| adapt: suggested step_size:   0.22941535952815897     
 PAO|LS| adapt: predicted energy  -7.8028183980705590     
 PAO| ======================= Iteration:         9 =============================

     Lanczos converged:  T threshold:   0.100E-02
     Est. extremal eigenvalues:    0.286E+01   0.165E+00
     Est. condition number :    0.174E+02

 Order=           3
     NS sqrt iter    1 1.00000000   0.725E+00       0.001       64.512
     NS sqrt iter    2 1.00000000   0.349E+00       0.001      110.592
     NS sqrt iter    3 1.00000000   0.888E-01       0.001      110.592
     NS sqrt iter    4 1.00000000   0.310E-02       0.001      110.592
     NS sqrt iter    5 1.00000000   0.281E-06       0.001       81.536
     Symmetrizing Results
     Final NS sqrt iter    5 1.00000000   0.643E-09

     Est. extremal eigenvalues     -0.93623     1.75767  converged:  T
     TRS4 it   1 1.00000000   0.891E+00       0.000       16.128   0.100E-07
     TRS4 it   2 1.00000000   0.637E+00       0.000       32.256   0.100E-07
     TRS4 it   3 1.00000000   0.439E+00       0.000       32.256   0.100E-07
     TRS4 it   4 1.00000000   0.232E+00       0.000       32.256   0.100E-07
     TRS4 it   5 1.00000000   0.809E-01       0.000       32.256   0.100E-07
     TRS4 it   6 1.00000000   0.124E-01       0.000       32.256   0.100E-07
     TRS4 it   7 1.00000000   0.389E-03       0.000       32.256   0.100E-07
     TRS4 it   8 1.00000000   0.545E-06       0.000       32.256   0.100E-07
     TRS4 it   9 1.00000000   0.129E-11       0.000       32.256   0.100E-07
     Final TRS4 iteration    9 1.00000000   0.129E-11
     Chemical potential (mu):       0.00135
 
 PAO| energy:  -7.8028421610016903      penalty:   1.3973311208046132E-005
 PAO|CG| trace_G_new    3.6860297118849646E-002
 PAO|CG| trace_G_prev   0.17390629114710143     
 PAO|CG| trace_G_mix   -1.4405925310035255E-003
 PAO|CG| trace_D   0.17390629114710143     
 PAO|CG| trace_D_Gnew   1.4405925310035255E-003
 PAO|CG| beta:   0.22023866645201320     
 PAO| norm of gradient:  0.19199035683817467     
 PAO| energy improvement:  -1.9749472855859374E-002
 PAO| step      9                   -7.802842161  0.120E-01  0.229E+00     0.036
 PAO|LS| adapt:  T F F
 PAO|LS| adapt: scan_steps:    0.0000000000000000        0.0000000000000000        0.0000000000000000     
 PAO|LS| adapt: energies:   -7.8028421610016903        0.0000000000000000        0.0000000000000000     
 PAO| ======================= Iteration:        10 =============================

     Lanczos converged:  T threshold:   0.100E-02
     Est. extremal eigenvalues:    0.283E+01   0.171E+00
     Est. condition number :    0.166E+02

 Order=           3
     NS sqrt iter    1 1.00000000   0.717E+00       0.001       64.512
     NS sqrt iter    2 1.00000000   0.341E+00       0.001      110.592
     NS sqrt iter    3 1.00000000   0.832E-01       0.001      110.592
     NS sqrt iter    4 1.00000000   0.255E-02       0.001      110.592
     NS sqrt iter    5 1.00000000   0.156E-06       0.001       79.104
     Symmetrizing Results
     Final NS sqrt iter    5 1.00000000   0.101E-08

     Est. extremal eigenvalues     -0.93712     1.74897  converged:  T
     TRS4 it   1 1.00000000   0.888E+00       0.000       16.128   0.100E-07
     TRS4 it   2 1.00000000   0.634E+00       0.000       32.256   0.100E-07
     TRS4 it   3 1.00000000   0.436E+00       0.000       32.256   0.100E-07
     TRS4 it   4 1.00000000   0.229E+00       0.000       32.256   0.100E-07
     TRS4 it   5 1.00000000   0.785E-01       0.000       32.256   0.100E-07
     TRS4 it   6 1.00000000   0.116E-01       0.000       32.256   0.100E-07
     TRS4 it   7 1.00000000   0.336E-03       0.000       32.256   0.100E-07
     TRS4 it   8 1.00000000   0.396E-06       0.000       32.256   0.100E-07
     TRS4 it   9 1.00000000   0.671E-12       0.000       32.256   0.100E-07
     Final TRS4 iteration    9 1.00000000   0.671E-12
     Chemical potential (mu):       0.00454
 
 PAO| energy:  -7.8078728199234426      penalty:   1.4511886216458828E-005
 PAO|LS| adapt:  T T F
 PAO|LS| adapt: scan_steps:    0.0000000000000000       0.22941535952815897        0.0000000000000000     
 PAO|LS| adapt: energies:   -7.8028421610016903       -7.8078728199234426        0.0000000000000000     
 PAO| ======================= Iteration:        11 =============================

     Lanczos converged:  T threshold:   0.100E-02
     Est. extremal eigenvalues:    0.279E+01   0.177E+00
     Est. condition number :    0.158E+02

 Order=           3
     NS sqrt iter    1 1.00000000   0.710E+00       0.001       64.512
     NS sqrt iter    2 1.00000000   0.333E+00       0.001      110.592
     NS sqrt iter    3 1.00000000   0.778E-01       0.001      110.592
     NS sqrt iter    4 1.00000000   0.209E-02       0.001      110.592
     NS sqrt iter    5 1.00000000   0.849E-07       0.001       75.520
     Symmetrizing Results
     Final NS sqrt iter    5 1.00000000   0.674E-09

     Est. extremal eigenvalues     -0.93703     1.74137  converged:  T
     TRS4 it   1 1.00000000   0.885E+00       0.000       16.128   0.100E-07
     TRS4 it   2 1.00000000   0.632E+00       0.000       32.256   0.100E-07
     TRS4 it   3 1.00000000   0.434E+00       0.000       32.256   0.100E-07
     TRS4 it   4 1.00000000   0.226E+00       0.000       32.256   0.100E-07
     TRS4 it   5 1.00000000   0.761E-01       0.000       32.256   0.100E-07
     TRS4 it   6 1.00000000   0.108E-01       0.000       32.256   0.100E-07
     TRS4 it   7 1.00000000   0.289E-03       0.000       32.256   0.100E-07
     TRS4 it   8 1.00000000   0.283E-06       0.000       32.256   0.100E-07
     TRS4 it   9 1.00000000   0.336E-12       0.000       32.256   0.100E-07
     Final TRS4 iteration    9 1.00000000   0.336E-12
     Chemical potential (mu):       0.00785
 
 PAO| energy:  -7.8064419346035159      penalty:   1.5719605690725781E-005
 PAO|LS| adapt:  T T T
 PAO|LS| adapt: scan_steps:    0.0000000000000000       0.22941535952815897       0.45883071905631795     
 PAO|LS| adapt: energies:   -7.8028421610016903       -7.8078728199234426       -7.8064419346035159     
 PAO|LS| adapt: suggested step_size:   0.29331984769646990     
 PAO|LS| adapt: predicted energy  -7.8081235024518705     
 PAO| ======================= Iteration:        12 =============================

     Lanczos converged:  T threshold:   0.100E-02
     Est. extremal eigenvalues:    0.281E+01   0.172E+00
     Est. condition number :    0.163E+02

 Order=           3
     NS sqrt iter    1 1.00000000   0.715E+00       0.001       64.512
     NS sqrt iter    2 1.00000000   0.339E+00       0.001      110.592
     NS sqrt iter    3 1.00000000   0.816E-01       0.001      110.592
     NS sqrt iter    4 1.00000000   0.242E-02       0.001      110.592
     NS sqrt iter    5 1.00000000   0.132E-06       0.001       78.464
     Symmetrizing Results
     Final NS sqrt iter    5 1.00000000   0.109E-08

     Est. extremal eigenvalues     -0.93720     1.74674  converged:  T
     TRS4 it   1 1.00000000   0.887E+00       0.000       16.128   0.100E-07
     TRS4 it   2 1.00000000   0.634E+00       0.000       32.256   0.100E-07
     TRS4 it   3 1.00000000   0.436E+00       0.000       32.256   0.100E-07
     TRS4 it   4 1.00000000   0.228E+00       0.000       32.256   0.100E-07
     TRS4 it   5 1.00000000   0.778E-01       0.000       32.256   0.100E-07
     TRS4 it   6 1.00000000   0.114E-01       0.000       32.256   0.100E-07
     TRS4 it   7 1.00000000   0.322E-03       0.000       32.256   0.100E-07
     TRS4 it   8 1.00000000   0.361E-06       0.000       32.256   0.100E-07
     TRS4 it   9 1.00000000   0.555E-12       0.000       32.256   0.100E-07
     Final TRS4 iteration    9 1.00000000   0.555E-12
     Chemical potential (mu):       0.00546
 
 PAO| energy:  -7.8081073944903956      penalty:   1.4773455717296133E-005
 PAO|CG| trace_G_new    1.1807077165015037E-002
 PAO|CG| trace_G_prev    3.6860297118849646E-002
 PAO|CG| trace_G_mix   -4.6053682312975695E-004
 PAO|CG| trace_D    4.4661085623401119E-002
 PAO|CG| trace_D_Gnew   2.1084916672351513E-004
 PAO|CG| beta:   0.33281375753944675     
 PAO| norm of gradient:  0.10866037532152664     
 PAO| energy improvement:  -5.2652334887053343E-003
 PAO| step     12                   -7.808107394  0.679E-02  0.293E+00     0.037
 PAO|LS| adapt:  T F F
 PAO|LS| adapt: scan_steps:    0.0000000000000000        0.0000000000000000        0.0000000000000000     
 PAO|LS| adapt: energies:   -7.8081073944903956        0.0000000000000000        0.0000000000000000     
 PAO| ======================= Iteration:        13 =============================

     Lanczos converged:  T threshold:   0.100E-02
     Est. extremal eigenvalues:    0.278E+01   0.176E+00
     Est. condition number :    0.158E+02

 Order=           3
     NS sqrt iter    1 1.00000000   0.708E+00       0.001       64.512
     NS sqrt iter    2 1.00000000   0.332E+00       0.001      110.592
     NS sqrt iter    3 1.00000000   0.773E-01       0.001      110.592
     NS sqrt iter    4 1.00000000   0.207E-02       0.001      110.592
     NS sqrt iter    5 1.00000000   0.828E-07       0.001       75.520
     Symmetrizing Results
     Final NS sqrt iter    5 1.00000000   0.667E-09

     Est. extremal eigenvalues     -0.93768     1.73848  converged:  T
     TRS4 it   1 1.00000000   0.886E+00       0.000       16.128   0.100E-07
     TRS4 it   2 1.00000000   0.630E+00       0.000       32.256   0.100E-07
     TRS4 it   3 1.00000000   0.432E+00       0.000       32.256   0.100E-07
     TRS4 it   4 1.00000000   0.223E+00       0.000       32.256   0.100E-07
     TRS4 it   5 1.00000000   0.741E-01       0.000       32.256   0.100E-07
     TRS4 it   6 1.00000000   0.102E-01       0.000       32.256   0.100E-07
     TRS4 it   7 1.00000000   0.258E-03       0.000       32.256   0.100E-07
     TRS4 it   8 1.00000000   0.226E-06       0.000       32.256   0.100E-07
     TRS4 it   9 1.00000000   0.213E-12       0.000       32.256   0.100E-07
     Final TRS4 iteration    9 1.00000000   0.213E-12
     Chemical potential (mu):       0.01003
 
 PAO| energy:  -7.8101718794494079      penalty:   1.5078442062131325E-005
 PAO|LS| adapt:  T T F
 PAO|LS| adapt: scan_steps:    0.0000000000000000       0.29331984769646990        0.0000000000000000     
 PAO|LS| adapt: energies:   -7.8081073944903956       -7.8101718794494079        0.0000000000000000     
 PAO| ======================= Iteration:        14 =============================

     Lanczos converged:  T threshold:   0.100E-02
     Est. extremal eigenvalues:    0.275E+01   0.181E+00
     Est. condition number :    0.152E+02

 Order=           3
     NS sqrt iter    1 1.00000000   0.701E+00       0.001       64.512
     NS sqrt iter    2 1.00000000   0.325E+00       0.001      110.592
     NS sqrt iter    3 1.00000000   0.732E-01       0.001      110.592
     NS sqrt iter    4 1.00000000   0.176E-02       0.001      110.592
     NS sqrt iter    5 1.00000000   0.519E-07       0.001       72.064
     Symmetrizing Results
     Final NS sqrt iter    5 1.00000000   0.436E-09

     Est. extremal eigenvalues     -0.93766     1.73057  converged:  T
     TRS4 it   1 1.00000000   0.885E+00       0.000       16.128   0.100E-07
     TRS4 it   2 1.00000000   0.627E+00       0.000       32.256   0.100E-07
     TRS4 it   3 1.00000000   0.428E+00       0.000       32.256   0.100E-07
     TRS4 it   4 1.00000000   0.218E+00       0.000       32.256   0.100E-07
     TRS4 it   5 1.00000000   0.706E-01       0.000       32.256   0.100E-07
     TRS4 it   6 1.00000000   0.923E-02       0.000       32.256   0.100E-07
     TRS4 it   7 1.00000000   0.207E-03       0.000       32.256   0.100E-07
     TRS4 it   8 1.00000000   0.141E-06       0.000       32.256   0.100E-07
     TRS4 it   9 1.00000000   0.809E-13       0.000       32.256   0.100E-07
     Final TRS4 iteration    9 1.00000000   0.809E-13
     Chemical potential (mu):       0.01451
 
 PAO| energy:  -7.8095296218530201      penalty:   1.5861139352608638E-005
 PAO|LS| adapt:  T T T
 PAO|LS| adapt: scan_steps:    0.0000000000000000       0.29331984769646990       0.58663969539293981     
 PAO|LS| adapt: energies:   -7.8081073944903956       -7.8101718794494079       -7.8095296218530201     
 PAO|LS| adapt: suggested step_size:   0.37038065138511445     
 PAO|LS| adapt: predicted energy  -7.8102652911162727     
 PAO| ======================= Iteration:        15 =============================

     Lanczos converged:  T threshold:   0.100E-02
     Est. extremal eigenvalues:    0.277E+01   0.178E+00
     Est. condition number :    0.156E+02

 Order=           3
     NS sqrt iter    1 1.00000000   0.706E+00       0.001       64.512
     NS sqrt iter    2 1.00000000   0.330E+00       0.001      110.592
     NS sqrt iter    3 1.00000000   0.762E-01       0.001      110.592
     NS sqrt iter    4 1.00000000   0.198E-02       0.001      110.592
     NS sqrt iter    5 1.00000000   0.732E-07       0.001       74.624
     Symmetrizing Results
     Final NS sqrt iter    5 1.00000000   0.590E-09

     Est. extremal eigenvalues     -0.93772     1.73637  converged:  T
     TRS4 it   1 1.00000000   0.886E+00       0.000       16.128   0.100E-07
     TRS4 it   2 1.00000000   0.629E+00       0.000       32.256   0.100E-07
     TRS4 it   3 1.00000000   0.431E+00       0.000       32.256   0.100E-07
     TRS4 it   4 1.00000000   0.222E+00       0.000       32.256   0.100E-07
     TRS4 it   5 1.00000000   0.732E-01       0.000       32.256   0.100E-07
     TRS4 it   6 1.00000000   0.997E-02       0.000       32.256   0.100E-07
     TRS4 it   7 1.00000000   0.244E-03       0.000       32.256   0.100E-07
     TRS4 it   8 1.00000000   0.199E-06       0.000       32.256   0.100E-07
     TRS4 it   9 1.00000000   0.165E-12       0.000       32.256   0.100E-07
     Final TRS4 iteration    9 1.00000000   0.165E-12
     Chemical potential (mu):       0.01122
 
 PAO| energy:  -7.8102622301239224      penalty:   1.5234759705619772E-005
 PAO|CG| trace_G_new    2.6222849732262634E-003
 PAO|CG| trace_G_prev    1.1807077165015037E-002
 PAO|CG| trace_G_mix    6.4548133950536175E-005
 PAO|CG| trace_D    1.6613615182473496E-002
 PAO|CG| trace_D_Gnew   3.3915533049645226E-005
 PAO|CG| beta:   0.21662743484513083     
 PAO| norm of gradient:   5.1208251026824414E-002
 PAO| energy improvement:  -2.1548356335268082E-003
 PAO| step     15                   -7.810262230  0.320E-02  0.370E+00     0.037
 PAO|LS| adapt:  T F F
 PAO|LS| adapt: scan_steps:    0.0000000000000000        0.0000000000000000        0.0000000000000000     
 PAO|LS| adapt: energies:   -7.8102622301239224        0.0000000000000000        0.0000000000000000     
 PAO| ======================= Iteration:        16 =============================

     Lanczos converged:  T threshold:   0.100E-02
     Est. extremal eigenvalues:    0.276E+01   0.178E+00
     Est. condition number :    0.155E+02

 Order=           3
     NS sqrt iter    1 1.00000000   0.705E+00       0.001       64.512
     NS sqrt iter    2 1.00000000   0.329E+00       0.001      110.592
     NS sqrt iter    3 1.00000000   0.755E-01       0.001      110.592
     NS sqrt iter    4 1.00000000   0.192E-02       0.001      110.592
     NS sqrt iter    5 1.00000000   0.669E-07       0.001       74.240
     Symmetrizing Results
     Final NS sqrt iter    5 1.00000000   0.579E-09

     Est. extremal eigenvalues     -0.93775     1.73501  converged:  T
     TRS4 it   1 1.00000000   0.886E+00       0.000       16.128   0.100E-07
     TRS4 it   2 1.00000000   0.628E+00       0.000       32.256   0.100E-07
     TRS4 it   3 1.00000000   0.429E+00       0.000       32.256   0.100E-07
     TRS4 it   4 1.00000000   0.220E+00       0.000       32.256   0.100E-07
     TRS4 it   5 1.00000000   0.719E-01       0.000       32.256   0.100E-07
     TRS4 it   6 1.00000000   0.965E-02       0.000       32.256   0.100E-07
     TRS4 it   7 1.00000000   0.229E-03       0.000       32.256   0.100E-07
     TRS4 it   8 1.00000000   0.178E-06       0.000       32.256   0.100E-07
     TRS4 it   9 1.00000000   0.133E-12       0.000       32.256   0.100E-07
     Final TRS4 iteration    9 1.00000000   0.133E-12
     Chemical potential (mu):       0.01206
 
 PAO| energy:  -7.8103884425297085      penalty:   1.5015979025431919E-005
 PAO|LS| adapt:  T T F
 PAO|LS| adapt: scan_steps:    0.0000000000000000       0.37038065138511445        0.0000000000000000     
 PAO|LS| adapt: energies:   -7.8102622301239224       -7.8103884425297085        0.0000000000000000     
 PAO| ======================= Iteration:        17 =============================

     Lanczos converged:  T threshold:   0.100E-02
     Est. extremal eigenvalues:    0.275E+01   0.179E+00
     Est. condition number :    0.154E+02

 Order=           3
     NS sqrt iter    1 1.00000000   0.703E+00       0.001       64.512
     NS sqrt iter    2 1.00000000   0.328E+00       0.001      110.592
     NS sqrt iter    3 1.00000000   0.749E-01       0.001      110.592
     NS sqrt iter    4 1.00000000   0.187E-02       0.001      110.592
     NS sqrt iter    5 1.00000000   0.613E-07       0.001       73.984
     Symmetrizing Results
     Final NS sqrt iter    5 1.00000000   0.560E-09

     Est. extremal eigenvalues     -0.93765     1.73371  converged:  T
     TRS4 it   1 1.00000000   0.886E+00       0.000       16.128   0.100E-07
     TRS4 it   2 1.00000000   0.627E+00       0.000       32.256   0.100E-07
     TRS4 it   3 1.00000000   0.428E+00       0.000       32.256   0.100E-07
     TRS4 it   4 1.00000000   0.219E+00       0.000       32.256   0.100E-07
     TRS4 it   5 1.00000000   0.707E-01       0.000       32.256   0.100E-07
     TRS4 it   6 1.00000000   0.934E-02       0.000       32.256   0.100E-07
     TRS4 it   7 1.00000000   0.216E-03       0.000       32.256   0.100E-07
     TRS4 it   8 1.00000000   0.159E-06       0.000       32.256   0.100E-07
     TRS4 it   9 1.00000000   0.106E-12       0.000       32.256   0.100E-07
     Final TRS4 iteration    9 1.00000000   0.106E-12
     Chemical potential (mu):       0.01289
 
 PAO| energy:  -7.8088245007492896      penalty:   1.4923136657981805E-005
 PAO|LS| adapt:  T T T
 PAO|LS| adapt: scan_steps:    0.0000000000000000       0.37038065138511445       0.74076130277022889     
 PAO|LS| adapt: energies:   -7.8102622301239224       -7.8103884425297085       -7.8088245007492896     
 PAO|LS| adapt: suggested step_size:   0.21284853193758232     
 PAO|LS| adapt: predicted energy  -7.8105413180610919     
 PAO| ======================= Iteration:        18 =============================

     Lanczos converged:  T threshold:   0.100E-02
     Est. extremal eigenvalues:    0.277E+01   0.178E+00
     Est. condition number :    0.156E+02

 Order=           3
     NS sqrt iter    1 1.00000000   0.705E+00       0.001       64.512
     NS sqrt iter    2 1.00000000   0.329E+00       0.001      110.592
     NS sqrt iter    3 1.00000000   0.758E-01       0.001      110.592
     NS sqrt iter    4 1.00000000   0.195E-02       0.001      110.592
     NS sqrt iter    5 1.00000000   0.695E-07       0.001       74.624
     Symmetrizing Results
     Final NS sqrt iter    5 1.00000000   0.567E-09

     Est. extremal eigenvalues     -0.93775     1.73558  converged:  T
     TRS4 it   1 1.00000000   0.886E+00       0.000       16.128   0.100E-07
     TRS4 it   2 1.00000000   0.629E+00       0.000       32.256   0.100E-07
     TRS4 it   3 1.00000000   0.430E+00       0.000       32.256   0.100E-07
     TRS4 it   4 1.00000000   0.221E+00       0.000       32.256   0.100E-07
     TRS4 it   5 1.00000000   0.724E-01       0.000       32.256   0.100E-07
     TRS4 it   6 1.00000000   0.978E-02       0.000       32.256   0.100E-07
     TRS4 it   7 1.00000000   0.235E-03       0.000       32.256   0.100E-07
     TRS4 it   8 1.00000000   0.187E-06       0.000       32.256   0.100E-07
     TRS4 it   9 1.00000000   0.145E-12       0.000       32.256   0.100E-07
     Final TRS4 iteration    9 1.00000000   0.145E-12
     Chemical potential (mu):       0.01171
 
 PAO| energy:  -7.8105408621438475      penalty:   1.5093918554439409E-005
 PAO|CG| trace_G_new    7.2616361559974245E-004
 PAO|CG| trace_G_prev    2.6222849732262634E-003
 PAO|CG| trace_G_mix    1.4272199903354995E-006
 PAO|CG| trace_D    3.3872254248660874E-003
 PAO|CG| trace_D_Gnew  -1.7314131170675772E-006
 PAO|CG| beta:   0.27637590994457989     
 PAO| norm of gradient:   2.6947423171794042E-002
 PAO| energy improvement:  -2.7863201992506248E-004
 PAO| step     18                   -7.810540862  0.168E-02  0.213E+00     0.036
 PAO|LS| adapt:  T F F
 PAO|LS| adapt: scan_steps:    0.0000000000000000        0.0000000000000000        0.0000000000000000     
 PAO|LS| adapt: energies:   -7.8105408621438475        0.0000000000000000        0.0000000000000000     
 PAO| ======================= Iteration:        19 =============================

     Lanczos converged:  T threshold:   0.100E-02
     Est. extremal eigenvalues:    0.277E+01   0.178E+00
     Est. condition number :    0.156E+02

 Order=           3
     NS sqrt iter    1 1.00000000   0.705E+00       0.001       64.512
     NS sqrt iter    2 1.00000000   0.330E+00       0.001      110.592
     NS sqrt iter    3 1.00000000   0.760E-01       0.001      110.592
     NS sqrt iter    4 1.00000000   0.196E-02       0.001      110.592
     NS sqrt iter    5 1.00000000   0.703E-07       0.001       74.624
     Symmetrizing Results
     Final NS sqrt iter    5 1.00000000   0.579E-09

     Est. extremal eigenvalues     -0.93775     1.73563  converged:  T
     TRS4 it   1 1.00000000   0.886E+00       0.000       16.128   0.100E-07
     TRS4 it   2 1.00000000   0.629E+00       0.000       32.256   0.100E-07
     TRS4 it   3 1.00000000   0.430E+00       0.000       32.256   0.100E-07
     TRS4 it   4 1.00000000   0.221E+00       0.000       32.256   0.100E-07
     TRS4 it   5 1.00000000   0.723E-01       0.000       32.256   0.100E-07
     TRS4 it   6 1.00000000   0.977E-02       0.000       32.256   0.100E-07
     TRS4 it   7 1.00000000   0.236E-03       0.000       32.256   0.100E-07
     TRS4 it   8 1.00000000   0.189E-06       0.000       32.256   0.100E-07
     TRS4 it   9 1.00000000   0.150E-12       0.000       32.256   0.100E-07
     Final TRS4 iteration    9 1.00000000   0.150E-12
     Chemical potential (mu):       0.01142
 
 PAO| energy:  -7.8106588159542500      penalty:   1.4804698349207364E-005
 PAO|LS| adapt:  T T F
 PAO|LS| adapt: scan_steps:    0.0000000000000000       0.21284853193758232        0.0000000000000000     
 PAO|LS| adapt: energies:   -7.8105408621438475       -7.8106588159542500        0.0000000000000000     
 PAO| ======================= Iteration:        20 =============================

     Lanczos converged:  T threshold:   0.100E-02
     Est. extremal eigenvalues:    0.277E+01   0.178E+00
     Est. condition number :    0.156E+02

 Order=           3
     NS sqrt iter    1 1.00000000   0.705E+00       0.001       64.512
     NS sqrt iter    2 1.00000000   0.330E+00       0.001      110.592
     NS sqrt iter    3 1.00000000   0.762E-01       0.001      110.592
     NS sqrt iter    4 1.00000000   0.197E-02       0.001      110.592
     NS sqrt iter    5 1.00000000   0.712E-07       0.001       74.624
     Symmetrizing Results
     Final NS sqrt iter    5 1.00000000   0.592E-09

     Est. extremal eigenvalues     -0.93775     1.73569  converged:  T
     TRS4 it   1 1.00000000   0.886E+00       0.000       16.128   0.100E-07
     TRS4 it   2 1.00000000   0.628E+00       0.000       32.256   0.100E-07
     TRS4 it   3 1.00000000   0.429E+00       0.000       32.256   0.100E-07
     TRS4 it   4 1.00000000   0.221E+00       0.000       32.256   0.100E-07
     TRS4 it   5 1.00000000   0.722E-01       0.000       32.256   0.100E-07
     TRS4 it   6 1.00000000   0.976E-02       0.000       32.256   0.100E-07
     TRS4 it   7 1.00000000   0.236E-03       0.000       32.256   0.100E-07
     TRS4 it   8 1.00000000   0.192E-06       0.000       32.256   0.100E-07
     TRS4 it   9 1.00000000   0.156E-12       0.000       32.256   0.100E-07
     Final TRS4 iteration    9 1.00000000   0.156E-12
     Chemical potential (mu):       0.01114
 
 PAO| energy:  -7.8107029555364393      penalty:   1.4527936723910598E-005
 PAO|LS| adapt:  T T F
 PAO|LS| adapt: scan_steps:    0.0000000000000000       0.42569706387516465        0.0000000000000000     
 PAO|LS| adapt: energies:   -7.8105408621438475       -7.8107029555364393        0.0000000000000000     
 PAO| ======================= Iteration:        21 =============================

     Lanczos converged:  T threshold:   0.100E-02
     Est. extremal eigenvalues:    0.277E+01   0.177E+00
     Est. condition number :    0.156E+02

 Order=           3
     NS sqrt iter    1 1.00000000   0.705E+00       0.001       64.512
     NS sqrt iter    2 1.00000000   0.330E+00       0.001      110.592
     NS sqrt iter    3 1.00000000   0.767E-01       0.001      110.592
     NS sqrt iter    4 1.00000000   0.199E-02       0.001      110.592
     NS sqrt iter    5 1.00000000   0.730E-07       0.001       75.008
     Symmetrizing Results
     Final NS sqrt iter    5 1.00000000   0.613E-09

     Est. extremal eigenvalues     -0.93774     1.73581  converged:  T
     TRS4 it   1 1.00000000   0.886E+00       0.000       16.128   0.100E-07
     TRS4 it   2 1.00000000   0.628E+00       0.000       32.256   0.100E-07
     TRS4 it   3 1.00000000   0.429E+00       0.000       32.256   0.100E-07
     TRS4 it   4 1.00000000   0.220E+00       0.000       32.256   0.100E-07
     TRS4 it   5 1.00000000   0.720E-01       0.000       32.256   0.100E-07
     TRS4 it   6 1.00000000   0.973E-02       0.000       32.256   0.100E-07
     TRS4 it   7 1.00000000   0.237E-03       0.000       32.256   0.100E-07
     TRS4 it   8 1.00000000   0.197E-06       0.000       32.256   0.100E-07
     TRS4 it   9 1.00000000   0.167E-12       0.000       32.256   0.100E-07
     Final TRS4 iteration    9 1.00000000   0.167E-12
     Chemical potential (mu):       0.01056
 
 PAO| energy:  -7.8105674317951319      penalty:   1.4011207343546094E-005
 PAO|LS| Need extra step
 PAO|LS| adapt:  T T T
 PAO|LS| adapt: scan_steps:    0.0000000000000000       0.42569706387516465       0.85139412775032930     
 PAO|LS| adapt: energies:   -7.8105408621438475       -7.8107029555364393       -7.8105674317951319     
 PAO|LS| adapt: suggested step_size:   0.44469903192684745     
 PAO|LS| adapt: predicted energy  -7.8107032520358208     
 PAO| ======================= Iteration:        22 =============================

     Lanczos converged:  T threshold:   0.100E-02
     Est. extremal eigenvalues:    0.277E+01   0.178E+00
     Est. condition number :    0.156E+02

 Order=           3
     NS sqrt iter    1 1.00000000   0.705E+00       0.001       64.512
     NS sqrt iter    2 1.00000000   0.330E+00       0.001      110.592
     NS sqrt iter    3 1.00000000   0.763E-01       0.001      110.592
     NS sqrt iter    4 1.00000000   0.197E-02       0.001      110.592
     NS sqrt iter    5 1.00000000   0.712E-07       0.001       74.624
     Symmetrizing Results
     Final NS sqrt iter    5 1.00000000   0.594E-09

     Est. extremal eigenvalues     -0.93775     1.73569  converged:  T
     TRS4 it   1 1.00000000   0.886E+00       0.000       16.128   0.100E-07
     TRS4 it   2 1.00000000   0.628E+00       0.000       32.256   0.100E-07
     TRS4 it   3 1.00000000   0.429E+00       0.000       32.256   0.100E-07
     TRS4 it   4 1.00000000   0.221E+00       0.000       32.256   0.100E-07
     TRS4 it   5 1.00000000   0.722E-01       0.000       32.256   0.100E-07
     TRS4 it   6 1.00000000   0.976E-02       0.000       32.256   0.100E-07
     TRS4 it   7 1.00000000   0.236E-03       0.000       32.256   0.100E-07
     TRS4 it   8 1.00000000   0.192E-06       0.000       32.256   0.100E-07
     TRS4 it   9 1.00000000   0.156E-12       0.000       32.256   0.100E-07
     Final TRS4 iteration    9 1.00000000   0.156E-12
     Chemical potential (mu):       0.01111
 
 PAO| energy:  -7.8107032871031139      penalty:   1.4503828686974676E-005
 PAO|CG| trace_G_new    2.2219542443866242E-004
 PAO|CG| trace_G_prev    7.2616361559974245E-004
 PAO|CG| trace_G_mix    2.9526047223859496E-006
 PAO|CG| trace_D    9.8584927698920199E-004
 PAO|CG| trace_D_Gnew  -1.8384012155682641E-006
 PAO|CG| beta:   0.30191931268162292     
 PAO| norm of gradient:   1.4906220997914341E-002
 PAO| energy improvement:  -1.6242495926643841E-004
 PAO| step     22                   -7.810703287  0.932E-03  0.445E+00     0.048
 PAO|LS| adapt:  T F F
 PAO|LS| adapt: scan_steps:    0.0000000000000000        0.0000000000000000        0.0000000000000000     
 PAO|LS| adapt: energies:   -7.8107032871031139        0.0000000000000000        0.0000000000000000     
 PAO| ======================= Iteration:        23 =============================

     Lanczos converged:  T threshold:   0.100E-02
     Est. extremal eigenvalues:    0.277E+01   0.178E+00
     Est. condition number :    0.156E+02

 Order=           3
     NS sqrt iter    1 1.00000000   0.705E+00       0.001       64.512
     NS sqrt iter    2 1.00000000   0.330E+00       0.001      110.592
     NS sqrt iter    3 1.00000000   0.763E-01       0.001      110.592
     NS sqrt iter    4 1.00000000   0.197E-02       0.001      110.592
     NS sqrt iter    5 1.00000000   0.711E-07       0.001       74.752
     Symmetrizing Results
     Final NS sqrt iter    5 1.00000000   0.594E-09

     Est. extremal eigenvalues     -0.93775     1.73515  converged:  T
     TRS4 it   1 1.00000000   0.885E+00       0.000       16.128   0.100E-07
     TRS4 it   2 1.00000000   0.628E+00       0.000       32.256   0.100E-07
     TRS4 it   3 1.00000000   0.429E+00       0.000       32.256   0.100E-07
     TRS4 it   4 1.00000000   0.221E+00       0.000       32.256   0.100E-07
     TRS4 it   5 1.00000000   0.723E-01       0.000       32.256   0.100E-07
     TRS4 it   6 1.00000000   0.979E-02       0.000       32.256   0.100E-07
     TRS4 it   7 1.00000000   0.239E-03       0.000       32.256   0.100E-07
     TRS4 it   8 1.00000000   0.197E-06       0.000       32.256   0.100E-07
     TRS4 it   9 1.00000000   0.165E-12       0.000       32.256   0.100E-07
     Final TRS4 iteration    9 1.00000000   0.165E-12
     Chemical potential (mu):       0.01078
 
 PAO| energy:  -7.8107527735096127      penalty:   1.3822061108560343E-005
 PAO|LS| adapt:  T T F
 PAO|LS| adapt: scan_steps:    0.0000000000000000       0.44469903192684745        0.0000000000000000     
 PAO|LS| adapt: energies:   -7.8107032871031139       -7.8107527735096127        0.0000000000000000     
 PAO| ======================= Iteration:        24 =============================

     Lanczos converged:  T threshold:   0.100E-02
     Est. extremal eigenvalues:    0.277E+01   0.178E+00
     Est. condition number :    0.156E+02

 Order=           3
     NS sqrt iter    1 1.00000000   0.705E+00       0.001       64.512
     NS sqrt iter    2 1.00000000   0.330E+00       0.001      110.592
     NS sqrt iter    3 1.00000000   0.763E-01       0.001      110.592
     NS sqrt iter    4 1.00000000   0.197E-02       0.001      110.592
     NS sqrt iter    5 1.00000000   0.710E-07       0.001       74.496
     Symmetrizing Results
     Final NS sqrt iter    5 1.00000000   0.604E-09

     Est. extremal eigenvalues     -0.93775     1.73461  converged:  T
     TRS4 it   1 1.00000000   0.885E+00       0.000       16.128   0.100E-07
     TRS4 it   2 1.00000000   0.628E+00       0.000       32.256   0.100E-07
     TRS4 it   3 1.00000000   0.429E+00       0.000       32.256   0.100E-07
     TRS4 it   4 1.00000000   0.221E+00       0.000       32.256   0.100E-07
     TRS4 it   5 1.00000000   0.723E-01       0.000       32.256   0.100E-07
     TRS4 it   6 1.00000000   0.983E-02       0.000       32.256   0.100E-07
     TRS4 it   7 1.00000000   0.241E-03       0.000       32.256   0.100E-07
     TRS4 it   8 1.00000000   0.201E-06       0.000       32.256   0.100E-07
     TRS4 it   9 1.00000000   0.172E-12       0.000       32.256   0.100E-07
     Final TRS4 iteration    9 1.00000000   0.172E-12
     Chemical potential (mu):       0.01045
 
 PAO| energy:  -7.8107024936800400      penalty:   1.3168689139436271E-005
 PAO|LS| adapt:  T T T
 PAO|LS| adapt: scan_steps:    0.0000000000000000       0.44469903192684745       0.88939806385369491     
 PAO|LS| adapt: energies:   -7.8107032871031139       -7.8107527735096127       -7.8107024936800400     
 PAO|LS| adapt: suggested step_size:   0.44293072590083710     
 PAO|LS| adapt: predicted energy  -7.8107527742983569     
 PAO| ======================= Iteration:        25 =============================

     Lanczos converged:  T threshold:   0.100E-02
     Est. extremal eigenvalues:    0.277E+01   0.178E+00
     Est. condition number :    0.156E+02

 Order=           3
     NS sqrt iter    1 1.00000000   0.705E+00       0.001       64.512
     NS sqrt iter    2 1.00000000   0.330E+00       0.001      110.592
     NS sqrt iter    3 1.00000000   0.763E-01       0.001      110.592
     NS sqrt iter    4 1.00000000   0.197E-02       0.001      110.592
     NS sqrt iter    5 1.00000000   0.711E-07       0.001       74.752
     Symmetrizing Results
     Final NS sqrt iter    5 1.00000000   0.594E-09

     Est. extremal eigenvalues     -0.93775     1.73516  converged:  T
     TRS4 it   1 1.00000000   0.885E+00       0.000       16.128   0.100E-07
     TRS4 it   2 1.00000000   0.628E+00       0.000       32.256   0.100E-07
     TRS4 it   3 1.00000000   0.429E+00       0.000       32.256   0.100E-07
     TRS4 it   4 1.00000000   0.221E+00       0.000       32.256   0.100E-07
     TRS4 it   5 1.00000000   0.723E-01       0.000       32.256   0.100E-07
     TRS4 it   6 1.00000000   0.979E-02       0.000       32.256   0.100E-07
     TRS4 it   7 1.00000000   0.239E-03       0.000       32.256   0.100E-07
     TRS4 it   8 1.00000000   0.197E-06       0.000       32.256   0.100E-07
     TRS4 it   9 1.00000000   0.164E-12       0.000       32.256   0.100E-07
     Final TRS4 iteration    9 1.00000000   0.164E-12
     Chemical potential (mu):       0.01078
 
 PAO| energy:  -7.8107527736768230      penalty:   1.3824715455862671E-005
 PAO|CG| trace_G_new    7.9585579805699781E-005
 PAO|CG| trace_G_prev    2.2219542443866242E-004
 PAO|CG| trace_G_mix    6.9170704365551193E-007
 PAO|CG| trace_D    3.1317088047554787E-004
 PAO|CG| trace_D_Gnew  -3.5153175443416001E-007
 PAO|CG| beta:   0.35506524475630286     
 PAO| norm of gradient:   8.9210750364347776E-003
 PAO| energy improvement:  -4.9486573709067727E-005
 PAO| step     25                   -7.810752774  0.558E-03  0.443E+00     0.037
 PAO|LS| adapt:  T F F
 PAO|LS| adapt: scan_steps:    0.0000000000000000        0.0000000000000000        0.0000000000000000     
 PAO|LS| adapt: energies:   -7.8107527736768230        0.0000000000000000        0.0000000000000000     
 PAO| ======================= Iteration:        26 =============================

     Lanczos converged:  T threshold:   0.100E-02
     Est. extremal eigenvalues:    0.277E+01   0.178E+00
     Est. condition number :    0.156E+02

 Order=           3
     NS sqrt iter    1 1.00000000   0.705E+00       0.001       64.512
     NS sqrt iter    2 1.00000000   0.330E+00       0.001      110.592
     NS sqrt iter    3 1.00000000   0.762E-01       0.001      110.592
     NS sqrt iter    4 1.00000000   0.196E-02       0.001      110.592
     NS sqrt iter    5 1.00000000   0.701E-07       0.001       74.368
     Symmetrizing Results
     Final NS sqrt iter    5 1.00000000   0.597E-09

     Est. extremal eigenvalues     -0.93775     1.73437  converged:  T
     TRS4 it   1 1.00000000   0.885E+00       0.000       16.128   0.100E-07
     TRS4 it   2 1.00000000   0.628E+00       0.000       32.256   0.100E-07
     TRS4 it   3 1.00000000   0.429E+00       0.000       32.256   0.100E-07
     TRS4 it   4 1.00000000   0.220E+00       0.000       32.256   0.100E-07
     TRS4 it   5 1.00000000   0.722E-01       0.000       32.256   0.100E-07
     TRS4 it   6 1.00000000   0.976E-02       0.000       32.256   0.100E-07
     TRS4 it   7 1.00000000   0.237E-03       0.000       32.256   0.100E-07
     TRS4 it   8 1.00000000   0.194E-06       0.000       32.256   0.100E-07
     TRS4 it   9 1.00000000   0.158E-12       0.000       32.256   0.100E-07
     Final TRS4 iteration    9 1.00000000   0.158E-12
     Chemical potential (mu):       0.01088
 
 PAO| energy:  -7.8107566711092780      penalty:   1.3101297730777819E-005
 PAO|LS| adapt:  T T F
 PAO|LS| adapt: scan_steps:    0.0000000000000000       0.44293072590083710        0.0000000000000000     
 PAO|LS| adapt: energies:   -7.8107527736768230       -7.8107566711092780        0.0000000000000000     
 PAO| ======================= Iteration:        27 =============================

     Lanczos converged:  T threshold:   0.100E-02
     Est. extremal eigenvalues:    0.277E+01   0.178E+00
     Est. condition number :    0.155E+02

 Order=           3
     NS sqrt iter    1 1.00000000   0.705E+00       0.001       64.512
     NS sqrt iter    2 1.00000000   0.330E+00       0.001      110.592
     NS sqrt iter    3 1.00000000   0.761E-01       0.001      110.592
     NS sqrt iter    4 1.00000000   0.195E-02       0.001      110.592
     NS sqrt iter    5 1.00000000   0.692E-07       0.001       74.368
     Symmetrizing Results
     Final NS sqrt iter    5 1.00000000   0.591E-09

     Est. extremal eigenvalues     -0.93775     1.73359  converged:  T
     TRS4 it   1 1.00000000   0.885E+00       0.000       16.128   0.100E-07
     TRS4 it   2 1.00000000   0.628E+00       0.000       32.256   0.100E-07
     TRS4 it   3 1.00000000   0.429E+00       0.000       32.256   0.100E-07
     TRS4 it   4 1.00000000   0.220E+00       0.000       32.256   0.100E-07
     TRS4 it   5 1.00000000   0.720E-01       0.000       32.256   0.100E-07
     TRS4 it   6 1.00000000   0.973E-02       0.000       32.256   0.100E-07
     TRS4 it   7 1.00000000   0.236E-03       0.000       32.256   0.100E-07
     TRS4 it   8 1.00000000   0.191E-06       0.000       32.256   0.100E-07
     TRS4 it   9 1.00000000   0.155E-12       0.000       32.256   0.100E-07
     Final TRS4 iteration    9 1.00000000   0.155E-12
     Chemical potential (mu):       0.01099
 
 PAO| energy:  -7.8106976467952300      penalty:   1.2401633373463366E-005
 PAO|LS| adapt:  T T T
 PAO|LS| adapt: scan_steps:    0.0000000000000000       0.44293072590083710       0.88586145180167419     
 PAO|LS| adapt: energies:   -7.8107527736768230       -7.8107566711092780       -7.8106976467952300     
 PAO|LS| adapt: suggested step_size:   0.24890091079171897     
 PAO|LS| adapt: predicted energy  -7.8107627083166875     
 PAO| ======================= Iteration:        28 =============================

     Lanczos converged:  T threshold:   0.100E-02
     Est. extremal eigenvalues:    0.277E+01   0.178E+00
     Est. condition number :    0.156E+02

 Order=           3
     NS sqrt iter    1 1.00000000   0.705E+00       0.001       64.512
     NS sqrt iter    2 1.00000000   0.330E+00       0.001      110.592
     NS sqrt iter    3 1.00000000   0.762E-01       0.001      110.592
     NS sqrt iter    4 1.00000000   0.197E-02       0.001      110.592
     NS sqrt iter    5 1.00000000   0.706E-07       0.001       74.496
     Symmetrizing Results
     Final NS sqrt iter    5 1.00000000   0.596E-09

     Est. extremal eigenvalues     -0.93775     1.73472  converged:  T
     TRS4 it   1 1.00000000   0.885E+00       0.000       16.128   0.100E-07
     TRS4 it   2 1.00000000   0.628E+00       0.000       32.256   0.100E-07
     TRS4 it   3 1.00000000   0.429E+00       0.000       32.256   0.100E-07
     TRS4 it   4 1.00000000   0.220E+00       0.000       32.256   0.100E-07
     TRS4 it   5 1.00000000   0.722E-01       0.000       32.256   0.100E-07
     TRS4 it   6 1.00000000   0.977E-02       0.000       32.256   0.100E-07
     TRS4 it   7 1.00000000   0.238E-03       0.000       32.256   0.100E-07
     TRS4 it   8 1.00000000   0.195E-06       0.000       32.256   0.100E-07
     TRS4 it   9 1.00000000   0.161E-12       0.000       32.256   0.100E-07
     Final TRS4 iteration    9 1.00000000   0.161E-12
     Chemical potential (mu):       0.01084
 
 PAO| energy:  -7.8107626991613648      penalty:   1.3415254572300363E-005
 PAO|CG| trace_G_new    3.1636813180788914E-005
 PAO|CG| trace_G_prev    7.9585579805699781E-005
 PAO|CG| trace_G_mix    4.8697750918609504E-008
 PAO|CG| trace_D    1.1931708202563877E-004
 PAO|CG| trace_D_Gnew  -2.4778435406066723E-008
 PAO|CG| beta:   0.39690752403877089     
 PAO| norm of gradient:   5.6246611614202075E-003
 PAO| energy improvement:  -9.9254845418172977E-006
 PAO| step     28                   -7.810762699  0.352E-03  0.249E+00     0.037
 PAO|LS| adapt:  T F F
 PAO|LS| adapt: scan_steps:    0.0000000000000000        0.0000000000000000        0.0000000000000000     
 PAO|LS| adapt: energies:   -7.8107626991613648        0.0000000000000000        0.0000000000000000     
 PAO| ======================= Iteration:        29 =============================

     Lanczos converged:  T threshold:   0.100E-02
     Est. extremal eigenvalues:    0.277E+01   0.178E+00
     Est. condition number :    0.156E+02

 Order=           3
     NS sqrt iter    1 1.00000000   0.705E+00       0.001       64.512
     NS sqrt iter    2 1.00000000   0.330E+00       0.001      110.592
     NS sqrt iter    3 1.00000000   0.762E-01       0.001      110.592
     NS sqrt iter    4 1.00000000   0.196E-02       0.001      110.592
     NS sqrt iter    5 1.00000000   0.701E-07       0.001       74.496
     Symmetrizing Results
     Final NS sqrt iter    5 1.00000000   0.593E-09

     Est. extremal eigenvalues     -0.93775     1.73442  converged:  T
     TRS4 it   1 1.00000000   0.885E+00       0.000       16.128   0.100E-07
     TRS4 it   2 1.00000000   0.628E+00       0.000       32.256   0.100E-07
     TRS4 it   3 1.00000000   0.429E+00       0.000       32.256   0.100E-07
     TRS4 it   4 1.00000000   0.220E+00       0.000       32.256   0.100E-07
     TRS4 it   5 1.00000000   0.721E-01       0.000       32.256   0.100E-07
     TRS4 it   6 1.00000000   0.975E-02       0.000       32.256   0.100E-07
     TRS4 it   7 1.00000000   0.236E-03       0.000       32.256   0.100E-07
     TRS4 it   8 1.00000000   0.192E-06       0.000       32.256   0.100E-07
     TRS4 it   9 1.00000000   0.157E-12       0.000       32.256   0.100E-07
     Final TRS4 iteration    9 1.00000000   0.157E-12
     Chemical potential (mu):       0.01096
 
 PAO| energy:  -7.8107696280224799      penalty:   1.2985944270800325E-005
 PAO|LS| adapt:  T T F
 PAO|LS| adapt: scan_steps:    0.0000000000000000       0.24890091079171897        0.0000000000000000     
 PAO|LS| adapt: energies:   -7.8107626991613648       -7.8107696280224799        0.0000000000000000     
 PAO| ======================= Iteration:        30 =============================

     Lanczos converged:  T threshold:   0.100E-02
     Est. extremal eigenvalues:    0.277E+01   0.178E+00
     Est. condition number :    0.156E+02

 Order=           3
     NS sqrt iter    1 1.00000000   0.705E+00       0.001       64.512
     NS sqrt iter    2 1.00000000   0.330E+00       0.001      110.592
     NS sqrt iter    3 1.00000000   0.761E-01       0.001      110.592
     NS sqrt iter    4 1.00000000   0.196E-02       0.001      110.592
     NS sqrt iter    5 1.00000000   0.697E-07       0.001       74.368
     Symmetrizing Results
     Final NS sqrt iter    5 1.00000000   0.594E-09

     Est. extremal eigenvalues     -0.93776     1.73413  converged:  T
     TRS4 it   1 1.00000000   0.885E+00       0.000       16.128   0.100E-07
     TRS4 it   2 1.00000000   0.628E+00       0.000       32.256   0.100E-07
     TRS4 it   3 1.00000000   0.429E+00       0.000       32.256   0.100E-07
     TRS4 it   4 1.00000000   0.220E+00       0.000       32.256   0.100E-07
     TRS4 it   5 1.00000000   0.720E-01       0.000       32.256   0.100E-07
     TRS4 it   6 1.00000000   0.972E-02       0.000       32.256   0.100E-07
     TRS4 it   7 1.00000000   0.235E-03       0.000       32.256   0.100E-07
     TRS4 it   8 1.00000000   0.190E-06       0.000       32.256   0.100E-07
     TRS4 it   9 1.00000000   0.152E-12       0.000       32.256   0.100E-07
     Final TRS4 iteration    9 1.00000000   0.152E-12
     Chemical potential (mu):       0.01109
 
 PAO| energy:  -7.8107746611496287      penalty:   1.2564411892754796E-005
 PAO|LS| adapt:  T T F
 PAO|LS| adapt: scan_steps:    0.0000000000000000       0.49780182158343794        0.0000000000000000     
 PAO|LS| adapt: energies:   -7.8107626991613648       -7.8107746611496287        0.0000000000000000     
 PAO| ======================= Iteration:        31 =============================

     Lanczos converged:  T threshold:   0.100E-02
     Est. extremal eigenvalues:    0.276E+01   0.178E+00
     Est. condition number :    0.155E+02

 Order=           3
     NS sqrt iter    1 1.00000000   0.704E+00       0.001       64.512
     NS sqrt iter    2 1.00000000   0.329E+00       0.001      110.592
     NS sqrt iter    3 1.00000000   0.760E-01       0.001      110.592
     NS sqrt iter    4 1.00000000   0.195E-02       0.001      110.592
     NS sqrt iter    5 1.00000000   0.688E-07       0.001       74.368
     Symmetrizing Results
     Final NS sqrt iter    5 1.00000000   0.588E-09

     Est. extremal eigenvalues     -0.93776     1.73354  converged:  T
     TRS4 it   1 1.00000000   0.885E+00       0.000       16.128   0.100E-07
     TRS4 it   2 1.00000000   0.628E+00       0.000       32.256   0.100E-07
     TRS4 it   3 1.00000000   0.429E+00       0.000       32.256   0.100E-07
     TRS4 it   4 1.00000000   0.220E+00       0.000       32.256   0.100E-07
     TRS4 it   5 1.00000000   0.718E-01       0.000       32.256   0.100E-07
     TRS4 it   6 1.00000000   0.967E-02       0.000       32.256   0.100E-07
     TRS4 it   7 1.00000000   0.232E-03       0.000       32.256   0.100E-07
     TRS4 it   8 1.00000000   0.185E-06       0.000       32.256   0.100E-07
     TRS4 it   9 1.00000000   0.144E-12       0.000       32.256   0.100E-07
     Final TRS4 iteration    9 1.00000000   0.144E-12
     Chemical potential (mu):       0.01134
 
 PAO| energy:  -7.8107790412907487      penalty:   1.1744525040769916E-005
 PAO|LS| Need extra step
 PAO|LS| adapt:  T T F
 PAO|LS| adapt: scan_steps:    0.0000000000000000       0.99560364316687588        0.0000000000000000     
 PAO|LS| adapt: energies:   -7.8107626991613648       -7.8107790412907487        0.0000000000000000     
 PAO| ======================= Iteration:        32 =============================

     Lanczos converged:  T threshold:   0.100E-02
     Est. extremal eigenvalues:    0.276E+01   0.178E+00
     Est. condition number :    0.155E+02

 Order=           3
[...]
     Symmetrizing Results
     Final NS sqrt iter    5 1.00000000   0.342E-09

     Est. extremal eigenvalues     -0.93744     1.63160  converged:  T
     TRS4 it   1 1.00000000   0.880E+00       0.000       16.128   0.100E-07
     TRS4 it   2 1.00000000   0.633E+00       0.000       32.256   0.100E-07
     TRS4 it   3 1.00000000   0.455E+00       0.000       32.256   0.100E-07
     TRS4 it   4 1.00000000   0.278E+00       0.000       32.256   0.100E-07
     TRS4 it   5 1.00000000   0.138E+00       0.000       32.256   0.100E-07
     TRS4 it   6 1.00000000   0.435E-01       0.000       32.256   0.100E-07
     TRS4 it   7 1.00000000   0.604E-02       0.000       32.256   0.100E-07
     TRS4 it   8 1.00000000   0.155E-03       0.000       32.256   0.100E-07
     TRS4 it   9 1.00000000   0.107E-06       0.000       32.256   0.100E-07
     TRS4 it  10 1.00000000   0.518E-13       0.000       32.256   0.100E-07
     Final TRS4 iteration   10 1.00000000   0.518E-13
     Chemical potential (mu):      -0.07655
 
 PAO| energy:  -7.8098475494543980      penalty:   3.0115810155366154E-008
 PAO|CG| warming up with steepest descent
 PAO|CG| beta:    0.0000000000000000     
 PAO| norm of gradient:   1.3746355497377014E-004
 PAO| energy improvement:  -5.6499462885994944E-009
 PAO| step    411                   -7.809847549  0.859E-05  0.260E+00     0.055
 PAO| converged after          411  steps :-)
 PAO| Recalculating energy after mixing.

     Lanczos converged:  T threshold:   0.100E-02
     Est. extremal eigenvalues:    0.249E+01   0.190E+00
     Est. condition number :    0.131E+02

 Order=           3
     NS sqrt iter    1 1.00000000   0.633E+00       0.001       64.512
     NS sqrt iter    2 1.00000000   0.275E+00       0.001      110.592
     NS sqrt iter    3 1.00000000   0.487E-01       0.001      110.592
     NS sqrt iter    4 1.00000000   0.765E-03       0.001      110.592
     NS sqrt iter    5 1.00000000   0.587E-08       0.001       38.272
     Symmetrizing Results
     Final NS sqrt iter    5 1.00000000   0.342E-09

     Est. extremal eigenvalues     -0.93744     1.63160  converged:  T
     TRS4 it   1 1.00000000   0.880E+00       0.000       16.128   0.100E-07
     TRS4 it   2 1.00000000   0.633E+00       0.000       32.256   0.100E-07
     TRS4 it   3 1.00000000   0.455E+00       0.000       32.256   0.100E-07
     TRS4 it   4 1.00000000   0.278E+00       0.000       32.256   0.100E-07
     TRS4 it   5 1.00000000   0.138E+00       0.000       32.256   0.100E-07
     TRS4 it   6 1.00000000   0.435E-01       0.000       32.256   0.100E-07
     TRS4 it   7 1.00000000   0.604E-02       0.000       32.256   0.100E-07
     TRS4 it   8 1.00000000   0.155E-03       0.000       32.256   0.100E-07
     TRS4 it   9 1.00000000   0.107E-06       0.000       32.256   0.100E-07
     TRS4 it  10 1.00000000   0.523E-13       0.000       32.256   0.100E-07
     Final TRS4 iteration   10 1.00000000   0.523E-13
     Chemical potential (mu):      -0.07655
 
 PAO| energy:  -7.8098475480418958      penalty:   3.0433037019327466E-008
 PAO| Writing restart file.
     Est. extremal eigenvalues     -0.93744     1.63160  converged:  T
     TRS4 it   1 1.00000000   0.880E+00       0.000       16.128   0.100E-07
     TRS4 it   2 1.00000000   0.633E+00       0.000       32.256   0.100E-07
     TRS4 it   3 1.00000000   0.455E+00       0.000       32.256   0.100E-07
     TRS4 it   4 1.00000000   0.278E+00       0.000       32.256   0.100E-07
     TRS4 it   5 1.00000000   0.138E+00       0.000       32.256   0.100E-07
     TRS4 it   6 1.00000000   0.435E-01       0.000       32.256   0.100E-07
     TRS4 it   7 1.00000000   0.604E-02       0.000       32.256   0.100E-07
     TRS4 it   8 1.00000000   0.155E-03       0.000       32.256   0.100E-07
     TRS4 it   9 1.00000000   0.107E-06       0.000       32.256   0.100E-07
     TRS4 it  10 1.00000000   0.523E-13       0.000       32.256   0.100E-07
     Final TRS4 iteration   10 1.00000000   0.523E-13
     Chemical potential (mu):      -0.07655

 SCF     1       -34.449803530       -34.449803530    1.780014

*********************************************************
 Using MIXING_FRACTION=0.450 to mix KS matrix:  iscf=  2
 KS_nw=0.450*KS + 0.550*KS_old
*********************************************************
     Est. extremal eigenvalues     -0.93745     1.63160  converged:  T
     TRS4 it   1 1.00000000   0.880E+00       0.000       16.128   0.100E-07
     TRS4 it   2 1.00000000   0.633E+00       0.000       32.256   0.100E-07
     TRS4 it   3 1.00000000   0.455E+00       0.000       32.256   0.100E-07
     TRS4 it   4 1.00000000   0.278E+00       0.000       32.256   0.100E-07
     TRS4 it   5 1.00000000   0.138E+00       0.000       32.256   0.100E-07
     TRS4 it   6 1.00000000   0.435E-01       0.000       32.256   0.100E-07
     TRS4 it   7 1.00000000   0.604E-02       0.000       32.256   0.100E-07
     TRS4 it   8 1.00000000   0.155E-03       0.000       32.256   0.100E-07
     TRS4 it   9 1.00000000   0.107E-06       0.000       32.256   0.100E-07
     TRS4 it  10 1.00000000   0.521E-13       0.000       32.256   0.100E-07
     Final TRS4 iteration   10 1.00000000   0.521E-13
     Chemical potential (mu):      -0.07655

 SCF     2       -34.449803530        -0.000000000    1.560820


 SCF run converged in     2 steps.

 PAO| Storing density matrix for ASPC guess in slot:           1

 ENERGY| Total FORCE_EVAL ( QS ) energy [a.u.]:              -34.449803529893828

 -------------------------------------------------------------------------------
 -                                                                             -
 -                                DBCSR STATISTICS                             -
 -                                                                             -
 -------------------------------------------------------------------------------
 COUNTER                                    TOTAL       BLAS       SMM       ACC
 flops     5 x     5 x     4                20000       0.0%    100.0%      0.0%
 flops    13 x     5 x     4                20800       0.0%    100.0%      0.0%
 flops     5 x    13 x     4                20800       0.0%    100.0%      0.0%
 flops    13 x    13 x     4                40560       0.0%    100.0%      0.0%
 flops     4 x     4 x     5              3229440       0.0%    100.0%      0.0%
 flops     5 x     4 x     5              3948800       0.0%    100.0%      0.0%
 flops     4 x     4 x    13              4198272       0.0%    100.0%      0.0%
 flops    13 x     4 x     5              5133440       0.0%    100.0%      0.0%
 flops     5 x     4 x    13              5133440       0.0%    100.0%      0.0%
 flops     5 x     4 x     4              6260000       0.0%    100.0%      0.0%
 flops    13 x     4 x    13              6673472       0.0%    100.0%      0.0%
 flops    13 x     4 x     4              8271744       0.0%    100.0%      0.0%
 flops     4 x     4 x     4            418151424       0.0%    100.0%      0.0%
 flops inhomo. stacks                           0       0.0%      0.0%      0.0%
 flops total                       461.102192E+06       0.0%    100.0%      0.0%
 flops max/rank                    461.102192E+06       0.0%    100.0%      0.0%
 matmuls inhomo. stacks                         0       0.0%      0.0%      0.0%
 matmuls total                            3400727       0.0%    100.0%      0.0%
 number of processed stacks                 27076       0.0%    100.0%      0.0%
 average stack size                                     0.0     125.6       0.0
 marketing flops                   749.822208E+06
 -------------------------------------------------------------------------------
 # multiplications                          22654
 max memory usage/rank             506.040320E+06
 # max total images/rank                        1
 # max 3D layers                                1
 # MPI messages exchanged                       0
 -------------------------------------------------------------------------------

 -------------------------------------------------------------------------------
 -                                                                             -
 -                                DBM STATISTICS                               -
 -                                                                             -
 -------------------------------------------------------------------------------
    M  x    N  x    K                                          COUNT     PERCENT
 -------------------------------------------------------------------------------

 -------------------------------------------------------------------------------
 -                                                                             -
 -                                GRID STATISTICS                              -
 -                                                                             -
 -------------------------------------------------------------------------------
 LP    KERNEL             BACKEND                              COUNT     PERCENT
 2     collocate ortho    REF                                  38130      30.73%
 2     integrate ortho    REF                                  38130      30.73%
 3     collocate ortho    REF                                  19630      15.82%
 3     integrate ortho    REF                                  19630      15.82%
 4     collocate ortho    REF                                   4270       3.44%
 4     integrate ortho    REF                                   4270       3.44%
 0     collocate general  REF                                      6       0.00%
 -------------------------------------------------------------------------------

 MEMORY| Estimated peak process memory [MiB]                                 483

 -------------------------------------------------------------------------------
 -                                                                             -
 -                           R E F E R E N C E S                               -
 -                                                                             -
 -------------------------------------------------------------------------------
 
 CP2K version 2023.1 (Development Version), the CP2K developers group (2023).
 CP2K is freely available from https://www.cp2k.org/ .

 Kuehne,Thomas D.; Iannuzzi,Marcella; Del Ben,Mauro;
 Rybkin,Vladimir V.; Seewald,Patrick; Stein,Frederick; Laino,Teodoro;
 Khaliullin,Rustam Z.; Schuett,Ole; Schiffmann,Florian; Golze,Dorothea;
 Wilhelm,Jan; Chulkov,Sergey; Bani-Hashemian,Mohammad Hossein;
 Weber,Valery; Borstnik,Urban; Taillefumier,Mathieu;
 Jakobovits,Alice Shoshana; Lazzaro,Alfio; Pabst,Hans; Mueller,Tiziano;
 Schade,Robert; Guidon,Manuel; Andermatt,Samuel; Holmberg,Nico;
 Schenter,Gregory K.; Hehn,Anna; Bussy,Augustin; Belleflamme,Fabian;
 Tabacchi,Gloria; Gloess,Andreas; Lass,Michael; Bethune,Iain;
 Mundy,Christopher J.; Plessl,Christian; Watkins,Matt;
 VandeVondele,Joost; Krack,Matthias; Hutter,Juerg. 
 The Journal of Chemical Physics, 152 (19), (2020). 
 CP2K: An electronic structure and molecular dynamics software package -
 Quickstep: Efficient and accurate electronic structure calculations.
 https://doi.org/10.1063/5.0007045

 Schuett, O; VandeVondele, J. 
 Journal of Chemical Theory and Computation, 14, (2018). 
 Machine Learning Adaptive Basis Sets for Efficient Large Scale
 Density Functional Theory Simulation.
 https://doi.org/10.1021/acs.jctc.8b00378

 Schuett, Ole; Messmer, Peter; Hutter, Juerg; VandeVondele, Joost. 
 Electronic Structure Calculations on Graphics Processing Units, John
 Wiley & Sons, Ltd, 173-190 (2016). 
 GPU-Accelerated Sparse Matrix-Matrix Multiplication for
 Linear Scaling Density Functional Theory.
 https://doi.org/10.1002/9781118670712.ch8

 Heinecke, A; Henry, G; Hutchinson, M; Pabst, H. 
 Proceedings of Intl. Supercomputing Conference, 981-991 (2016). 
 LIBXSMM: Accelerating Small Matrix Multiplications
 by Runtime Code Generation.
 https://doi.org/10.1109/SC.2016.83

 Borstnik, U; VandeVondele, J; Weber, V; Hutter, J. 
 PARALLEL COMPUTING, 40 (5-6), 47-58 (2014). 
 Sparse matrix multiplication: The distributed block-compressed sparse
 row library.
 https://doi.org/10.1016/j.parco.2014.03.012

 Hutter, J; Iannuzzi, M; Schiffmann, F; VandeVondele, J. 
 WIREs Comput Mol Sci., 4 (1), 15-25 (2014). 
 CP2K: atomistic simulations of condensed matter systems.
 https://doi.org/10.1002/wcms.1159

 VandeVondele, J; Borstnik, U; Hutter, J. 
 JOURNAL OF CHEMICAL THEORY AND COMPUTATION, 8 (10), 3565-3573 (2012). 
 Linear Scaling Self-Consistent Field Calculations with Millions of Atoms
 in the Condensed Phase.
 https://doi.org/10.1021/ct200897x

 VandeVondele, J; Hutter, J. 
 JOURNAL OF CHEMICAL PHYSICS, 127 (11), 114105 (2007). 
 Gaussian basis sets for accurate calculations on molecular systems in
 gas and condensed phases.
 https://doi.org/10.1063/1.2770708

 Krack, M. 
 THEORETICAL CHEMISTRY ACCOUNTS, 114 (1-3), 145-152 (2005). 
 Pseudopotentials for H to Kr optimized for gradient-corrected
 exchange-correlation functionals.
 https://doi.org/10.1007/s00214-005-0655-y

 VandeVondele, J; Krack, M; Mohamed, F; Parrinello, M; Chassaing, T;
 Hutter, J. COMPUTER PHYSICS COMMUNICATIONS, 167 (2), 103-128 (2005). 
 QUICKSTEP: Fast and accurate density functional calculations using a
 mixed Gaussian and plane waves approach.
 https://doi.org/10.1016/j.cpc.2004.12.014

 Frigo, M; Johnson, SG. 
 PROCEEDINGS OF THE IEEE, 93 (2), 216-231 (2005). 
 The design and implementation of FFTW3.
 https://doi.org/10.1109/JPROC.2004.840301

 Niklasson, AMN; Tymczak, CJ; Challacombe, M. 
 JOURNAL OF CHEMICAL PHYSICS, 118 (19), 8611-8620 (2003). 
 Trace resetting density matrix purification in O(N)
 self-consistent-field theory.
 https://doi.org/10.1063/1.1559913

 Hartwigsen, C; Goedecker, S; Hutter, J. 
 PHYSICAL REVIEW B, 58 (7), 3641-3662 (1998). 
 Relativistic separable dual-space Gaussian pseudopotentials from H to Rn.
 https://doi.org/10.1103/PhysRevB.58.3641

 Lippert, G; Hutter, J; Parrinello, M. 
 MOLECULAR PHYSICS, 92 (3), 477-487 (1997). 
 A hybrid Gaussian and plane wave density functional scheme.
 https://doi.org/10.1080/002689797170220

 Perdew, JP; Burke, K; Ernzerhof, M. 
 PHYSICAL REVIEW LETTERS, 77 (18), 3865-3868 (1996). 
 Generalized gradient approximation made simple.
 https://doi.org/10.1103/PhysRevLett.77.3865

 Goedecker, S; Teter, M; Hutter, J. 
 PHYSICAL REVIEW B, 54 (3), 1703-1710 (1996). 
 Separable dual-space Gaussian pseudopotentials.
 https://doi.org/10.1103/PhysRevB.54.1703


 -------------------------------------------------------------------------------
 -                                                                             -
 -                                T I M I N G                                  -
 -                                                                             -
 -------------------------------------------------------------------------------
 SUBROUTINE                       CALLS  ASD         SELF TIME        TOTAL TIME
                                MAXIMUM       AVERAGE  MAXIMUM  AVERAGE  MAXIMUM
 CP2K                                 1  1.0    0.008    0.008   24.182   24.182
 qs_energies                          1  2.0    0.000    0.000   23.798   23.798
 ls_scf                               1  3.0    0.000    0.000   23.677   23.677
 ls_scf_main                          4  4.0    0.001    0.001   16.241   16.241
 ls_scf_dm_to_ks                      9  5.0    0.000    0.000   16.180   16.180
 qs_ks_update_qs_env                 10  6.0    0.000    0.000   14.604   14.604
 rebuild_ks_matrix                   10  7.0    0.000    0.000   14.604   14.604
 qs_ks_build_kohn_sham_matrix        10  8.0    0.002    0.002   14.604   14.604
 qs_vxc_create                       10  9.0    0.000    0.000    9.453    9.453
 xc_vxc_pw_create                    10 10.0    0.197    0.197    9.453    9.453
 pw_transfer                        191 11.1    0.022    0.022    7.649    7.649
 fft_wrap_pw1pw2                    171 12.3    0.003    0.003    7.396    7.396
 fft_wrap_pw1pw2_200                111 13.7    0.940    0.940    7.197    7.197
 xc_pw_derive                        60 12.0    0.001    0.001    5.705    5.705
 xc_rho_set_and_dset_create          10 11.0    0.252    0.252    5.170    5.170
 pao_update                           4  4.0    0.005    0.005    5.090    5.090
 pao_calc_energy                    414  5.0    0.002    0.002    4.612    4.612
 xc_pw_divergence                    10 11.0    0.001    0.001    3.948    3.948
 qs_rho_update_rho_low               10  6.0    0.000    0.000    3.887    3.887
 calculate_rho_elec                  10  7.0    0.038    0.038    3.887    3.887
 dbcsr_multiply_generic           22654  8.4    0.232    0.232    3.660    3.660
 sum_up_and_integrate                10  9.0    0.111    0.111    3.628    3.628
 integrate_v_rspace                  10 10.0    0.001    0.001    3.517    3.517
 fft3d_s                            172 14.2    2.769    2.769    2.782    2.782
 grid_integrate_task_list            10 11.0    2.671    2.671    2.671    2.671
 pao_dm_trs4                        414  6.0    0.001    0.001    2.422    2.422
 density_matrix_trs4                423  7.0    0.081    0.081    2.342    2.342
 pao_guess_initial_P                  1  4.0    0.000    0.000    2.315    2.315
 pao_read_preopt_dm                   1  5.0    0.000    0.000    2.315    2.315
 grid_collocate_task_list            10  8.0    2.256    2.256    2.256    2.256
 ls_scf_init_matrix_S               418  7.0    0.002    0.002    2.181    2.181
 pao_rebuild_S                      414  6.0    0.001    0.001    2.159    2.159
 matrix_sqrt_Newton_Schulz          418  8.0    0.048    0.048    1.969    1.969
 xc_functional_eval                  10 12.0    0.000    0.000    1.946    1.946
 pbe_lda_eval                        10 13.0    1.946    1.946    1.946    1.946
 pw_scatter_s                        90 14.7    1.823    1.823    1.823    1.823
 pw_gather_s                         81 13.8    1.822    1.822    1.822    1.822
 density_rs2pw                       10  8.0    0.001    0.001    1.594    1.594
 make_m2s                         45308  9.4    0.086    0.086    1.387    1.387
 multiply_cannon                  22654  9.4    0.549    0.549    1.353    1.353
 pw_derive                           60 13.0    1.308    1.308    1.308    1.308
 make_images                      45308 10.4    0.357    0.357    1.234    1.234
 pw_copy                            120 11.8    0.855    0.855    0.855    0.855
 potential_pw2rs                     10 11.0    0.002    0.002    0.845    0.845
 arnoldi_extremal                   841  8.5    0.002    0.002    0.718    0.718
 arnoldi_normal_ev                  841  9.5    0.005    0.005    0.717    0.717
 pw_axpy                             90 10.3    0.668    0.668    0.668    0.668
 pw_poisson_solve                    10  9.0    0.110    0.110    0.610    0.610
 build_subspace                     841 10.5    0.031    0.031    0.566    0.566
 dbcsr_matrix_vector_mult         20146 11.5    0.063    0.063    0.523    0.523
 -------------------------------------------------------------------------------

 The number of warnings for this run is : 0
 
 -------------------------------------------------------------------------------
  **** **** ******  **  PROGRAM ENDED AT                 2023-02-01 10:45:44.010
 ***** ** ***  *** **   PROGRAM RAN ON                                    moritz
 **    ****   ******    PROGRAM RAN BY                                       ole
 ***** **    ** ** **   PROGRAM PROCESS ID                                148560
  **** **  *******  **  PROGRAM STOPPED IN /home/ole/git/pao_ml_equivar/2H2O_rot
                                           ations/phi_03
