 DBCSR| CPU Multiplication driver                                           XSMM (U)
 DBCSR| Multrec recursion limit                                              512 (U)
 DBCSR| Multiplication stack size                                           1000 (D)
 DBCSR| Maximum elements for images                                    UNLIMITED (U)
 DBCSR| Multiplicative factor virtual images                                   1 (U)
 DBCSR| Use multiplication densification                                       T (D)
 DBCSR| Multiplication size stacks                                             3 (U)
 DBCSR| Use memory pool for CPU allocation                                     F (U)
 DBCSR| OMP: Current number of threads                                         1
 DBCSR| OMP: Max number of threads                                             1
 DBCSR| Split modifier for TAS multiplication algorithm                  1.0E+00 (U)


  **** **** ******  **  PROGRAM STARTED AT               2023-02-01 10:43:54.933
 ***** ** ***  *** **   PROGRAM STARTED ON                                moritz
 **    ****   ******    PROGRAM STARTED BY                                   ole
 ***** **    ** ** **   PROGRAM PROCESS ID                                148492
  **** **  *******  **  PROGRAM STARTED IN /home/ole/git/pao_ml_equivar/2H2O_rot
                                           ations/rand_02

 CP2K| version string:                 CP2K version 2023.1 (Development Version)
 CP2K| source code revision number:                                  git:03b4147
 CP2K| cp2kflags: omp libint fftw3 libxc quip xsmm spglib libvori libbqb libtorc
 CP2K|            h
 CP2K| is freely available from                            https://www.cp2k.org/
 CP2K| Program compiled at                           Mi 01 Feb 2023 10:36:52 CET
 CP2K| Program compiled on                                                moritz
 CP2K| Program compiled for                                                local
 CP2K| Data directory path                               /home/ole/git/cp2k/data
 CP2K| Input file name                                            2H2O_pao44.inp

 GLOBAL| Force Environment number                                              1
 GLOBAL| Basis set file name                                        BASIS_MOLOPT
 GLOBAL| Potential file name                                      GTH_POTENTIALS
 GLOBAL| MM Potential file name                                     MM_POTENTIAL
 GLOBAL| Coordinate file name                                         coords.xyz
 GLOBAL| Method name                                                        CP2K
 GLOBAL| Project name                                                 2H2O_pao44
 GLOBAL| Run type                                                         ENERGY
 GLOBAL| FFT library                                                       FFTW3
 GLOBAL| Diagonalization library                                       ScaLAPACK
 GLOBAL| DGEMM library                                                      BLAS
 GLOBAL| Orthonormality check for eigenvectors                          DISABLED
 GLOBAL| Matrix multiplication library                                 ScaLAPACK
 GLOBAL| All-to-all communication in single precision                          F
 GLOBAL| FFTs using library dependent lengths                                  F
 GLOBAL| Grid backend                                                       AUTO
 GLOBAL| Global print level                                                  LOW
 GLOBAL| MPI I/O enabled                                                       T
 GLOBAL| Total number of message passing processes                             1
 GLOBAL| Number of threads for this process                                    1
 GLOBAL| This output is from process                                           0
 GLOBAL| Stack size for threads created by OpenMP (OMP_STACKSIZE)        default
 GLOBAL| CPU model name           AMD Ryzen Threadripper 3970X 32-Core Processor
 GLOBAL| CPUID                                                              1002
 GLOBAL| Compiled for CPUID                                                    0

 *** HINT in environment.F:884 :: The compiler target flags (generic) used ***
 *** to build this binary cannot exploit all extensions of this CPU model  ***
 *** (x86_avx2). Consider compiler target flags as part of FCFLAGS and     ***
 *** CFLAGS (ARCH file).                                                   ***


 MEMORY| system memory details [Kb]
 MEMORY|                        rank 0           min           max       average
 MEMORY| MemTotal            131773860     131773860     131773860     131773860
 MEMORY| MemFree             115402276     115402276     115402276     115402276
 MEMORY| Buffers                301492        301492        301492        301492
 MEMORY| Cached                7000768       7000768       7000768       7000768
 MEMORY| Slab                   776600        776600        776600        776600
 MEMORY| SReclaimable           330700        330700        330700        330700
 MEMORY| MemLikelyFree       123035236     123035236     123035236     123035236


 GENERATE|  Preliminary Number of Bonds generated:                             0
 GENERATE|  Achieved consistency in connectivity generation.

 *******************************************************************************
 *******************************************************************************
 **                                                                           **
 **     #####                         ##              ##                      **
 **    ##   ##            ##          ##              ##                      **
 **   ##     ##                       ##            ######                    **
 **   ##     ##  ##   ##  ##   #####  ##  ##   ####   ##    #####    #####    **
 **   ##     ##  ##   ##  ##  ##      ## ##   ##      ##   ##   ##  ##   ##   **
 **   ##  ## ##  ##   ##  ##  ##      ####     ###    ##   ######   ######    **
 **    ##  ###   ##   ##  ##  ##      ## ##      ##   ##   ##       ##        **
 **     #######   #####   ##   #####  ##  ##  ####    ##    #####   ##        **
 **           ##                                                    ##        **
 **                                                                           **
 **                                                ... make the atoms dance   **
 **                                                                           **
 **            Copyright (C) by CP2K developers group (2000-2023)             **
 **                      J. Chem. Phys. 152, 194103 (2020)                    **
 **                                                                           **
 *******************************************************************************


 TOTAL NUMBERS AND MAXIMUM NUMBERS

  Total number of            - Atomic kinds:                                   2
                             - Atoms:                                          6
                             - Shell sets:                                     6
                             - Shells:                                        22
                             - Primitive Cartesian functions:                 42
                             - Cartesian basis functions:                     48
                             - Spherical basis functions:                     46

  Maximum angular momentum of- Orbital basis functions:                        2
                             - Local part of the GTH pseudopotential:          2
                             - Non-local part of the GTH pseudopotential:      0

 ------------------------------ Linear scaling SCF -----------------------------
 eps_scf:                                                              0.100E-07
 eps_filter:                                                           0.100E-07
 mixing_fraction:                                                      0.450E+00
 max_scf:                                                                     25
 fixed chemical potential (mu)                                                 F
 has unit metric:                                                              F
 Computing inv(S):                                                             T
 Computing sqrt(S):                                                            T
 Computing S preconditioner                                                    F
 S sqrt method:                                                     NEWTONSCHULZ
 S sqrt order:                                                                 3
 Extrapolation order:                                                          1
 Use single precision matrices                                                 F
 S preconditioner type                                                      NONE
 Polarized Atomic Orbitals (PAO)                                               T
 Purification method                                   Trace resetting 4th order
 Cluster type                                                             ATOMIC
 Computing Chebyshev                                                       FALSE
 Using PAO                                                                     T
 -------------------------------------------------------------------------------

 
 PAO|                                  EPS_PAO                           0.1E-04
 PAO|                                  MIXING                            0.5E+00
 PAO|                                  MAX_PAO                              1000
 PAO|                                  MAX_CYCLES                           1000
 PAO|                                  PARAMETERIZATION              EQUIVARIANT
 PAO|                                  PRECONDITION                            F
 PAO|                                  REGULARIZATION                    0.0E+00
 PAO|                                  EPS_PGF                           0.1E-09
 PAO|                                  PENALTY_DISTANCE                  0.1E+00
 PAO|                                  PENALTY_STRENGTH                  0.5E-02
 PAO|                                  LINPOT_PRECONDITION_DELTA         0.0E+00
 PAO|                                  LINPOT_INITGUESS_DELT             0.0E+00
 PAO|                                  LINPOT_REGULARIZATION_DELTA       0.0E+00
 PAO|                                  LINPOT_REGULARIZATION_STRENGTH    0.0E+00
 PAO|                                  OPTIMIZER                              CG
 PAO|                                  CG_INIT_STEPS                           2
 PAO|                                  CG_RESET_LIMIT                    0.1E+00
 PAO|                                  CHECK_UNITARY_TOL                -0.1E+01
 PAO|                                  CHECK_GRADIENT_TOL               -0.1E+01
 PAO|                                  NUM_GRADIENT_ORDER                      2
 PAO|                                  NUM_GRADIENT_EPS                  0.1E-07
 PAO|                                  PRINT%RESTART%WRITE_CYCLES            100
 PAO|                                  RESTART_FILE 
 PAO|                                  PREOPT_DM_FILE 2H2O_ref_LS_DM_SPIN_1_RESTART.dm
 PAO|                                  MACHINE_LEARNING%METHOD       GAUSSIAN_PR
 PAO|                                  MACHINE_LEARNING%PRIOR               ZERO
 PAO|                                  MACHINE_LEARNING%DESCRIPTOR     POTENTIAL
 PAO|                                  MACHINE_LEARNING%TOLERANCE        0.1E-01
 PAO|                                  MACHINE_LEARNING%GP_NOISE_VAR     0.1E+00
 PAO|                                  MACHINE_LEARNING%GP_SCALE         0.5E-01
 

 Calculating atomic Fock matrix for atomic kind: O

 Electronic structure
    Total number of core electrons                                          2.00
    Total number of valence electrons                                       6.00
    Total number of electrons                                               8.00
    Multiplicity                                                   not specified
    S   [  2.00] 2.00
    P      4.00


 *******************************************************************************
                  Iteration          Convergence                     Energy [au]
 *******************************************************************************
                          1        0.708315                     -15.576645311500
                          2        0.608879                     -15.587933561584
                          3        0.102828E-01                 -15.656849565404
                          4        0.113889E-02                 -15.656866888140
                          5        0.434197E-03                 -15.656867072159
                          6        0.263771E-03                 -15.656867091904
                          7        0.478536E-06                 -15.656867103452

 Energy components [Hartree]           Total Energy ::          -15.656867103452
                                        Band Energy ::           -3.000198112285
                                     Kinetic Energy ::           11.759971203220
                                   Potential Energy ::          -27.416838306672
                                      Virial (-V/T) ::            2.331369510426
                                        Core Energy ::          -26.140716385623
                                          XC Energy ::           -3.154051012914
                                     Coulomb Energy ::           13.637900295084
                       Total Pseudopotential Energy ::          -37.935781716540
                       Local Pseudopotential Energy ::          -39.218907440693
                    Nonlocal Pseudopotential Energy ::            1.283125724153
                                        Confinement ::            0.350941276976

 Orbital energies  State     L     Occupation   Energy[a.u.]          Energy[eV]

                       1     0          2.000      -0.864471          -23.523463

                       1     1          4.000      -0.317814           -8.648154


 Total Electron Density at R=0:                                         0.000068

 Calculating atomic Fock matrix for atomic kind: H

 Electronic structure
    Total number of core electrons                                          0.00
    Total number of valence electrons                                       1.00
    Total number of electrons                                               1.00
    Multiplicity                                                   not specified
    S      1.00


 *******************************************************************************
                  Iteration          Convergence                     Energy [au]
 *******************************************************************************
                          1        0.437545E-02                  -0.424159432110
                          2        0.531356E-03                  -0.424178438213
                          3        0.259176E-06                  -0.424178722480

 Energy components [Hartree]           Total Energy ::           -0.424178722480
                                        Band Energy ::           -0.199015229016
                                     Kinetic Energy ::            0.464007633961
                                   Potential Energy ::           -0.888186356441
                                      Virial (-V/T) ::            1.914163240935
                                        Core Energy ::           -0.479160803564
                                          XC Energy ::           -0.244352904054
                                     Coulomb Energy ::            0.299334985138
                       Total Pseudopotential Energy ::           -0.962295316385
                       Local Pseudopotential Energy ::           -0.962295316385
                    Nonlocal Pseudopotential Energy ::            0.000000000000
                                        Confinement ::            0.191268788606

 Orbital energies  State     L     Occupation   Energy[a.u.]          Energy[eV]

                       1     0          1.000      -0.199015           -5.415480


 Total Electron Density at R=0:                                         0.242907
 PAO| Made initial guess for matrix_X with norm:   4.8989794855663558     

     Lanczos converged:  T threshold:   0.100E-02
     Est. extremal eigenvalues:    0.336E+01   0.112E+00
     Est. condition number :    0.301E+02

 Order=           3
     NS sqrt iter    1 1.00000000   0.821E+00       0.001       50.878
     NS sqrt iter    2 1.00000000   0.440E+00       0.001      110.592
     NS sqrt iter    3 1.00000000   0.171E+00       0.001      110.592
     NS sqrt iter    4 1.00000000   0.211E-01       0.001      110.592
     NS sqrt iter    5 1.00000000   0.604E-04       0.001       95.488
     Symmetrizing Results
     Final NS sqrt iter    5 1.00000000   0.240E-08

 PAO| Read restart DM 2H2O_ref_LS_DM_SPIN_1_RESTART.dm with checksum:    69.196804020511394     
 PAO| Quickstep energy from restart density:  -34.449880418034084     
 PAO| ======================= Iteration:         1 =============================

     Lanczos converged:  T threshold:   0.100E-02
     Est. extremal eigenvalues:    0.336E+01   0.112E+00
     Est. condition number :    0.301E+02

 Order=           3
     NS sqrt iter    1 1.00000000   0.821E+00       0.001       59.779
     NS sqrt iter    2 1.00000000   0.440E+00       0.001       99.463
     NS sqrt iter    3 1.00000000   0.171E+00       0.001      100.967
     NS sqrt iter    4 1.00000000   0.211E-01       0.001      100.631
     NS sqrt iter    5 1.00000000   0.604E-04       0.001       87.773
     Symmetrizing Results
     Final NS sqrt iter    5 1.00000000   0.240E-08

     Est. extremal eigenvalues     -0.92133     1.94479  converged:  T
     TRS4 it   1 1.00000000   0.900E+00       0.000       16.128   0.100E-07
     TRS4 it   2 1.00000000   0.707E+00       0.001       32.256   0.100E-07
     TRS4 it   3 1.00000000   0.506E+00       0.001       32.256   0.100E-07
     TRS4 it   4 1.00000000   0.319E+00       0.001       32.256   0.100E-07
     TRS4 it   5 1.00000000   0.160E+00       0.001       32.256   0.100E-07
     TRS4 it   6 1.00000000   0.512E-01       0.001       32.256   0.100E-07
     TRS4 it   7 1.00000000   0.741E-02       0.001       32.256   0.100E-07
     TRS4 it   8 1.00000000   0.220E-03       0.001       32.256   0.100E-07
     TRS4 it   9 1.00000000   0.216E-06       0.001       32.256   0.100E-07
     TRS4 it  10 1.00000000   0.211E-12       0.001       32.256   0.100E-07
     Final TRS4 iteration   10 1.00000000   0.211E-12
     Chemical potential (mu):      -0.06569
 
 PAO| energy:  -7.6313778063481337      penalty:   3.2047474274603599E-033
 PAO|CG| warming up with steepest descent
 PAO|CG| beta:    0.0000000000000000     
 PAO| norm of gradient:  0.78373312754915170     
 PAO|LS| adapt:  T F F
 PAO|LS| adapt: scan_steps:    0.0000000000000000        0.0000000000000000        0.0000000000000000     
 PAO|LS| adapt: energies:   -7.6313778063481337        0.0000000000000000        0.0000000000000000     
 PAO| ======================= Iteration:         2 =============================

     Lanczos converged:  T threshold:   0.100E-02
     Est. extremal eigenvalues:    0.328E+01   0.124E+00
     Est. condition number :    0.265E+02

 Order=           3
     NS sqrt iter    1 1.00000000   0.804E+00       0.001       59.206
     NS sqrt iter    2 1.00000000   0.424E+00       0.001       99.661
     NS sqrt iter    3 1.00000000   0.153E+00       0.001      101.291
     NS sqrt iter    4 1.00000000   0.147E-01       0.001      103.068
     NS sqrt iter    5 1.00000000   0.204E-04       0.001       77.692
     Symmetrizing Results
     Final NS sqrt iter    5 1.00000000   0.648E-09

     Est. extremal eigenvalues     -0.92501     1.88610  converged:  T
     TRS4 it   1 1.00000000   0.898E+00       0.000       16.128   0.100E-07
     TRS4 it   2 1.00000000   0.688E+00       0.001       32.256   0.100E-07
     TRS4 it   3 1.00000000   0.491E+00       0.001       32.256   0.100E-07
     TRS4 it   4 1.00000000   0.299E+00       0.001       32.256   0.100E-07
     TRS4 it   5 1.00000000   0.141E+00       0.001       32.256   0.100E-07
     TRS4 it   6 1.00000000   0.400E-01       0.001       32.256   0.100E-07
     TRS4 it   7 1.00000000   0.457E-02       0.001       32.256   0.100E-07
     TRS4 it   8 1.00000000   0.846E-04       0.001       32.256   0.100E-07
     TRS4 it   9 1.00000000   0.319E-07       0.001       32.256   0.100E-07
     Final TRS4 iteration    9 1.00000000   0.319E-07
     Chemical potential (mu):      -0.05385
 
 PAO| energy:  -7.6868943636605493      penalty:   2.2563479299416580E-008
 PAO|LS| adapt:  T T F
 PAO|LS| adapt: scan_steps:    0.0000000000000000       0.10000000000000001        0.0000000000000000     
 PAO|LS| adapt: energies:   -7.6313778063481337       -7.6868943636605493        0.0000000000000000     
 PAO| ======================= Iteration:         3 =============================

     Lanczos converged:  T threshold:   0.100E-02
     Est. extremal eigenvalues:    0.318E+01   0.135E+00
     Est. condition number :    0.236E+02

 Order=           3
     NS sqrt iter    1 1.00000000   0.786E+00       0.001       59.168
     NS sqrt iter    2 1.00000000   0.408E+00       0.001      101.266
     NS sqrt iter    3 1.00000000   0.136E+00       0.001      101.073
     NS sqrt iter    4 1.00000000   0.102E-01       0.001      103.539
     NS sqrt iter    5 1.00000000   0.712E-05       0.001       78.393
     Symmetrizing Results
     Final NS sqrt iter    5 1.00000000   0.789E-10

     Est. extremal eigenvalues     -0.92845     1.83725  converged:  T
     TRS4 it   1 1.00000000   0.895E+00       0.000       16.128   0.100E-07
     TRS4 it   2 1.00000000   0.671E+00       0.001       32.256   0.100E-07
     TRS4 it   3 1.00000000   0.476E+00       0.001       32.256   0.100E-07
     TRS4 it   4 1.00000000   0.280E+00       0.001       32.256   0.100E-07
     TRS4 it   5 1.00000000   0.122E+00       0.001       32.256   0.100E-07
     TRS4 it   6 1.00000000   0.302E-01       0.001       32.256   0.100E-07
     TRS4 it   7 1.00000000   0.262E-02       0.001       32.256   0.100E-07
     TRS4 it   8 1.00000000   0.278E-04       0.001       32.256   0.100E-07
     TRS4 it   9 1.00000000   0.344E-08       0.001       32.256   0.100E-07
     Final TRS4 iteration    9 1.00000000   0.344E-08
     Chemical potential (mu):      -0.04104
 
 PAO| energy:  -7.7299417537216319      penalty:   3.6101545839682416E-007
 PAO|LS| adapt:  T T F
 PAO|LS| adapt: scan_steps:    0.0000000000000000       0.20000000000000001        0.0000000000000000     
 PAO|LS| adapt: energies:   -7.6313778063481337       -7.7299417537216319        0.0000000000000000     
 PAO| ======================= Iteration:         4 =============================

     Lanczos converged:  T threshold:   0.100E-02
     Est. extremal eigenvalues:    0.299E+01   0.154E+00
     Est. condition number :    0.194E+02

 Order=           3
     NS sqrt iter    1 1.00000000   0.749E+00       0.001       58.882
     NS sqrt iter    2 1.00000000   0.373E+00       0.001       99.224
     NS sqrt iter    3 1.00000000   0.107E+00       0.001      100.291
     NS sqrt iter    4 1.00000000   0.499E-02       0.001      101.894
     NS sqrt iter    5 1.00000000   0.997E-06       0.001       77.239
     Symmetrizing Results
     Final NS sqrt iter    5 1.00000000   0.163E-11

     Est. extremal eigenvalues     -0.93378     1.76273  converged:  T
     TRS4 it   1 1.00000000   0.890E+00       0.000       16.128   0.100E-07
     TRS4 it   2 1.00000000   0.642E+00       0.001       32.256   0.100E-07
     TRS4 it   3 1.00000000   0.446E+00       0.001       32.256   0.100E-07
     TRS4 it   4 1.00000000   0.243E+00       0.001       32.256   0.100E-07
     TRS4 it   5 1.00000000   0.904E-01       0.001       32.256   0.100E-07
     TRS4 it   6 1.00000000   0.160E-01       0.001       32.256   0.100E-07
     TRS4 it   7 1.00000000   0.698E-03       0.001       32.256   0.100E-07
     TRS4 it   8 1.00000000   0.192E-05       0.001       32.256   0.100E-07
     TRS4 it   9 1.00000000   0.165E-10       0.001       32.256   0.100E-07
     Final TRS4 iteration    9 1.00000000   0.165E-10
     Chemical potential (mu):      -0.01275
 
 PAO| energy:  -7.7770546797977449      penalty:   5.7762456512022464E-006
 PAO|LS| Need extra step
 PAO|LS| adapt:  T T F
 PAO|LS| adapt: scan_steps:    0.0000000000000000       0.40000000000000002        0.0000000000000000     
 PAO|LS| adapt: energies:   -7.6313778063481337       -7.7770546797977449        0.0000000000000000     
 PAO| ======================= Iteration:         5 =============================

     Lanczos converged:  T threshold:   0.100E-02
     Est. extremal eigenvalues:    0.263E+01   0.184E+00
     Est. condition number :    0.143E+02

 Order=           3
     NS sqrt iter    1 1.00000000   0.684E+00       0.001       58.705
     NS sqrt iter    2 1.00000000   0.311E+00       0.001       98.237
     NS sqrt iter    3 1.00000000   0.657E-01       0.001      102.542
     NS sqrt iter    4 1.00000000   0.134E-02       0.001      100.387
     NS sqrt iter    5 1.00000000   0.223E-07       0.001       54.660
     Symmetrizing Results
     Final NS sqrt iter    5 1.00000000   0.534E-08

     Est. extremal eigenvalues     -0.93499     1.67268  converged:  T
     TRS4 it   1 1.00000000   0.881E+00       0.000       16.128   0.100E-07
     TRS4 it   2 1.00000000   0.600E+00       0.001       32.256   0.100E-07
     TRS4 it   3 1.00000000   0.395E+00       0.001       32.256   0.100E-07
     TRS4 it   4 1.00000000   0.184E+00       0.001       32.256   0.100E-07
     TRS4 it   5 1.00000000   0.483E-01       0.001       32.256   0.100E-07
     TRS4 it   6 1.00000000   0.412E-02       0.001       32.256   0.100E-07
     TRS4 it   7 1.00000000   0.386E-04       0.001       32.256   0.100E-07
     TRS4 it   8 1.00000000   0.425E-08       0.001       32.256   0.100E-07
     Final TRS4 iteration    8 1.00000000   0.425E-08
     Chemical potential (mu):       0.03774
 
 PAO| energy:  -7.7220226725775536      penalty:   9.2419916954072375E-005
 PAO|LS| Need extra step
 PAO|LS| adapt:  T T T
 PAO|LS| adapt: scan_steps:    0.0000000000000000       0.40000000000000002       0.80000000000000004     
 PAO|LS| adapt: energies:   -7.6313778063481337       -7.7770546797977449       -7.7220226725775536     
 PAO|LS| adapt: suggested step_size:   0.49032471899292279     
 PAO|LS| adapt: predicted energy  -7.7821718498416974     
 PAO| ======================= Iteration:         6 =============================

     Lanczos converged:  T threshold:   0.100E-02
     Est. extremal eigenvalues:    0.290E+01   0.161E+00
     Est. condition number :    0.180E+02

 Order=           3
     NS sqrt iter    1 1.00000000   0.732E+00       0.001       59.074
     NS sqrt iter    2 1.00000000   0.358E+00       0.001       99.927
     NS sqrt iter    3 1.00000000   0.952E-01       0.001       99.064
     NS sqrt iter    4 1.00000000   0.367E-02       0.001      100.264
     NS sqrt iter    5 1.00000000   0.421E-06       0.001       77.019
     Symmetrizing Results
     Final NS sqrt iter    5 1.00000000   0.300E-12

     Est. extremal eigenvalues     -0.93525     1.73683  converged:  T
     TRS4 it   1 1.00000000   0.887E+00       0.000       16.128   0.100E-07
     TRS4 it   2 1.00000000   0.631E+00       0.001       32.256   0.100E-07
     TRS4 it   3 1.00000000   0.434E+00       0.001       32.256   0.100E-07
     TRS4 it   4 1.00000000   0.228E+00       0.001       32.256   0.100E-07
     TRS4 it   5 1.00000000   0.782E-01       0.001       32.256   0.100E-07
     TRS4 it   6 1.00000000   0.117E-01       0.001       32.256   0.100E-07
     TRS4 it   7 1.00000000   0.358E-03       0.001       32.256   0.100E-07
     TRS4 it   8 1.00000000   0.484E-06       0.001       32.256   0.100E-07
     TRS4 it   9 1.00000000   0.104E-11       0.001       32.256   0.100E-07
     Final TRS4 iteration    9 1.00000000   0.104E-11
     Chemical potential (mu):       0.00095
 
 PAO| energy:  -7.7814237269504192      penalty:   1.3041898573020934E-005
 PAO|CG| warming up with steepest descent
 PAO|CG| beta:    0.0000000000000000     
 PAO| norm of gradient:  0.41603770397943168     
 PAO| energy improvement: -0.15004592060228550     
 PAO| step      6                   -7.781423727  0.260E-01  0.490E+00     0.091
 PAO|LS| adapt:  T F F
 PAO|LS| adapt: scan_steps:    0.0000000000000000        0.0000000000000000        0.0000000000000000     
 PAO|LS| adapt: energies:   -7.7814237269504192        0.0000000000000000        0.0000000000000000     
 PAO| ======================= Iteration:         7 =============================

     Lanczos converged:  T threshold:   0.100E-02
     Est. extremal eigenvalues:    0.281E+01   0.174E+00
     Est. condition number :    0.161E+02

 Order=           3
     NS sqrt iter    1 1.00000000   0.715E+00       0.001       59.202
     NS sqrt iter    2 1.00000000   0.337E+00       0.001       99.577
     NS sqrt iter    3 1.00000000   0.798E-01       0.001       97.938
     NS sqrt iter    4 1.00000000   0.226E-02       0.001      103.341
     NS sqrt iter    5 1.00000000   0.110E-06       0.001       73.816
     Symmetrizing Results
     Final NS sqrt iter    5 1.00000000   0.911E-09

     Est. extremal eigenvalues     -0.93697     1.72564  converged:  T
     TRS4 it   1 1.00000000   0.887E+00       0.000       16.128   0.100E-07
     TRS4 it   2 1.00000000   0.629E+00       0.001       32.256   0.100E-07
     TRS4 it   3 1.00000000   0.434E+00       0.001       32.256   0.100E-07
     TRS4 it   4 1.00000000   0.229E+00       0.001       32.256   0.100E-07
     TRS4 it   5 1.00000000   0.793E-01       0.001       32.256   0.100E-07
     TRS4 it   6 1.00000000   0.117E-01       0.001       32.256   0.100E-07
     TRS4 it   7 1.00000000   0.344E-03       0.001       32.256   0.100E-07
     TRS4 it   8 1.00000000   0.429E-06       0.001       32.256   0.100E-07
     TRS4 it   9 1.00000000   0.808E-12       0.001       32.256   0.100E-07
     Final TRS4 iteration    9 1.00000000   0.808E-12
     Chemical potential (mu):       0.00232
 
 PAO| energy:  -7.7757081576716569      penalty:   1.9658841811103745E-005
 PAO|LS| adapt:  T F T
 PAO|LS| adapt: scan_steps:    0.0000000000000000        0.0000000000000000       0.49032471899292279     
 PAO|LS| adapt: energies:   -7.7814237269504192        0.0000000000000000       -7.7757081576716569     
 PAO| ======================= Iteration:         8 =============================

     Lanczos converged:  T threshold:   0.100E-02
     Est. extremal eigenvalues:    0.286E+01   0.168E+00
     Est. condition number :    0.170E+02

 Order=           3
     NS sqrt iter    1 1.00000000   0.724E+00       0.001       58.765
     NS sqrt iter    2 1.00000000   0.348E+00       0.001       99.065
     NS sqrt iter    3 1.00000000   0.873E-01       0.001      100.807
     NS sqrt iter    4 1.00000000   0.289E-02       0.001      102.474
     NS sqrt iter    5 1.00000000   0.219E-06       0.001       75.101
     Symmetrizing Results
     Final NS sqrt iter    5 1.00000000   0.110E-08

     Est. extremal eigenvalues     -0.93706     1.73067  converged:  T
     TRS4 it   1 1.00000000   0.887E+00       0.000       16.128   0.100E-07
     TRS4 it   2 1.00000000   0.630E+00       0.001       32.256   0.100E-07
     TRS4 it   3 1.00000000   0.433E+00       0.001       32.256   0.100E-07
     TRS4 it   4 1.00000000   0.228E+00       0.001       32.256   0.100E-07
     TRS4 it   5 1.00000000   0.785E-01       0.001       32.256   0.100E-07
     TRS4 it   6 1.00000000   0.118E-01       0.001       32.256   0.100E-07
     TRS4 it   7 1.00000000   0.361E-03       0.001       32.256   0.100E-07
     TRS4 it   8 1.00000000   0.486E-06       0.001       32.256   0.100E-07
     TRS4 it   9 1.00000000   0.105E-11       0.001       32.256   0.100E-07
     Final TRS4 iteration    9 1.00000000   0.105E-11
     Chemical potential (mu):       0.00112
 
 PAO| energy:  -7.8009796464724843      penalty:   1.4125860852116983E-005
 PAO|LS| adapt:  T T T
 PAO|LS| adapt: scan_steps:    0.0000000000000000       0.24516235949646140       0.49032471899292279     
 PAO|LS| adapt: energies:   -7.7814237269504192       -7.8009796464724843       -7.7757081576716569     
 PAO|LS| adapt: suggested step_size:   0.22953305476224978     
 PAO|LS| adapt: predicted energy  -7.8010707395486918     
 PAO| ======================= Iteration:         9 =============================

     Lanczos converged:  T threshold:   0.100E-02
     Est. extremal eigenvalues:    0.286E+01   0.167E+00
     Est. condition number :    0.171E+02

 Order=           3
     NS sqrt iter    1 1.00000000   0.724E+00       0.001       59.064
     NS sqrt iter    2 1.00000000   0.348E+00       0.001      100.069
     NS sqrt iter    3 1.00000000   0.878E-01       0.001      100.611
     NS sqrt iter    4 1.00000000   0.294E-02       0.001       99.324
     NS sqrt iter    5 1.00000000   0.229E-06       0.001       77.084
     Symmetrizing Results
     Final NS sqrt iter    5 1.00000000   0.101E-08

     Est. extremal eigenvalues     -0.93700     1.73103  converged:  T
     TRS4 it   1 1.00000000   0.887E+00       0.000       16.128   0.100E-07
     TRS4 it   2 1.00000000   0.630E+00       0.001       32.256   0.100E-07
     TRS4 it   3 1.00000000   0.433E+00       0.001       32.256   0.100E-07
     TRS4 it   4 1.00000000   0.228E+00       0.001       32.256   0.100E-07
     TRS4 it   5 1.00000000   0.785E-01       0.001       32.256   0.100E-07
     TRS4 it   6 1.00000000   0.118E-01       0.001       32.256   0.100E-07
     TRS4 it   7 1.00000000   0.361E-03       0.001       32.256   0.100E-07
     TRS4 it   8 1.00000000   0.488E-06       0.001       32.256   0.100E-07
     TRS4 it   9 1.00000000   0.105E-11       0.001       32.256   0.100E-07
     Final TRS4 iteration    9 1.00000000   0.105E-11
     Chemical potential (mu):       0.00108
 
 PAO| energy:  -7.8010936149258390      penalty:   1.3960856356378394E-005
 PAO|CG| trace_G_new    3.6576256983803880E-002
 PAO|CG| trace_G_prev   0.17308737113247724     
 PAO|CG| trace_G_mix   -1.4180100798870904E-003
 PAO|CG| trace_D   0.17308737113247724     
 PAO|CG| trace_D_Gnew   1.4180100798870904E-003
 PAO|CG| beta:   0.21950918091309501     
 PAO| norm of gradient:  0.19124920126317882     
 PAO| energy improvement:  -1.9669887975419797E-002
 PAO| step      9                   -7.801093615  0.120E-01  0.230E+00     0.057
 PAO|LS| adapt:  T F F
 PAO|LS| adapt: scan_steps:    0.0000000000000000        0.0000000000000000        0.0000000000000000     
 PAO|LS| adapt: energies:   -7.8010936149258390        0.0000000000000000        0.0000000000000000     
 PAO| ======================= Iteration:        10 =============================

     Lanczos converged:  T threshold:   0.100E-02
     Est. extremal eigenvalues:    0.282E+01   0.173E+00
     Est. condition number :    0.163E+02

 Order=           3
     NS sqrt iter    1 1.00000000   0.716E+00       0.001       57.960
     NS sqrt iter    2 1.00000000   0.340E+00       0.001      100.945
     NS sqrt iter    3 1.00000000   0.822E-01       0.001       99.545
     NS sqrt iter    4 1.00000000   0.242E-02       0.001      102.893
     NS sqrt iter    5 1.00000000   0.126E-06       0.001       72.867
     Symmetrizing Results
     Final NS sqrt iter    5 1.00000000   0.899E-09

     Est. extremal eigenvalues     -0.93789     1.72332  converged:  T
     TRS4 it   1 1.00000000   0.884E+00       0.000       16.128   0.100E-07
     TRS4 it   2 1.00000000   0.627E+00       0.001       32.256   0.100E-07
     TRS4 it   3 1.00000000   0.431E+00       0.001       32.256   0.100E-07
     TRS4 it   4 1.00000000   0.225E+00       0.001       32.256   0.100E-07
     TRS4 it   5 1.00000000   0.761E-01       0.001       32.256   0.100E-07
     TRS4 it   6 1.00000000   0.110E-01       0.001       32.256   0.100E-07
     TRS4 it   7 1.00000000   0.312E-03       0.001       32.256   0.100E-07
     TRS4 it   8 1.00000000   0.356E-06       0.001       32.256   0.100E-07
     TRS4 it   9 1.00000000   0.555E-12       0.001       32.256   0.100E-07
     Final TRS4 iteration    9 1.00000000   0.555E-12
     Chemical potential (mu):       0.00416
 
 PAO| energy:  -7.8060778240997202      penalty:   1.4489914827000623E-005
 PAO|LS| adapt:  T T F
 PAO|LS| adapt: scan_steps:    0.0000000000000000       0.22953305476224978        0.0000000000000000     
 PAO|LS| adapt: energies:   -7.8010936149258390       -7.8060778240997202        0.0000000000000000     
 PAO| ======================= Iteration:        11 =============================

     Lanczos converged:  T threshold:   0.100E-02
     Est. extremal eigenvalues:    0.278E+01   0.179E+00
     Est. condition number :    0.155E+02

 Order=           3
     NS sqrt iter    1 1.00000000   0.709E+00       0.001       59.444
     NS sqrt iter    2 1.00000000   0.332E+00       0.001       99.272
     NS sqrt iter    3 1.00000000   0.768E-01       0.001       99.107
     NS sqrt iter    4 1.00000000   0.198E-02       0.001      101.419
     NS sqrt iter    5 1.00000000   0.683E-07       0.001       68.768
     Symmetrizing Results
     Final NS sqrt iter    5 1.00000000   0.901E-09

     Est. extremal eigenvalues     -0.93780     1.71661  converged:  T
     TRS4 it   1 1.00000000   0.882E+00       0.000       16.128   0.100E-07
     TRS4 it   2 1.00000000   0.625E+00       0.001       32.256   0.100E-07
     TRS4 it   3 1.00000000   0.428E+00       0.001       32.256   0.100E-07
     TRS4 it   4 1.00000000   0.222E+00       0.001       32.256   0.100E-07
     TRS4 it   5 1.00000000   0.738E-01       0.001       32.256   0.100E-07
     TRS4 it   6 1.00000000   0.103E-01       0.001       32.256   0.100E-07
     TRS4 it   7 1.00000000   0.268E-03       0.001       32.256   0.100E-07
     TRS4 it   8 1.00000000   0.255E-06       0.001       32.256   0.100E-07
     TRS4 it   9 1.00000000   0.282E-12       0.001       32.256   0.100E-07
     Final TRS4 iteration    9 1.00000000   0.282E-12
     Chemical potential (mu):       0.00740
 
 PAO| energy:  -7.8046260045055051      penalty:   1.5680306309175268E-005
 PAO|LS| adapt:  T T T
 PAO|LS| adapt: scan_steps:    0.0000000000000000       0.22953305476224978       0.45906610952449955     
 PAO|LS| adapt: energies:   -7.8010936149258390       -7.8060778240997202       -7.8046260045055051     
 PAO|LS| adapt: suggested step_size:   0.29252222091159158     
 PAO|LS| adapt: predicted energy  -7.8063201664002309     
 PAO| ======================= Iteration:        12 =============================

     Lanczos converged:  T threshold:   0.100E-02
     Est. extremal eigenvalues:    0.281E+01   0.175E+00
     Est. condition number :    0.161E+02

 Order=           3
     NS sqrt iter    1 1.00000000   0.714E+00       0.001       58.992
     NS sqrt iter    2 1.00000000   0.338E+00       0.001       97.708
     NS sqrt iter    3 1.00000000   0.807E-01       0.001       99.138
     NS sqrt iter    4 1.00000000   0.229E-02       0.001       98.961
     NS sqrt iter    5 1.00000000   0.107E-06       0.001       72.811
     Symmetrizing Results
     Final NS sqrt iter    5 1.00000000   0.886E-09

     Est. extremal eigenvalues     -0.93796     1.72138  converged:  T
     TRS4 it   1 1.00000000   0.883E+00       0.000       16.128   0.100E-07
     TRS4 it   2 1.00000000   0.627E+00       0.001       32.256   0.100E-07
     TRS4 it   3 1.00000000   0.430E+00       0.001       32.256   0.100E-07
     TRS4 it   4 1.00000000   0.224E+00       0.001       32.256   0.100E-07
     TRS4 it   5 1.00000000   0.755E-01       0.001       32.256   0.100E-07
     TRS4 it   6 1.00000000   0.108E-01       0.001       32.256   0.100E-07
     TRS4 it   7 1.00000000   0.299E-03       0.001       32.256   0.100E-07
     TRS4 it   8 1.00000000   0.325E-06       0.001       32.256   0.100E-07
     TRS4 it   9 1.00000000   0.462E-12       0.001       32.256   0.100E-07
     Final TRS4 iteration    9 1.00000000   0.462E-12
     Chemical potential (mu):       0.00504
 
 PAO| energy:  -7.8063042943331737      penalty:   1.4743304512945193E-005
 PAO|CG| trace_G_new    1.1704084983445081E-002
 PAO|CG| trace_G_prev    3.6576256983803880E-002
 PAO|CG| trace_G_mix   -4.6313287873383309E-004
 PAO|CG| trace_D    4.4293814964023015E-002
 PAO|CG| trace_D_Gnew   2.1213153191244373E-004
 PAO|CG| beta:   0.33265344421564541     
 PAO| norm of gradient:  0.10818541945865479     
 PAO| energy improvement:  -5.2106794073347729E-003
 PAO| step     12                   -7.806304294  0.676E-02  0.293E+00     0.058
 PAO|LS| adapt:  T F F
 PAO|LS| adapt: scan_steps:    0.0000000000000000        0.0000000000000000        0.0000000000000000     
 PAO|LS| adapt: energies:   -7.8063042943331737        0.0000000000000000        0.0000000000000000     
 PAO| ======================= Iteration:        13 =============================

     Lanczos converged:  T threshold:   0.100E-02
     Est. extremal eigenvalues:    0.278E+01   0.179E+00
     Est. condition number :    0.155E+02

 Order=           3
     NS sqrt iter    1 1.00000000   0.707E+00       0.001       58.509
     NS sqrt iter    2 1.00000000   0.331E+00       0.001       99.312
     NS sqrt iter    3 1.00000000   0.764E-01       0.001       98.772
     NS sqrt iter    4 1.00000000   0.195E-02       0.001      102.575
     NS sqrt iter    5 1.00000000   0.668E-07       0.001       68.488
     Symmetrizing Results
     Final NS sqrt iter    5 1.00000000   0.897E-09

     Est. extremal eigenvalues     -0.93844     1.71355  converged:  T
     TRS4 it   1 1.00000000   0.882E+00       0.000       16.128   0.100E-07
     TRS4 it   2 1.00000000   0.623E+00       0.001       32.256   0.100E-07
     TRS4 it   3 1.00000000   0.426E+00       0.001       32.256   0.100E-07
     TRS4 it   4 1.00000000   0.219E+00       0.001       32.256   0.100E-07
     TRS4 it   5 1.00000000   0.718E-01       0.001       32.256   0.100E-07
     TRS4 it   6 1.00000000   0.973E-02       0.001       32.256   0.100E-07
     TRS4 it   7 1.00000000   0.239E-03       0.001       32.256   0.100E-07
     TRS4 it   8 1.00000000   0.203E-06       0.001       32.256   0.100E-07
     TRS4 it   9 1.00000000   0.178E-12       0.001       32.256   0.100E-07
     Final TRS4 iteration    9 1.00000000   0.178E-12
     Chemical potential (mu):       0.00951
 
 PAO| energy:  -7.8083510788766448      penalty:   1.5036594043645244E-005
 PAO|LS| adapt:  T T F
 PAO|LS| adapt: scan_steps:    0.0000000000000000       0.29252222091159158        0.0000000000000000     
 PAO|LS| adapt: energies:   -7.8063042943331737       -7.8083510788766448        0.0000000000000000     
 PAO| ======================= Iteration:        14 =============================

     Lanczos converged:  T threshold:   0.100E-02
     Est. extremal eigenvalues:    0.274E+01   0.183E+00
     Est. condition number :    0.150E+02

 Order=           3
     NS sqrt iter    1 1.00000000   0.700E+00       0.001       58.910
     NS sqrt iter    2 1.00000000   0.324E+00       0.001       95.036
     NS sqrt iter    3 1.00000000   0.723E-01       0.001       99.438
     NS sqrt iter    4 1.00000000   0.166E-02       0.001      101.415
     NS sqrt iter    5 1.00000000   0.416E-07       0.001       65.297
     Symmetrizing Results
     Final NS sqrt iter    5 1.00000000   0.401E-09

     Est. extremal eigenvalues     -0.93843     1.70598  converged:  T
     TRS4 it   1 1.00000000   0.881E+00       0.000       16.128   0.100E-07
     TRS4 it   2 1.00000000   0.620E+00       0.001       32.256   0.100E-07
     TRS4 it   3 1.00000000   0.422E+00       0.001       32.256   0.100E-07
     TRS4 it   4 1.00000000   0.214E+00       0.001       32.256   0.100E-07
     TRS4 it   5 1.00000000   0.683E-01       0.001       32.256   0.100E-07
     TRS4 it   6 1.00000000   0.875E-02       0.001       32.256   0.100E-07
     TRS4 it   7 1.00000000   0.191E-03       0.001       32.256   0.100E-07
     TRS4 it   8 1.00000000   0.126E-06       0.001       32.256   0.100E-07
     TRS4 it   9 1.00000000   0.674E-13       0.001       32.256   0.100E-07
     Final TRS4 iteration    9 1.00000000   0.674E-13
     Chemical potential (mu):       0.01390
 
 PAO| energy:  -7.8077345337930568      penalty:   1.5798650267811982E-005
 PAO|LS| adapt:  T T T
 PAO|LS| adapt: scan_steps:    0.0000000000000000       0.29252222091159158       0.58504444182318316     
 PAO|LS| adapt: energies:   -7.8063042943331737       -7.8083510788766448       -7.8077345337930568     
 PAO|LS| adapt: suggested step_size:   0.37106616436300321     
 PAO|LS| adapt: predicted energy  -7.8084470858115278     
 PAO| ======================= Iteration:        15 =============================

     Lanczos converged:  T threshold:   0.100E-02
     Est. extremal eigenvalues:    0.277E+01   0.180E+00
     Est. condition number :    0.154E+02

 Order=           3
     NS sqrt iter    1 1.00000000   0.705E+00       0.001       58.280
     NS sqrt iter    2 1.00000000   0.329E+00       0.001       99.103
     NS sqrt iter    3 1.00000000   0.752E-01       0.001       98.714
     NS sqrt iter    4 1.00000000   0.187E-02       0.001       97.459
     NS sqrt iter    5 1.00000000   0.588E-07       0.001       68.344
     Symmetrizing Results
     Final NS sqrt iter    5 1.00000000   0.824E-09

     Est. extremal eigenvalues     -0.93849     1.71149  converged:  T
     TRS4 it   1 1.00000000   0.882E+00       0.000       16.128   0.100E-07
     TRS4 it   2 1.00000000   0.622E+00       0.001       32.256   0.100E-07
     TRS4 it   3 1.00000000   0.425E+00       0.001       32.256   0.100E-07
     TRS4 it   4 1.00000000   0.217E+00       0.001       32.256   0.100E-07
     TRS4 it   5 1.00000000   0.709E-01       0.001       32.256   0.100E-07
     TRS4 it   6 1.00000000   0.946E-02       0.001       32.256   0.100E-07
     TRS4 it   7 1.00000000   0.225E-03       0.001       32.256   0.100E-07
     TRS4 it   8 1.00000000   0.178E-06       0.001       32.256   0.100E-07
     TRS4 it   9 1.00000000   0.138E-12       0.001       32.256   0.100E-07
     Final TRS4 iteration    9 1.00000000   0.138E-12
     Chemical potential (mu):       0.01069
 
 PAO| energy:  -7.8084439946480861      penalty:   1.5192141459395566E-005
 PAO|CG| trace_G_new    2.5962523557620412E-003
 PAO|CG| trace_G_prev    1.1704084983445081E-002
 PAO|CG| trace_G_mix    6.3749196042778896E-005
 PAO|CG| trace_D    1.6464431296277268E-002
 PAO|CG| trace_D_Gnew   3.3324101950846848E-005
 PAO|CG| beta:   0.21637771455875260     
 PAO| norm of gradient:   5.0953433208784288E-002
 PAO| energy improvement:  -2.1397003149123961E-003
 PAO| step     15                   -7.808443995  0.318E-02  0.371E+00     0.058
 PAO|LS| adapt:  T F F
 PAO|LS| adapt: scan_steps:    0.0000000000000000        0.0000000000000000        0.0000000000000000     
 PAO|LS| adapt: energies:   -7.8084439946480861        0.0000000000000000        0.0000000000000000     
 PAO| ======================= Iteration:        16 =============================

     Lanczos converged:  T threshold:   0.100E-02
     Est. extremal eigenvalues:    0.276E+01   0.181E+00
     Est. condition number :    0.153E+02

 Order=           3
     NS sqrt iter    1 1.00000000   0.703E+00       0.001       59.058
     NS sqrt iter    2 1.00000000   0.327E+00       0.001       99.138
     NS sqrt iter    3 1.00000000   0.745E-01       0.001      100.652
     NS sqrt iter    4 1.00000000   0.182E-02       0.001      102.672
     NS sqrt iter    5 1.00000000   0.540E-07       0.001       67.055
     Symmetrizing Results
     Final NS sqrt iter    5 1.00000000   0.807E-09

     Est. extremal eigenvalues     -0.93852     1.71071  converged:  T
     TRS4 it   1 1.00000000   0.882E+00       0.000       16.128   0.100E-07
     TRS4 it   2 1.00000000   0.621E+00       0.001       32.256   0.100E-07
     TRS4 it   3 1.00000000   0.423E+00       0.001       32.256   0.100E-07
     TRS4 it   4 1.00000000   0.216E+00       0.001       32.256   0.100E-07
     TRS4 it   5 1.00000000   0.697E-01       0.001       32.256   0.100E-07
     TRS4 it   6 1.00000000   0.917E-02       0.001       32.256   0.100E-07
     TRS4 it   7 1.00000000   0.212E-03       0.001       32.256   0.100E-07
     TRS4 it   8 1.00000000   0.161E-06       0.001       32.256   0.100E-07
     TRS4 it   9 1.00000000   0.111E-12       0.001       32.256   0.100E-07
     Final TRS4 iteration    9 1.00000000   0.111E-12
     Chemical potential (mu):       0.01149
 
 PAO| energy:  -7.8085673088127043      penalty:   1.4969690879602309E-005
 PAO|LS| adapt:  T T F
 PAO|LS| adapt: scan_steps:    0.0000000000000000       0.37106616436300321        0.0000000000000000     
 PAO|LS| adapt: energies:   -7.8084439946480861       -7.8085673088127043        0.0000000000000000     
 PAO| ======================= Iteration:        17 =============================

     Lanczos converged:  T threshold:   0.100E-02
     Est. extremal eigenvalues:    0.275E+01   0.181E+00
     Est. condition number :    0.152E+02

 Order=           3
     NS sqrt iter    1 1.00000000   0.701E+00       0.001       58.836
     NS sqrt iter    2 1.00000000   0.326E+00       0.001       99.665
     NS sqrt iter    3 1.00000000   0.739E-01       0.001      100.759
     NS sqrt iter    4 1.00000000   0.176E-02       0.001      100.129
     NS sqrt iter    5 1.00000000   0.496E-07       0.001       68.570
     Symmetrizing Results
     Final NS sqrt iter    5 1.00000000   0.763E-09

     Est. extremal eigenvalues     -0.93842     1.70997  converged:  T
     TRS4 it   1 1.00000000   0.883E+00       0.000       16.128   0.100E-07
     TRS4 it   2 1.00000000   0.621E+00       0.001       32.256   0.100E-07
     TRS4 it   3 1.00000000   0.422E+00       0.001       32.256   0.100E-07
     TRS4 it   4 1.00000000   0.214E+00       0.001       32.256   0.100E-07
     TRS4 it   5 1.00000000   0.686E-01       0.001       32.256   0.100E-07
     TRS4 it   6 1.00000000   0.888E-02       0.001       32.256   0.100E-07
     TRS4 it   7 1.00000000   0.201E-03       0.001       32.256   0.100E-07
     TRS4 it   8 1.00000000   0.145E-06       0.001       32.256   0.100E-07
     TRS4 it   9 1.00000000   0.908E-13       0.001       32.256   0.100E-07
     Final TRS4 iteration    9 1.00000000   0.908E-13
     Chemical potential (mu):       0.01225
 
 PAO| energy:  -7.8070105667012140      penalty:   1.4872195461506812E-005
 PAO|LS| adapt:  T T T
 PAO|LS| adapt: scan_steps:    0.0000000000000000       0.37106616436300321       0.74213232872600643     
 PAO|LS| adapt: energies:   -7.8084439946480861       -7.8085673088127043       -7.8070105667012140     
 PAO|LS| adapt: suggested step_size:   0.21276890441388985     
 PAO|LS| adapt: predicted energy  -7.8087201843225973     
 PAO| ======================= Iteration:        18 =============================

     Lanczos converged:  T threshold:   0.100E-02
     Est. extremal eigenvalues:    0.276E+01   0.181E+00
     Est. condition number :    0.153E+02

 Order=           3
     NS sqrt iter    1 1.00000000   0.704E+00       0.001       58.955
     NS sqrt iter    2 1.00000000   0.328E+00       0.001       99.659
     NS sqrt iter    3 1.00000000   0.748E-01       0.001       98.795
     NS sqrt iter    4 1.00000000   0.184E-02       0.001       99.966
     NS sqrt iter    5 1.00000000   0.560E-07       0.001       68.497
     Symmetrizing Results
     Final NS sqrt iter    5 1.00000000   0.790E-09

     Est. extremal eigenvalues     -0.93852     1.71103  converged:  T
     TRS4 it   1 1.00000000   0.882E+00       0.000       16.128   0.100E-07
     TRS4 it   2 1.00000000   0.622E+00       0.001       32.256   0.100E-07
     TRS4 it   3 1.00000000   0.424E+00       0.001       32.256   0.100E-07
     TRS4 it   4 1.00000000   0.216E+00       0.001       32.256   0.100E-07
     TRS4 it   5 1.00000000   0.702E-01       0.001       32.256   0.100E-07
     TRS4 it   6 1.00000000   0.929E-02       0.001       32.256   0.100E-07
     TRS4 it   7 1.00000000   0.218E-03       0.001       32.256   0.100E-07
     TRS4 it   8 1.00000000   0.168E-06       0.001       32.256   0.100E-07
     TRS4 it   9 1.00000000   0.122E-12       0.001       32.256   0.100E-07
     Final TRS4 iteration    9 1.00000000   0.122E-12
     Chemical potential (mu):       0.01115
 
 PAO| energy:  -7.8087197504149284      penalty:   1.5049583748084270E-005
 PAO|CG| trace_G_new    7.1631647881924775E-004
 PAO|CG| trace_G_prev    2.5962523557620412E-003
 PAO|CG| trace_G_mix    1.1435964569278507E-006
 PAO|CG| trace_D    3.3526845707674280E-003
 PAO|CG| trace_D_Gnew  -1.6397989417009285E-006
 PAO|CG| beta:   0.27546354682166685     
 PAO| norm of gradient:   2.6764089351577942E-002
 PAO| energy improvement:  -2.7575576684224501E-004
 PAO| step     18                   -7.808719750  0.167E-02  0.213E+00     0.057
 PAO|LS| adapt:  T F F
 PAO|LS| adapt: scan_steps:    0.0000000000000000        0.0000000000000000        0.0000000000000000     
 PAO|LS| adapt: energies:   -7.8087197504149284        0.0000000000000000        0.0000000000000000     
 PAO| ======================= Iteration:        19 =============================

     Lanczos converged:  T threshold:   0.100E-02
     Est. extremal eigenvalues:    0.276E+01   0.180E+00
     Est. condition number :    0.153E+02

 Order=           3
     NS sqrt iter    1 1.00000000   0.704E+00       0.001       58.900
     NS sqrt iter    2 1.00000000   0.328E+00       0.001       98.789
     NS sqrt iter    3 1.00000000   0.750E-01       0.001       99.905
     NS sqrt iter    4 1.00000000   0.185E-02       0.001      100.264
     NS sqrt iter    5 1.00000000   0.567E-07       0.001       67.485
     Symmetrizing Results
     Final NS sqrt iter    5 1.00000000   0.807E-09

     Est. extremal eigenvalues     -0.93852     1.71133  converged:  T
     TRS4 it   1 1.00000000   0.882E+00       0.000       16.128   0.100E-07
     TRS4 it   2 1.00000000   0.622E+00       0.001       32.256   0.100E-07
     TRS4 it   3 1.00000000   0.424E+00       0.001       32.256   0.100E-07
     TRS4 it   4 1.00000000   0.216E+00       0.001       32.256   0.100E-07
     TRS4 it   5 1.00000000   0.701E-01       0.001       32.256   0.100E-07
     TRS4 it   6 1.00000000   0.929E-02       0.001       32.256   0.100E-07
     TRS4 it   7 1.00000000   0.219E-03       0.001       32.256   0.100E-07
     TRS4 it   8 1.00000000   0.171E-06       0.001       32.256   0.100E-07
     TRS4 it   9 1.00000000   0.127E-12       0.001       32.256   0.100E-07
     Final TRS4 iteration    9 1.00000000   0.127E-12
     Chemical potential (mu):       0.01084
 
 PAO| energy:  -7.8088359741022639      penalty:   1.4760745729623217E-005
 PAO|LS| adapt:  T T F
 PAO|LS| adapt: scan_steps:    0.0000000000000000       0.21276890441388985        0.0000000000000000     
 PAO|LS| adapt: energies:   -7.8087197504149284       -7.8088359741022639        0.0000000000000000     
 PAO| ======================= Iteration:        20 =============================

     Lanczos converged:  T threshold:   0.100E-02
     Est. extremal eigenvalues:    0.276E+01   0.180E+00
     Est. condition number :    0.153E+02

 Order=           3
     NS sqrt iter    1 1.00000000   0.704E+00       0.001       59.010
     NS sqrt iter    2 1.00000000   0.328E+00       0.001       99.698
     NS sqrt iter    3 1.00000000   0.753E-01       0.001       99.118
     NS sqrt iter    4 1.00000000   0.186E-02       0.001      101.818
     NS sqrt iter    5 1.00000000   0.576E-07       0.001       68.339
     Symmetrizing Results
     Final NS sqrt iter    5 1.00000000   0.824E-09

     Est. extremal eigenvalues     -0.93852     1.71164  converged:  T
     TRS4 it   1 1.00000000   0.882E+00       0.000       16.128   0.100E-07
     TRS4 it   2 1.00000000   0.622E+00       0.001       32.256   0.100E-07
     TRS4 it   3 1.00000000   0.424E+00       0.001       32.256   0.100E-07
     TRS4 it   4 1.00000000   0.216E+00       0.001       32.256   0.100E-07
     TRS4 it   5 1.00000000   0.701E-01       0.001       32.256   0.100E-07
     TRS4 it   6 1.00000000   0.929E-02       0.001       32.256   0.100E-07
     TRS4 it   7 1.00000000   0.220E-03       0.001       32.256   0.100E-07
     TRS4 it   8 1.00000000   0.174E-06       0.001       32.256   0.100E-07
     TRS4 it   9 1.00000000   0.133E-12       0.001       32.256   0.100E-07
     Final TRS4 iteration    9 1.00000000   0.133E-12
     Chemical potential (mu):       0.01053
 
 PAO| energy:  -7.8088792567910161      penalty:   1.4484244390609862E-005
 PAO|LS| adapt:  T T F
 PAO|LS| adapt: scan_steps:    0.0000000000000000       0.42553780882777970        0.0000000000000000     
 PAO|LS| adapt: energies:   -7.8087197504149284       -7.8088792567910161        0.0000000000000000     
 PAO| ======================= Iteration:        21 =============================

     Lanczos converged:  T threshold:   0.100E-02
     Est. extremal eigenvalues:    0.276E+01   0.180E+00
     Est. condition number :    0.154E+02

 Order=           3
     NS sqrt iter    1 1.00000000   0.704E+00       0.001       58.983
     NS sqrt iter    2 1.00000000   0.329E+00       0.001       98.494
     NS sqrt iter    3 1.00000000   0.757E-01       0.001      100.297
     NS sqrt iter    4 1.00000000   0.188E-02       0.001      100.889
     NS sqrt iter    5 1.00000000   0.594E-07       0.001       68.135
     Symmetrizing Results
     Final NS sqrt iter    5 1.00000000   0.861E-09

     Est. extremal eigenvalues     -0.93851     1.71225  converged:  T
     TRS4 it   1 1.00000000   0.882E+00       0.000       16.128   0.100E-07
     TRS4 it   2 1.00000000   0.622E+00       0.001       32.256   0.100E-07
     TRS4 it   3 1.00000000   0.424E+00       0.001       32.256   0.100E-07
     TRS4 it   4 1.00000000   0.216E+00       0.001       32.256   0.100E-07
     TRS4 it   5 1.00000000   0.699E-01       0.001       32.256   0.100E-07
     TRS4 it   6 1.00000000   0.928E-02       0.001       32.256   0.100E-07
     TRS4 it   7 1.00000000   0.222E-03       0.001       32.256   0.100E-07
     TRS4 it   8 1.00000000   0.181E-06       0.001       32.256   0.100E-07
     TRS4 it   9 1.00000000   0.145E-12       0.001       32.256   0.100E-07
     Final TRS4 iteration    9 1.00000000   0.145E-12
     Chemical potential (mu):       0.00990
 
 PAO| energy:  -7.8087447355720085      penalty:   1.3967665263694271E-005
 PAO|LS| Need extra step
 PAO|LS| adapt:  T T T
 PAO|LS| adapt: scan_steps:    0.0000000000000000       0.42553780882777970       0.85107561765555939     
 PAO|LS| adapt: energies:   -7.8087197504149284       -7.8088792567910161       -7.8087447355720085     
 PAO|LS| adapt: suggested step_size:   0.44361796384462704     
 PAO|LS| adapt: predicted energy  -7.8088795221819529     
 PAO| ======================= Iteration:        22 =============================

     Lanczos converged:  T threshold:   0.100E-02
     Est. extremal eigenvalues:    0.276E+01   0.180E+00
     Est. condition number :    0.153E+02

 Order=           3
     NS sqrt iter    1 1.00000000   0.704E+00       0.001       58.482
     NS sqrt iter    2 1.00000000   0.328E+00       0.001       98.499
     NS sqrt iter    3 1.00000000   0.753E-01       0.001       98.436
     NS sqrt iter    4 1.00000000   0.186E-02       0.001       98.566
     NS sqrt iter    5 1.00000000   0.576E-07       0.001       68.945
     Symmetrizing Results
     Final NS sqrt iter    5 1.00000000   0.826E-09

     Est. extremal eigenvalues     -0.93852     1.71166  converged:  T
     TRS4 it   1 1.00000000   0.882E+00       0.000       16.128   0.100E-07
     TRS4 it   2 1.00000000   0.622E+00       0.001       32.256   0.100E-07
     TRS4 it   3 1.00000000   0.424E+00       0.001       32.256   0.100E-07
     TRS4 it   4 1.00000000   0.216E+00       0.001       32.256   0.100E-07
     TRS4 it   5 1.00000000   0.700E-01       0.001       32.256   0.100E-07
     TRS4 it   6 1.00000000   0.929E-02       0.001       32.256   0.100E-07
     TRS4 it   7 1.00000000   0.220E-03       0.001       32.256   0.100E-07
     TRS4 it   8 1.00000000   0.175E-06       0.001       32.256   0.100E-07
     TRS4 it   9 1.00000000   0.133E-12       0.001       32.256   0.100E-07
     Final TRS4 iteration    9 1.00000000   0.133E-12
     Chemical potential (mu):       0.01050
 
 PAO| energy:  -7.8088795541965768      penalty:   1.4461311541724829E-005
 PAO|CG| trace_G_new    2.1695991550867678E-004
 PAO|CG| trace_G_prev    7.1631647881924775E-004
 PAO|CG| trace_G_mix    2.7935243761713327E-006
 PAO|CG| trace_D    9.7162214901119846E-004
 PAO|CG| trace_D_Gnew  -1.7647870208717074E-006
 PAO|CG| beta:   0.29898291811676625     
 PAO| norm of gradient:   1.4729559243530567E-002
 PAO| energy improvement:  -1.5980378164837106E-004
 PAO| step     22                   -7.808879554  0.921E-03  0.444E+00     0.075
 PAO|LS| adapt:  T F F
 PAO|LS| adapt: scan_steps:    0.0000000000000000        0.0000000000000000        0.0000000000000000     
 PAO|LS| adapt: energies:   -7.8088795541965768        0.0000000000000000        0.0000000000000000     
 PAO| ======================= Iteration:        23 =============================

     Lanczos converged:  T threshold:   0.100E-02
     Est. extremal eigenvalues:    0.276E+01   0.180E+00
     Est. condition number :    0.153E+02

 Order=           3
     NS sqrt iter    1 1.00000000   0.704E+00       0.001       57.254
     NS sqrt iter    2 1.00000000   0.329E+00       0.001       98.399
     NS sqrt iter    3 1.00000000   0.753E-01       0.001      100.344
     NS sqrt iter    4 1.00000000   0.186E-02       0.001      100.318
     NS sqrt iter    5 1.00000000   0.577E-07       0.001       68.881
     Symmetrizing Results
     Final NS sqrt iter    5 1.00000000   0.825E-09

     Est. extremal eigenvalues     -0.93852     1.71152  converged:  T
     TRS4 it   1 1.00000000   0.882E+00       0.000       16.128   0.100E-07
     TRS4 it   2 1.00000000   0.622E+00       0.001       32.256   0.100E-07
     TRS4 it   3 1.00000000   0.424E+00       0.001       32.256   0.100E-07
     TRS4 it   4 1.00000000   0.216E+00       0.001       32.256   0.100E-07
     TRS4 it   5 1.00000000   0.702E-01       0.001       32.256   0.100E-07
     TRS4 it   6 1.00000000   0.934E-02       0.001       32.256   0.100E-07
     TRS4 it   7 1.00000000   0.223E-03       0.001       32.256   0.100E-07
     TRS4 it   8 1.00000000   0.180E-06       0.001       32.256   0.100E-07
     TRS4 it   9 1.00000000   0.140E-12       0.001       32.256   0.100E-07
     Final TRS4 iteration    9 1.00000000   0.140E-12
     Chemical potential (mu):       0.01014
 
 PAO| energy:  -7.8089279638860578      penalty:   1.3784190353374245E-005
 PAO|LS| adapt:  T T F
 PAO|LS| adapt: scan_steps:    0.0000000000000000       0.44361796384462704        0.0000000000000000     
 PAO|LS| adapt: energies:   -7.8088795541965768       -7.8089279638860578        0.0000000000000000     
 PAO| ======================= Iteration:        24 =============================

     Lanczos converged:  T threshold:   0.100E-02
     Est. extremal eigenvalues:    0.276E+01   0.180E+00
     Est. condition number :    0.153E+02

 Order=           3
     NS sqrt iter    1 1.00000000   0.704E+00       0.001       59.732
     NS sqrt iter    2 1.00000000   0.329E+00       0.001       99.222
     NS sqrt iter    3 1.00000000   0.754E-01       0.001      101.815
     NS sqrt iter    4 1.00000000   0.186E-02       0.001      101.524
     NS sqrt iter    5 1.00000000   0.577E-07       0.001       68.882
     Symmetrizing Results
     Final NS sqrt iter    5 1.00000000   0.824E-09

     Est. extremal eigenvalues     -0.93852     1.71137  converged:  T
     TRS4 it   1 1.00000000   0.882E+00       0.000       16.128   0.100E-07
     TRS4 it   2 1.00000000   0.622E+00       0.001       32.256   0.100E-07
     TRS4 it   3 1.00000000   0.424E+00       0.001       32.256   0.100E-07
     TRS4 it   4 1.00000000   0.216E+00       0.001       32.256   0.100E-07
     TRS4 it   5 1.00000000   0.703E-01       0.001       32.256   0.100E-07
     TRS4 it   6 1.00000000   0.939E-02       0.001       32.256   0.100E-07
     TRS4 it   7 1.00000000   0.226E-03       0.001       32.256   0.100E-07
     TRS4 it   8 1.00000000   0.185E-06       0.001       32.256   0.100E-07
     TRS4 it   9 1.00000000   0.150E-12       0.001       32.256   0.100E-07
     Final TRS4 iteration    9 1.00000000   0.150E-12
     Chemical potential (mu):       0.00977
 
 PAO| energy:  -7.8088796415234345      penalty:   1.3134934244806979E-005
 PAO|LS| adapt:  T T T
 PAO|LS| adapt: scan_steps:    0.0000000000000000       0.44361796384462704       0.88723592768925408     
 PAO|LS| adapt: energies:   -7.8088795541965768       -7.8089279638860578       -7.8088796415234345     
 PAO|LS| adapt: suggested step_size:   0.44381820648385079     
 PAO|LS| adapt: predicted energy  -7.8089279638959121     
 PAO| ======================= Iteration:        25 =============================

     Lanczos converged:  T threshold:   0.100E-02
     Est. extremal eigenvalues:    0.276E+01   0.180E+00
     Est. condition number :    0.153E+02

 Order=           3
     NS sqrt iter    1 1.00000000   0.704E+00       0.001       58.601
     NS sqrt iter    2 1.00000000   0.329E+00       0.001       97.890
     NS sqrt iter    3 1.00000000   0.753E-01       0.001       99.101
     NS sqrt iter    4 1.00000000   0.186E-02       0.001       98.964
     NS sqrt iter    5 1.00000000   0.577E-07       0.001       68.679
     Symmetrizing Results
     Final NS sqrt iter    5 1.00000000   0.825E-09

     Est. extremal eigenvalues     -0.93852     1.71152  converged:  T
     TRS4 it   1 1.00000000   0.882E+00       0.000       16.128   0.100E-07
     TRS4 it   2 1.00000000   0.622E+00       0.001       32.256   0.100E-07
     TRS4 it   3 1.00000000   0.424E+00       0.001       32.256   0.100E-07
     TRS4 it   4 1.00000000   0.216E+00       0.001       32.256   0.100E-07
     TRS4 it   5 1.00000000   0.702E-01       0.001       32.256   0.100E-07
     TRS4 it   6 1.00000000   0.934E-02       0.001       32.256   0.100E-07
     TRS4 it   7 1.00000000   0.223E-03       0.001       32.256   0.100E-07
     TRS4 it   8 1.00000000   0.180E-06       0.001       32.256   0.100E-07
     TRS4 it   9 1.00000000   0.141E-12       0.001       32.256   0.100E-07
     Final TRS4 iteration    9 1.00000000   0.141E-12
     Chemical potential (mu):       0.01014
 
 PAO| energy:  -7.8089279639623532      penalty:   1.3783891048056207E-005
 PAO|CG| trace_G_new    7.6461714117010058E-005
 PAO|CG| trace_G_prev    2.1695991550867678E-004
 PAO|CG| trace_G_mix    6.3888141382302396E-007
 PAO|CG| trace_D    3.0486926479526106E-004
 PAO|CG| trace_D_Gnew  -3.3205558517733555E-007
 PAO|CG| beta:   0.34947853166984982     
 PAO| norm of gradient:   8.7442389101059018E-003
 PAO| energy improvement:  -4.8409765776469271E-005
 PAO| step     25                   -7.808927964  0.547E-03  0.444E+00     0.058
 PAO|LS| adapt:  T F F
 PAO|LS| adapt: scan_steps:    0.0000000000000000        0.0000000000000000        0.0000000000000000     
 PAO|LS| adapt: energies:   -7.8089279639623532        0.0000000000000000        0.0000000000000000     
 PAO| ======================= Iteration:        26 =============================

     Lanczos converged:  T threshold:   0.100E-02
     Est. extremal eigenvalues:    0.276E+01   0.180E+00
     Est. condition number :    0.153E+02

 Order=           3
     NS sqrt iter    1 1.00000000   0.704E+00       0.001       58.149
     NS sqrt iter    2 1.00000000   0.328E+00       0.001       98.374
     NS sqrt iter    3 1.00000000   0.752E-01       0.001      101.501
     NS sqrt iter    4 1.00000000   0.185E-02       0.001      100.687
     NS sqrt iter    5 1.00000000   0.569E-07       0.001       68.745
     Symmetrizing Results
     Final NS sqrt iter    5 1.00000000   0.807E-09

     Est. extremal eigenvalues     -0.93852     1.71107  converged:  T
     TRS4 it   1 1.00000000   0.882E+00       0.000       16.128   0.100E-07
     TRS4 it   2 1.00000000   0.622E+00       0.001       32.256   0.100E-07
     TRS4 it   3 1.00000000   0.424E+00       0.001       32.256   0.100E-07
     TRS4 it   4 1.00000000   0.216E+00       0.001       32.256   0.100E-07
     TRS4 it   5 1.00000000   0.701E-01       0.001       32.256   0.100E-07
     TRS4 it   6 1.00000000   0.932E-02       0.001       32.256   0.100E-07
     TRS4 it   7 1.00000000   0.222E-03       0.001       32.256   0.100E-07
     TRS4 it   8 1.00000000   0.178E-06       0.001       32.256   0.100E-07
     TRS4 it   9 1.00000000   0.138E-12       0.001       32.256   0.100E-07
     Final TRS4 iteration    9 1.00000000   0.138E-12
     Chemical potential (mu):       0.01021
 
 PAO| energy:  -7.8089310947288180      penalty:   1.3065014472009360E-005
 PAO|LS| adapt:  T T F
 PAO|LS| adapt: scan_steps:    0.0000000000000000       0.44381820648385079        0.0000000000000000     
 PAO|LS| adapt: energies:   -7.8089279639623532       -7.8089310947288180        0.0000000000000000     
 PAO| ======================= Iteration:        27 =============================

     Lanczos converged:  T threshold:   0.100E-02
     Est. extremal eigenvalues:    0.276E+01   0.180E+00
     Est. condition number :    0.153E+02

 Order=           3
     NS sqrt iter    1 1.00000000   0.703E+00       0.001       59.467
     NS sqrt iter    2 1.00000000   0.328E+00       0.001       98.947
     NS sqrt iter    3 1.00000000   0.751E-01       0.001      103.295
     NS sqrt iter    4 1.00000000   0.185E-02       0.001       99.909
     NS sqrt iter    5 1.00000000   0.562E-07       0.001       68.547
     Symmetrizing Results
     Final NS sqrt iter    5 1.00000000   0.790E-09

     Est. extremal eigenvalues     -0.93852     1.71062  converged:  T
     TRS4 it   1 1.00000000   0.882E+00       0.000       16.128   0.100E-07
     TRS4 it   2 1.00000000   0.622E+00       0.001       32.256   0.100E-07
     TRS4 it   3 1.00000000   0.424E+00       0.001       32.256   0.100E-07
     TRS4 it   4 1.00000000   0.216E+00       0.001       32.256   0.100E-07
     TRS4 it   5 1.00000000   0.700E-01       0.001       32.256   0.100E-07
     TRS4 it   6 1.00000000   0.931E-02       0.001       32.256   0.100E-07
     TRS4 it   7 1.00000000   0.221E-03       0.001       32.256   0.100E-07
     TRS4 it   8 1.00000000   0.176E-06       0.001       32.256   0.100E-07
     TRS4 it   9 1.00000000   0.136E-12       0.001       32.256   0.100E-07
     Final TRS4 iteration    9 1.00000000   0.136E-12
     Chemical potential (mu):       0.01029
 
 PAO| energy:  -7.8088724152514262      penalty:   1.2369491311312749E-005
 PAO|LS| adapt:  T T T
 PAO|LS| adapt: scan_steps:    0.0000000000000000       0.44381820648385079       0.88763641296770157     
 PAO|LS| adapt: energies:   -7.8089279639623532       -7.8089310947288180       -7.8088724152514262     
 PAO|LS| adapt: suggested step_size:   0.24438905269054598     
 PAO|LS| adapt: predicted energy  -7.8089373349146944     
 PAO| ======================= Iteration:        28 =============================

     Lanczos converged:  T threshold:   0.100E-02
     Est. extremal eigenvalues:    0.276E+01   0.180E+00
     Est. condition number :    0.153E+02

 Order=           3
     NS sqrt iter    1 1.00000000   0.704E+00       0.001       58.213
     NS sqrt iter    2 1.00000000   0.328E+00       0.001       99.170
     NS sqrt iter    3 1.00000000   0.753E-01       0.001       99.335
     NS sqrt iter    4 1.00000000   0.186E-02       0.001       97.583
     NS sqrt iter    5 1.00000000   0.573E-07       0.001       68.223
     Symmetrizing Results
     Final NS sqrt iter    5 1.00000000   0.815E-09

     Est. extremal eigenvalues     -0.93852     1.71127  converged:  T
     TRS4 it   1 1.00000000   0.882E+00       0.000       16.128   0.100E-07
     TRS4 it   2 1.00000000   0.622E+00       0.001       32.256   0.100E-07
     TRS4 it   3 1.00000000   0.424E+00       0.001       32.256   0.100E-07
     TRS4 it   4 1.00000000   0.216E+00       0.001       32.256   0.100E-07
     TRS4 it   5 1.00000000   0.701E-01       0.001       32.256   0.100E-07
     TRS4 it   6 1.00000000   0.933E-02       0.001       32.256   0.100E-07
     TRS4 it   7 1.00000000   0.222E-03       0.001       32.256   0.100E-07
     TRS4 it   8 1.00000000   0.179E-06       0.001       32.256   0.100E-07
     TRS4 it   9 1.00000000   0.140E-12       0.001       32.256   0.100E-07
     Final TRS4 iteration    9 1.00000000   0.140E-12
     Chemical potential (mu):       0.01018
 
 PAO| energy:  -7.8089373260882899      penalty:   1.3385133028679436E-005
 PAO|CG| trace_G_new    2.9215903483118205E-005
 PAO|CG| trace_G_prev    7.6461714117010058E-005
 PAO|CG| trace_G_mix    3.9971009777646351E-008
 PAO|CG| trace_D    1.1392908878747299E-004
 PAO|CG| trace_D_Gnew  -2.2095211612556292E-008
 PAO|CG| beta:   0.38157570504752697     
 PAO| norm of gradient:   5.4051737699280494E-003
 PAO| energy improvement:  -9.3621259367182574E-006
 PAO| step     28                   -7.808937326  0.338E-03  0.244E+00     0.058
 PAO|LS| adapt:  T F F
 PAO|LS| adapt: scan_steps:    0.0000000000000000        0.0000000000000000        0.0000000000000000     
 PAO|LS| adapt: energies:   -7.8089373260882899        0.0000000000000000        0.0000000000000000     
 PAO| ======================= Iteration:        29 =============================

     Lanczos converged:  T threshold:   0.100E-02
     Est. extremal eigenvalues:    0.276E+01   0.180E+00
     Est. condition number :    0.153E+02

 Order=           3
     NS sqrt iter    1 1.00000000   0.704E+00       0.001       58.091
     NS sqrt iter    2 1.00000000   0.328E+00       0.001       98.769
     NS sqrt iter    3 1.00000000   0.752E-01       0.001      101.860
     NS sqrt iter    4 1.00000000   0.185E-02       0.001       99.933
     NS sqrt iter    5 1.00000000   0.569E-07       0.001       67.697
     Symmetrizing Results
     Final NS sqrt iter    5 1.00000000   0.805E-09

     Est. extremal eigenvalues     -0.93852     1.71109  converged:  T
     TRS4 it   1 1.00000000   0.882E+00       0.000       16.128   0.100E-07
     TRS4 it   2 1.00000000   0.622E+00       0.001       32.256   0.100E-07
     TRS4 it   3 1.00000000   0.424E+00       0.001       32.256   0.100E-07
     TRS4 it   4 1.00000000   0.216E+00       0.001       32.256   0.100E-07
     TRS4 it   5 1.00000000   0.701E-01       0.001       32.256   0.100E-07
     TRS4 it   6 1.00000000   0.931E-02       0.001       32.256   0.100E-07
     TRS4 it   7 1.00000000   0.221E-03       0.001       32.256   0.100E-07
     TRS4 it   8 1.00000000   0.177E-06       0.001       32.256   0.100E-07
     TRS4 it   9 1.00000000   0.136E-12       0.001       32.256   0.100E-07
     Final TRS4 iteration    9 1.00000000   0.136E-12
     Chemical potential (mu):       0.01029
 
 PAO| energy:  -7.8089436130434056      penalty:   1.2971284867265434E-005
 PAO|LS| adapt:  T T F
 PAO|LS| adapt: scan_steps:    0.0000000000000000       0.24438905269054598        0.0000000000000000     
 PAO|LS| adapt: energies:   -7.8089373260882899       -7.8089436130434056        0.0000000000000000     
 PAO| ======================= Iteration:        30 =============================

     Lanczos converged:  T threshold:   0.100E-02
     Est. extremal eigenvalues:    0.276E+01   0.180E+00
     Est. condition number :    0.153E+02

 Order=           3
     NS sqrt iter    1 1.00000000   0.703E+00       0.001       58.957
     NS sqrt iter    2 1.00000000   0.328E+00       0.001       99.421
     NS sqrt iter    3 1.00000000   0.751E-01       0.001      101.510
     NS sqrt iter    4 1.00000000   0.185E-02       0.001       96.042
     NS sqrt iter    5 1.00000000   0.565E-07       0.001       68.609
     Symmetrizing Results
     Final NS sqrt iter    5 1.00000000   0.795E-09

     Est. extremal eigenvalues     -0.93852     1.71091  converged:  T
     TRS4 it   1 1.00000000   0.882E+00       0.000       16.128   0.100E-07
     TRS4 it   2 1.00000000   0.622E+00       0.001       32.256   0.100E-07
     TRS4 it   3 1.00000000   0.424E+00       0.001       32.256   0.100E-07
     TRS4 it   4 1.00000000   0.216E+00       0.001       32.256   0.100E-07
     TRS4 it   5 1.00000000   0.700E-01       0.001       32.256   0.100E-07
     TRS4 it   6 1.00000000   0.929E-02       0.001       32.256   0.100E-07
     TRS4 it   7 1.00000000   0.220E-03       0.001       32.256   0.100E-07
     TRS4 it   8 1.00000000   0.175E-06       0.001       32.256   0.100E-07
     TRS4 it   9 1.00000000   0.133E-12       0.001       32.256   0.100E-07
     Final TRS4 iteration    9 1.00000000   0.133E-12
     Chemical potential (mu):       0.01039
 
 PAO| energy:  -7.8089481897736901      penalty:   1.2564617475786585E-005
 PAO|LS| adapt:  T T F
 PAO|LS| adapt: scan_steps:    0.0000000000000000       0.48877810538109195        0.0000000000000000     
 PAO|LS| adapt: energies:   -7.8089373260882899       -7.8089481897736901        0.0000000000000000     
 PAO| ======================= Iteration:        31 =============================

     Lanczos converged:  T threshold:   0.100E-02
     Est. extremal eigenvalues:    0.276E+01   0.180E+00
     Est. condition number :    0.153E+02

 Order=           3
     NS sqrt iter    1 1.00000000   0.703E+00       0.001       58.742
     NS sqrt iter    2 1.00000000   0.328E+00       0.001      100.769
     NS sqrt iter    3 1.00000000   0.750E-01       0.001      100.782
     NS sqrt iter    4 1.00000000   0.184E-02       0.001       99.820
     NS sqrt iter    5 1.00000000   0.558E-07       0.001       69.039
     Symmetrizing Results
     Final NS sqrt iter    5 1.00000000   0.776E-09

     Est. extremal eigenvalues     -0.93853     1.71055  converged:  T
     TRS4 it   1 1.00000000   0.882E+00       0.000       16.128   0.100E-07
     TRS4 it   2 1.00000000   0.621E+00       0.001       32.256   0.100E-07
     TRS4 it   3 1.00000000   0.423E+00       0.001       32.256   0.100E-07
     TRS4 it   4 1.00000000   0.216E+00       0.001       32.256   0.100E-07
     TRS4 it   5 1.00000000   0.698E-01       0.001       32.256   0.100E-07
     TRS4 it   6 1.00000000   0.925E-02       0.001       32.256   0.100E-07
     TRS4 it   7 1.00000000   0.218E-03       0.001       32.256   0.100E-07
     TRS4 it   8 1.00000000   0.171E-06       0.001       32.256   0.100E-07
     TRS4 it   9 1.00000000   0.128E-12       0.001       32.256   0.100E-07
     Final TRS4 iteration    9 1.00000000   0.128E-12
     Chemical potential (mu):       0.01060
 
 PAO| energy:  -7.8089522121900501      penalty:   1.1772696082797424E-005
 PAO|LS| Need extra step
 PAO|LS| adapt:  T T F
 PAO|LS| adapt: scan_steps:    0.0000000000000000       0.97755621076218391        0.0000000000000000     
 PAO|LS| adapt: energies:   -7.8089373260882899       -7.8089522121900501        0.0000000000000000     
 PAO| ======================= Iteration:        32 =============================

     Lanczos converged:  T threshold:   0.100E-02
     Est. extremal eigenvalues:    0.276E+01   0.181E+00
     Est. condition number :    0.153E+02

 Order=           3
[...]
     TRS4 it   1 1.00000000   0.883E+00       0.000       16.128   0.100E-07
     TRS4 it   2 1.00000000   0.633E+00       0.001       32.256   0.100E-07
     TRS4 it   3 1.00000000   0.455E+00       0.000       32.256   0.100E-07
     TRS4 it   4 1.00000000   0.279E+00       0.000       32.256   0.100E-07
     TRS4 it   5 1.00000000   0.139E+00       0.000       32.256   0.100E-07
     TRS4 it   6 1.00000000   0.440E-01       0.000       32.256   0.100E-07
     TRS4 it   7 1.00000000   0.622E-02       0.000       32.256   0.100E-07
     TRS4 it   8 1.00000000   0.167E-03       0.000       32.256   0.100E-07
     TRS4 it   9 1.00000000   0.125E-06       0.000       32.256   0.100E-07
     TRS4 it  10 1.00000000   0.707E-13       0.000       32.256   0.100E-07
     Final TRS4 iteration   10 1.00000000   0.707E-13
     Chemical potential (mu):      -0.07643
 
 PAO| energy:  -7.8082921968581216      penalty:   2.7801986509690448E-008
 PAO|CG| warming up with steepest descent
 PAO|CG| beta:    0.0000000000000000     
 PAO| norm of gradient:   1.2733918614644840E-004
 PAO| energy improvement:  -5.0592694478268641E-009
 PAO| step    423                   -7.808292197  0.796E-05  0.265E+00     0.058
 PAO| converged after          423  steps :-)
 PAO| Recalculating energy after mixing.

     Lanczos converged:  T threshold:   0.100E-02
     Est. extremal eigenvalues:    0.248E+01   0.191E+00
     Est. condition number :    0.130E+02

 Order=           3
     NS sqrt iter    1 1.00000000   0.630E+00       0.001       64.512
     NS sqrt iter    2 1.00000000   0.272E+00       0.001      110.592
     NS sqrt iter    3 1.00000000   0.476E-01       0.001      110.592
     NS sqrt iter    4 1.00000000   0.736E-03       0.001      110.592
     NS sqrt iter    5 1.00000000   0.529E-08       0.001       38.144
     Symmetrizing Results
     Final NS sqrt iter    5 1.00000000   0.319E-09

     Est. extremal eigenvalues     -0.93824     1.62764  converged:  T
     TRS4 it   1 1.00000000   0.883E+00       0.000       16.128   0.100E-07
     TRS4 it   2 1.00000000   0.633E+00       0.000       32.256   0.100E-07
     TRS4 it   3 1.00000000   0.455E+00       0.000       32.256   0.100E-07
     TRS4 it   4 1.00000000   0.279E+00       0.000       32.256   0.100E-07
     TRS4 it   5 1.00000000   0.139E+00       0.000       32.256   0.100E-07
     TRS4 it   6 1.00000000   0.440E-01       0.000       32.256   0.100E-07
     TRS4 it   7 1.00000000   0.622E-02       0.000       32.256   0.100E-07
     TRS4 it   8 1.00000000   0.167E-03       0.000       32.256   0.100E-07
     TRS4 it   9 1.00000000   0.125E-06       0.000       32.256   0.100E-07
     TRS4 it  10 1.00000000   0.713E-13       0.000       32.256   0.100E-07
     Final TRS4 iteration   10 1.00000000   0.713E-13
     Chemical potential (mu):      -0.07643
 
 PAO| energy:  -7.8082921955932845      penalty:   2.8100983683673732E-008
 PAO| Writing restart file.
     Est. extremal eigenvalues     -0.93824     1.62764  converged:  T
     TRS4 it   1 1.00000000   0.883E+00       0.000       16.128   0.100E-07
     TRS4 it   2 1.00000000   0.633E+00       0.000       32.256   0.100E-07
     TRS4 it   3 1.00000000   0.455E+00       0.000       32.256   0.100E-07
     TRS4 it   4 1.00000000   0.279E+00       0.000       32.256   0.100E-07
     TRS4 it   5 1.00000000   0.139E+00       0.000       32.256   0.100E-07
     TRS4 it   6 1.00000000   0.440E-01       0.000       32.256   0.100E-07
     TRS4 it   7 1.00000000   0.622E-02       0.000       32.256   0.100E-07
     TRS4 it   8 1.00000000   0.167E-03       0.000       32.256   0.100E-07
     TRS4 it   9 1.00000000   0.125E-06       0.000       32.256   0.100E-07
     TRS4 it  10 1.00000000   0.713E-13       0.000       32.256   0.100E-07
     Final TRS4 iteration   10 1.00000000   0.713E-13
     Chemical potential (mu):      -0.07643

 SCF     1       -34.449326613       -34.449326613    1.762876

*********************************************************
 Using MIXING_FRACTION=0.450 to mix KS matrix:  iscf=  2
 KS_nw=0.450*KS + 0.550*KS_old
*********************************************************
     Est. extremal eigenvalues     -0.93824     1.62764  converged:  T
     TRS4 it   1 1.00000000   0.883E+00       0.000       16.128   0.100E-07
     TRS4 it   2 1.00000000   0.633E+00       0.000       32.256   0.100E-07
     TRS4 it   3 1.00000000   0.455E+00       0.000       32.256   0.100E-07
     TRS4 it   4 1.00000000   0.279E+00       0.000       32.256   0.100E-07
     TRS4 it   5 1.00000000   0.139E+00       0.000       32.256   0.100E-07
     TRS4 it   6 1.00000000   0.440E-01       0.000       32.256   0.100E-07
     TRS4 it   7 1.00000000   0.622E-02       0.000       32.256   0.100E-07
     TRS4 it   8 1.00000000   0.167E-03       0.000       32.256   0.100E-07
     TRS4 it   9 1.00000000   0.125E-06       0.000       32.256   0.100E-07
     TRS4 it  10 1.00000000   0.703E-13       0.000       32.256   0.100E-07
     Final TRS4 iteration   10 1.00000000   0.703E-13
     Chemical potential (mu):      -0.07643

 SCF     2       -34.449326613        -0.000000000    1.975115


 SCF run converged in     2 steps.

 PAO| Storing density matrix for ASPC guess in slot:           1

 ENERGY| Total FORCE_EVAL ( QS ) energy [a.u.]:              -34.449326613180027

 -------------------------------------------------------------------------------
 -                                                                             -
 -                                DBCSR STATISTICS                             -
 -                                                                             -
 -------------------------------------------------------------------------------
 COUNTER                                    TOTAL       BLAS       SMM       ACC
 flops     5 x     5 x     4                20000       0.0%    100.0%      0.0%
 flops    13 x     5 x     4                20800       0.0%    100.0%      0.0%
 flops     5 x    13 x     4                20800       0.0%    100.0%      0.0%
 flops    13 x    13 x     4                40560       0.0%    100.0%      0.0%
 flops     4 x     4 x     5              3321600       0.0%    100.0%      0.0%
 flops     5 x     4 x     5              4054400       0.0%    100.0%      0.0%
 flops     4 x     4 x    13              4318080       0.0%    100.0%      0.0%
 flops    13 x     4 x     5              5270720       0.0%    100.0%      0.0%
 flops     5 x     4 x    13              5270720       0.0%    100.0%      0.0%
 flops     5 x     4 x     4              6407520       0.0%    100.0%      0.0%
 flops    13 x     4 x    13              6851936       0.0%    100.0%      0.0%
 flops    13 x     4 x     4              8486816       0.0%    100.0%      0.0%
 flops     4 x     4 x     4            430178816       0.0%    100.0%      0.0%
 flops inhomo. stacks                           0       0.0%      0.0%      0.0%
 flops total                       474.262768E+06       0.0%    100.0%      0.0%
 flops max/rank                    474.262768E+06       0.0%    100.0%      0.0%
 matmuls inhomo. stacks                         0       0.0%      0.0%      0.0%
 matmuls total                            3498182       0.0%    100.0%      0.0%
 number of processed stacks                 27919       0.0%    100.0%      0.0%
 average stack size                                     0.0     125.3       0.0
 marketing flops                   771.539136E+06
 -------------------------------------------------------------------------------
 # multiplications                          23321
 max memory usage/rank             505.536512E+06
 # max total images/rank                        1
 # max 3D layers                                1
 # MPI messages exchanged                       0
 -------------------------------------------------------------------------------

 -------------------------------------------------------------------------------
 -                                                                             -
 -                                DBM STATISTICS                               -
 -                                                                             -
 -------------------------------------------------------------------------------
    M  x    N  x    K                                          COUNT     PERCENT
 -------------------------------------------------------------------------------

 -------------------------------------------------------------------------------
 -                                                                             -
 -                                GRID STATISTICS                              -
 -                                                                             -
 -------------------------------------------------------------------------------
 LP    KERNEL             BACKEND                              COUNT     PERCENT
 2     collocate ortho    REF                                  38100      30.66%
 2     integrate ortho    REF                                  38100      30.66%
 3     collocate ortho    REF                                  19740      15.89%
 3     integrate ortho    REF                                  19740      15.89%
 4     collocate ortho    REF                                   4280       3.44%
 4     integrate ortho    REF                                   4280       3.44%
 0     collocate general  REF                                      6       0.00%
 -------------------------------------------------------------------------------

 MEMORY| Estimated peak process memory [MiB]                                 483

 -------------------------------------------------------------------------------
 -                                                                             -
 -                           R E F E R E N C E S                               -
 -                                                                             -
 -------------------------------------------------------------------------------
 
 CP2K version 2023.1 (Development Version), the CP2K developers group (2023).
 CP2K is freely available from https://www.cp2k.org/ .

 Kuehne,Thomas D.; Iannuzzi,Marcella; Del Ben,Mauro;
 Rybkin,Vladimir V.; Seewald,Patrick; Stein,Frederick; Laino,Teodoro;
 Khaliullin,Rustam Z.; Schuett,Ole; Schiffmann,Florian; Golze,Dorothea;
 Wilhelm,Jan; Chulkov,Sergey; Bani-Hashemian,Mohammad Hossein;
 Weber,Valery; Borstnik,Urban; Taillefumier,Mathieu;
 Jakobovits,Alice Shoshana; Lazzaro,Alfio; Pabst,Hans; Mueller,Tiziano;
 Schade,Robert; Guidon,Manuel; Andermatt,Samuel; Holmberg,Nico;
 Schenter,Gregory K.; Hehn,Anna; Bussy,Augustin; Belleflamme,Fabian;
 Tabacchi,Gloria; Gloess,Andreas; Lass,Michael; Bethune,Iain;
 Mundy,Christopher J.; Plessl,Christian; Watkins,Matt;
 VandeVondele,Joost; Krack,Matthias; Hutter,Juerg. 
 The Journal of Chemical Physics, 152 (19), (2020). 
 CP2K: An electronic structure and molecular dynamics software package -
 Quickstep: Efficient and accurate electronic structure calculations.
 https://doi.org/10.1063/5.0007045

 Schuett, O; VandeVondele, J. 
 Journal of Chemical Theory and Computation, 14, (2018). 
 Machine Learning Adaptive Basis Sets for Efficient Large Scale
 Density Functional Theory Simulation.
 https://doi.org/10.1021/acs.jctc.8b00378

 Schuett, Ole; Messmer, Peter; Hutter, Juerg; VandeVondele, Joost. 
 Electronic Structure Calculations on Graphics Processing Units, John
 Wiley & Sons, Ltd, 173-190 (2016). 
 GPU-Accelerated Sparse Matrix-Matrix Multiplication for
 Linear Scaling Density Functional Theory.
 https://doi.org/10.1002/9781118670712.ch8

 Heinecke, A; Henry, G; Hutchinson, M; Pabst, H. 
 Proceedings of Intl. Supercomputing Conference, 981-991 (2016). 
 LIBXSMM: Accelerating Small Matrix Multiplications
 by Runtime Code Generation.
 https://doi.org/10.1109/SC.2016.83

 Borstnik, U; VandeVondele, J; Weber, V; Hutter, J. 
 PARALLEL COMPUTING, 40 (5-6), 47-58 (2014). 
 Sparse matrix multiplication: The distributed block-compressed sparse
 row library.
 https://doi.org/10.1016/j.parco.2014.03.012

 Hutter, J; Iannuzzi, M; Schiffmann, F; VandeVondele, J. 
 WIREs Comput Mol Sci., 4 (1), 15-25 (2014). 
 CP2K: atomistic simulations of condensed matter systems.
 https://doi.org/10.1002/wcms.1159

 VandeVondele, J; Borstnik, U; Hutter, J. 
 JOURNAL OF CHEMICAL THEORY AND COMPUTATION, 8 (10), 3565-3573 (2012). 
 Linear Scaling Self-Consistent Field Calculations with Millions of Atoms
 in the Condensed Phase.
 https://doi.org/10.1021/ct200897x

 VandeVondele, J; Hutter, J. 
 JOURNAL OF CHEMICAL PHYSICS, 127 (11), 114105 (2007). 
 Gaussian basis sets for accurate calculations on molecular systems in
 gas and condensed phases.
 https://doi.org/10.1063/1.2770708

 Krack, M. 
 THEORETICAL CHEMISTRY ACCOUNTS, 114 (1-3), 145-152 (2005). 
 Pseudopotentials for H to Kr optimized for gradient-corrected
 exchange-correlation functionals.
 https://doi.org/10.1007/s00214-005-0655-y

 VandeVondele, J; Krack, M; Mohamed, F; Parrinello, M; Chassaing, T;
 Hutter, J. COMPUTER PHYSICS COMMUNICATIONS, 167 (2), 103-128 (2005). 
 QUICKSTEP: Fast and accurate density functional calculations using a
 mixed Gaussian and plane waves approach.
 https://doi.org/10.1016/j.cpc.2004.12.014

 Frigo, M; Johnson, SG. 
 PROCEEDINGS OF THE IEEE, 93 (2), 216-231 (2005). 
 The design and implementation of FFTW3.
 https://doi.org/10.1109/JPROC.2004.840301

 Niklasson, AMN; Tymczak, CJ; Challacombe, M. 
 JOURNAL OF CHEMICAL PHYSICS, 118 (19), 8611-8620 (2003). 
 Trace resetting density matrix purification in O(N)
 self-consistent-field theory.
 https://doi.org/10.1063/1.1559913

 Hartwigsen, C; Goedecker, S; Hutter, J. 
 PHYSICAL REVIEW B, 58 (7), 3641-3662 (1998). 
 Relativistic separable dual-space Gaussian pseudopotentials from H to Rn.
 https://doi.org/10.1103/PhysRevB.58.3641

 Lippert, G; Hutter, J; Parrinello, M. 
 MOLECULAR PHYSICS, 92 (3), 477-487 (1997). 
 A hybrid Gaussian and plane wave density functional scheme.
 https://doi.org/10.1080/002689797170220

 Perdew, JP; Burke, K; Ernzerhof, M. 
 PHYSICAL REVIEW LETTERS, 77 (18), 3865-3868 (1996). 
 Generalized gradient approximation made simple.
 https://doi.org/10.1103/PhysRevLett.77.3865

 Goedecker, S; Teter, M; Hutter, J. 
 PHYSICAL REVIEW B, 54 (3), 1703-1710 (1996). 
 Separable dual-space Gaussian pseudopotentials.
 https://doi.org/10.1103/PhysRevB.54.1703


 -------------------------------------------------------------------------------
 -                                                                             -
 -                                T I M I N G                                  -
 -                                                                             -
 -------------------------------------------------------------------------------
 SUBROUTINE                       CALLS  ASD         SELF TIME        TOTAL TIME
                                MAXIMUM       AVERAGE  MAXIMUM  AVERAGE  MAXIMUM
 CP2K                                 1  1.0    0.013    0.013   34.730   34.730
 qs_energies                          1  2.0    0.000    0.000   34.088   34.088
 ls_scf                               1  3.0    0.000    0.000   33.831   33.831
 ls_scf_main                          4  4.0    0.001    0.001   21.881   21.881
 ls_scf_dm_to_ks                      9  5.0    0.000    0.000   21.803   21.803
 qs_ks_update_qs_env                 10  6.0    0.000    0.000   19.449   19.449
 rebuild_ks_matrix                   10  7.0    0.000    0.000   19.448   19.448
 qs_ks_build_kohn_sham_matrix        10  8.0    0.003    0.003   19.448   19.448
 qs_vxc_create                       10  9.0    0.000    0.000   12.676   12.676
 xc_vxc_pw_create                    10 10.0    0.270    0.270   12.676   12.676
 pw_transfer                        191 11.1    0.027    0.027   11.593   11.593
 fft_wrap_pw1pw2                    171 12.3    0.004    0.004   11.246   11.246
 fft_wrap_pw1pw2_200                111 13.7    1.207    1.207   10.919   10.919
 pao_update                           4  4.0    0.008    0.008    8.084    8.084
 xc_pw_derive                        60 12.0    0.001    0.001    7.890    7.890
 pao_calc_energy                    426  5.0    0.003    0.003    7.330    7.330
 xc_rho_set_and_dset_create          10 11.0    0.317    0.317    6.911    6.911
 qs_rho_update_rho_low               10  6.0    0.000    0.000    6.176    6.176
 calculate_rho_elec                  10  7.0    0.054    0.054    6.176    6.176
 dbcsr_multiply_generic           23321  8.4    0.364    0.364    5.795    5.795
 xc_pw_divergence                    10 11.0    0.001    0.001    5.307    5.307
 fft3d_s                            172 14.2    4.982    4.982    5.021    5.021
 sum_up_and_integrate                10  9.0    0.165    0.165    4.563    4.563
 integrate_v_rspace                  10 10.0    0.001    0.001    4.398    4.398
 pao_dm_trs4                        426  6.0    0.002    0.002    3.829    3.829
 pao_guess_initial_P                  1  4.0    0.000    0.000    3.827    3.827
 pao_read_preopt_dm                   1  5.0    0.000    0.000    3.827    3.827
 density_matrix_trs4                435  7.0    0.121    0.121    3.684    3.684
 ls_scf_init_matrix_S               430  7.0    0.002    0.002    3.475    3.475
 pao_rebuild_S                      426  6.0    0.001    0.001    3.451    3.451
 grid_integrate_task_list            10 11.0    3.331    3.331    3.331    3.331
 grid_collocate_task_list            10  8.0    3.219    3.219    3.219    3.219
 matrix_sqrt_Newton_Schulz          430  8.0    0.079    0.079    3.142    3.142
 density_rs2pw                       10  8.0    0.001    0.001    2.903    2.903
 pw_gather_s                         81 13.8    2.623    2.623    2.623    2.623
 xc_functional_eval                  10 12.0    0.000    0.000    2.353    2.353
 pbe_lda_eval                        10 13.0    2.352    2.352    2.352    2.352
 pw_scatter_s                        90 14.7    2.349    2.349    2.349    2.349
 make_m2s                         46642  9.4    0.139    0.139    2.172    2.172
 multiply_cannon                  23321  9.4    0.890    0.890    2.161    2.161
 make_images                      46642 10.4    0.538    0.538    1.924    1.924
 pw_derive                           60 13.0    1.649    1.649    1.649    1.649
 arnoldi_extremal                   865  8.5    0.003    0.003    1.145    1.145
 arnoldi_normal_ev                  865  9.5    0.009    0.009    1.142    1.142
 pw_copy                            120 11.8    1.139    1.139    1.139    1.139
 potential_pw2rs                     10 11.0    0.002    0.002    1.066    1.066
 build_subspace                     865 10.5    0.047    0.047    0.903    0.903
 pw_axpy                             90 10.3    0.887    0.887    0.887    0.887
 dbcsr_matrix_vector_mult         20712 11.5    0.096    0.096    0.834    0.834
 pw_poisson_solve                    10  9.0    0.147    0.147    0.778    0.778
 pao_calc_AB                        561  5.8    0.001    0.001    0.749    0.749
 pao_calc_AB_equi                   561  6.8    0.022    0.022    0.749    0.749
 -------------------------------------------------------------------------------

 The number of warnings for this run is : 0
 
 -------------------------------------------------------------------------------
  **** **** ******  **  PROGRAM ENDED AT                 2023-02-01 10:44:29.941
 ***** ** ***  *** **   PROGRAM RAN ON                                    moritz
 **    ****   ******    PROGRAM RAN BY                                       ole
 ***** **    ** ** **   PROGRAM PROCESS ID                                148492
  **** **  *******  **  PROGRAM STOPPED IN /home/ole/git/pao_ml_equivar/2H2O_rot
                                           ations/rand_02
