 DBCSR| CPU Multiplication driver                                           BLAS
 DBCSR| Multrec recursion limit                                              512
 DBCSR| Multiplication stack size                                           1000
 DBCSR| Maximum elements for images                                    UNLIMITED
 DBCSR| Multiplicative factor virtual images                                   1
 DBCSR| Use multiplication densification                                       T
 DBCSR| Multiplication size stacks                                             3


  **** **** ******  **  PROGRAM STARTED AT               2019-03-28 17:33:31.348
 ***** ** ***  *** **   PROGRAM STARTED ON        oleschuett.zrh.corp.google.com
 **    ****   ******    PROGRAM STARTED BY                            oleschuett
 ***** **    ** ** **   PROGRAM PROCESS ID                                 34376
  **** **  *******  **  PROGRAM STARTED IN /usr/local/google/home/oleschuett/git
                                           /pao_ml_equivar/2H2O_rotations/rand_0
                                           2

 CP2K| version string:                    CP2K version 7.0 (Development Version)
 CP2K| source code revision number:                                git:d9814d431
 CP2K| cp2kflags: libint fftw3 libxc libderiv_max_am1=5 libint_max_am=6         
 CP2K| is freely available from                            https://www.cp2k.org/
 CP2K| Program compiled at                          Mon Mar 25 16:50:07 CET 2019
 CP2K| Program compiled on                        oleschuett.zrh.corp.google.com
 CP2K| Program compiled for                                                local
 CP2K| Data directory path       /usr/local/google/home/oleschuett/git/cp2k/data
 CP2K| Input file name                                            2H2O_pao44.inp

 GLOBAL| Force Environment number                                              1
 GLOBAL| Basis set file name                                        BASIS_MOLOPT
 GLOBAL| Potential file name                                      GTH_POTENTIALS
 GLOBAL| MM Potential file name                                     MM_POTENTIAL
 GLOBAL| Coordinate file name                                         coords.xyz
 GLOBAL| Method name                                                        CP2K
 GLOBAL| Project name                                                 2H2O_pao44
 GLOBAL| Preferred FFT library                                             FFTW3
 GLOBAL| Preferred diagonalization lib.                                       SL
 GLOBAL| Run type                                                         ENERGY
 GLOBAL| All-to-all communication in single precision                          F
 GLOBAL| FFTs using library dependent lengths                                  F
 GLOBAL| Global print level                                                  LOW
 GLOBAL| MPI I/O enabled                                                       T
 GLOBAL| Total number of message passing processes                             1
 GLOBAL| Number of threads for this process                                    1
 GLOBAL| This output is from process                                           0
 GLOBAL| CPU model name :  Intel(R) Xeon(R) CPU E5-1650 v4 @ 3.60GHz

 MEMORY| system memory details [Kb]
 MEMORY|                        rank 0           min           max       average
 MEMORY| MemTotal             65953612      65953612      65953612      65953612
 MEMORY| MemFree               4248252       4248252       4248252       4248252
 MEMORY| Buffers               2543220       2543220       2543220       2543220
 MEMORY| Cached               25363152      25363152      25363152      25363152
 MEMORY| Slab                  3622408       3622408       3622408       3622408
 MEMORY| SReclaimable          2421472       2421472       2421472       2421472
 MEMORY| MemLikelyFree        34576096      34576096      34576096      34576096


 GENERATE|  Preliminary Number of Bonds generated:                             0
 GENERATE|  Achieved consistency in connectivity generation.

 *******************************************************************************
 *******************************************************************************
 **                                                                           **
 **     #####                         ##              ##                      **
 **    ##   ##            ##          ##              ##                      **
 **   ##     ##                       ##            ######                    **
 **   ##     ##  ##   ##  ##   #####  ##  ##   ####   ##    #####    #####    **
 **   ##     ##  ##   ##  ##  ##      ## ##   ##      ##   ##   ##  ##   ##   **
 **   ##  ## ##  ##   ##  ##  ##      ####     ###    ##   ######   ######    **
 **    ##  ###   ##   ##  ##  ##      ## ##      ##   ##   ##       ##        **
 **     #######   #####   ##   #####  ##  ##  ####    ##    #####   ##        **
 **           ##                                                    ##        **
 **                                                                           **
 **                                                ... make the atoms dance   **
 **                                                                           **
 **            Copyright (C) by CP2K developers group (2000 - 2018)           **
 **                                                                           **
 *******************************************************************************


 TOTAL NUMBERS AND MAXIMUM NUMBERS

  Total number of            - Atomic kinds:                                   2
                             - Atoms:                                          6
                             - Shell sets:                                     6
                             - Shells:                                        22
                             - Primitive Cartesian functions:                 42
                             - Cartesian basis functions:                     48
                             - Spherical basis functions:                     46

  Maximum angular momentum of- Orbital basis functions:                        2
                             - Local part of the GTH pseudopotential:          2
                             - Non-local part of the GTH pseudopotential:      0

 ------------------------------ Linear scaling SCF -----------------------------
 eps_scf:                                                              0.100E-07
 eps_filter:                                                           0.100E-07
 mixing_fraction:                                                      0.450E+00
 max_scf:                                                                     25
 fixed chemical potential (mu)                                                 F
 has unit metric:                                                              F
 Computing inv(S):                                                             T
 Computing sqrt(S):                                                            T
 Computing s preconditioner                                                    F
 sign sqrt order:                                                              3
 Extrapolation order:                                                          1
 Use single precision matrices                                                 F
 S preconditioner type                                                      NONE
 Polarized Atomic Orbitals (PAO)                                               T
 Purification method                                   Trace resetting 4th order
 Cluster type                                                             ATOMIC
 Computing Chebyshev                                                       FALSE
 Using PAO                                                                     T
 -------------------------------------------------------------------------------

 
 PAO|                                  EPS_PAO                           0.1E-04
 PAO|                                  MIXING                            0.5E+00
 PAO|                                  MAX_PAO                              1000
 PAO|                                  MAX_CYCLES                           1000
 PAO|                                  PARAMETERIZATION                   DIRECT
 PAO|                                  PRECONDITION                            F
 PAO|                                  REGULARIZATION                    0.0E+00
 PAO|                                  EPS_PGF                           0.1E-09
 PAO|                                  PENALTY_DISTANCE                  0.1E+00
 PAO|                                  PENALTY_STRENGTH                  0.5E-02
 PAO|                                  LINPOT_PRECONDITION_DELTA         0.0E+00
 PAO|                                  LINPOT_INITGUESS_DELT             0.0E+00
 PAO|                                  LINPOT_REGULARIZATION_DELTA       0.0E+00
 PAO|                                  LINPOT_REGULARIZATION_STRENGTH    0.0E+00
 PAO|                                  OPTIMIZER                              CG
 PAO|                                  CG_INIT_STEPS                           2
 PAO|                                  CG_RESET_LIMIT                    0.1E+00
 PAO|                                  CHECK_UNITARY_TOL                -0.1E+01
 PAO|                                  CHECK_GRADIENT_TOL               -0.1E+01
 PAO|                                  NUM_GRADIENT_ORDER                      2
 PAO|                                  NUM_GRADIENT_EPS                  0.1E-07
 PAO|                                  PRINT%RESTART%WRITE_CYCLES            100
 PAO|                                  RESTART_FILE 
 PAO|                                  PREOPT_DM_FILE 2H2O_ref_LS_DM_SPIN_1_RESTART.dm
 PAO|                                  MACHINE_LEARNING%METHOD        GAUSSIAN_P
 PAO|                                  MACHINE_LEARNING%PRIOR               ZERO
 PAO|                                  MACHINE_LEARNING%DESCRIPTOR     POTENTIAL
 PAO|                                  MACHINE_LEARNING%TOLERANCE        0.1E-01
 PAO|                                  MACHINE_LEARNING%GP_NOISE_VAR     0.1E+00
 PAO|                                  MACHINE_LEARNING%GP_SCALE         0.5E-01
 

 Calculating atomic Fock matrix for atomic kind: O

 Electronic structure
    Total number of core electrons                                          2.00
    Total number of valence electrons                                       6.00
    Total number of electrons                                               8.00
    Multiplicity                                                   not specified
    S   [  2.00] 2.00
    P      4.00


 *******************************************************************************
                  Iteration          Convergence                     Energy [au]
 *******************************************************************************
                          1        0.708315                     -15.576645311500
                          2        0.608879                     -15.587933561584
                          3        0.102828E-01                 -15.656849565404
                          4        0.113889E-02                 -15.656866888140
                          5        0.434197E-03                 -15.656867072159
                          6        0.263771E-03                 -15.656867091904
                          7        0.478536E-06                 -15.656867103452

 Energy components [Hartree]           Total Energy ::          -15.656867103452
                                        Band Energy ::           -3.000198112285
                                     Kinetic Energy ::           11.759971203220
                                   Potential Energy ::          -27.416838306672
                                      Virial (-V/T) ::            2.331369510426
                                        Core Energy ::          -26.140716385623
                                          XC Energy ::           -3.154051012914
                                     Coulomb Energy ::           13.637900295084
                       Total Pseudopotential Energy ::          -37.935781716540
                       Local Pseudopotential Energy ::          -39.218907440693
                    Nonlocal Pseudopotential Energy ::            1.283125724153
                                        Confinement ::            0.350941276976

 Orbital energies  State     L     Occupation   Energy[a.u.]          Energy[eV]

                       1     0          2.000      -0.864471          -23.523463

                       1     1          4.000      -0.317814           -8.648154


 Total Electron Density at R=0:                                         0.000068

 Calculating atomic Fock matrix for atomic kind: H

 Electronic structure
    Total number of core electrons                                          0.00
    Total number of valence electrons                                       1.00
    Total number of electrons                                               1.00
    Multiplicity                                                   not specified
    S      1.00


 *******************************************************************************
                  Iteration          Convergence                     Energy [au]
 *******************************************************************************
                          1        0.437545E-02                  -0.424159432110
                          2        0.531356E-03                  -0.424178438213
                          3        0.259176E-06                  -0.424178722480

 Energy components [Hartree]           Total Energy ::           -0.424178722480
                                        Band Energy ::           -0.199015229016
                                     Kinetic Energy ::            0.464007633961
                                   Potential Energy ::           -0.888186356441
                                      Virial (-V/T) ::            1.914163240935
                                        Core Energy ::           -0.479160803564
                                          XC Energy ::           -0.244352904054
                                     Coulomb Energy ::            0.299334985138
                       Total Pseudopotential Energy ::           -0.962295316385
                       Local Pseudopotential Energy ::           -0.962295316385
                    Nonlocal Pseudopotential Energy ::            0.000000000000
                                        Confinement ::            0.191268788606

 Orbital energies  State     L     Occupation   Energy[a.u.]          Energy[eV]

                       1     0          1.000      -0.199015           -5.415480


 Total Electron Density at R=0:                                         0.242907
 PAO| Made initial guess for matrix_X with norm:   4.8989794855663558     

     Lanczos converged:  T threshold:   0.100E-02
     Est. extremal eigenvalues:    0.336E+01   0.116E+00
     Est. condition number :    0.291E+02
     NS sqrt iter    1 1.00000000   0.822E+00       0.002       39.558
     NS sqrt iter    2 1.00000000   0.440E+00       0.002       59.188
     NS sqrt iter    3 1.00000000   0.170E+00       0.002       63.757
     NS sqrt iter    4 1.00000000   0.203E-01       0.002       64.367
     NS sqrt iter    5 1.00000000   0.509E-04       0.002       49.600
     Final NS sqrt iter    5 1.00000000   0.460E-08

 PAO| Read restart DM 2H2O_ref_LS_DM_SPIN_1_RESTART.dm with checksum:    56.646968890536705     
 PAO| Quickstep energy from restart density:  -34.450838975855454     
 PAO| ======================= Iteration:         1 =============================

     Lanczos converged:  T threshold:   0.100E-02
     Est. extremal eigenvalues:    0.336E+01   0.116E+00
     Est. condition number :    0.291E+02
     NS sqrt iter    1 1.00000000   0.822E+00       0.002       41.263
     NS sqrt iter    2 1.00000000   0.440E+00       0.002       64.711
     NS sqrt iter    3 1.00000000   0.170E+00       0.002       63.886
     NS sqrt iter    4 1.00000000   0.203E-01       0.002       64.318
     NS sqrt iter    5 1.00000000   0.509E-04       0.002       53.722
     Final NS sqrt iter    5 1.00000000   0.460E-08

     Est. extremal eigenvalues     -0.91796     1.85094  converged:  T
     TRS4 it   1 1.00000000   0.878E+00       0.001       16.128   0.100E-07
     TRS4 it   2 1.00000000   0.682E+00       0.001       32.256   0.100E-07
     TRS4 it   3 1.00000000   0.494E+00       0.001       32.256   0.100E-07
     TRS4 it   4 1.00000000   0.308E+00       0.001       32.256   0.100E-07
     TRS4 it   5 1.00000000   0.151E+00       0.001       32.256   0.100E-07
     TRS4 it   6 1.00000000   0.467E-01       0.001       32.256   0.100E-07
     TRS4 it   7 1.00000000   0.614E-02       0.001       32.256   0.100E-07
     TRS4 it   8 1.00000000   0.149E-03       0.001       32.256   0.100E-07
     TRS4 it   9 1.00000000   0.992E-07       0.001       32.256   0.100E-07
     TRS4 it  10 1.00000000   0.439E-13       0.001       32.256   0.100E-07
     Final TRS4 iteration   10 1.00000000   0.439E-13
     Chemical potential (mu):      -0.06218
 
 PAO| energy:  -7.5932755688601796      penalty:   3.0814879110195770E-033
 PAO|CG| warming up with steepest descent
 PAO|CG| beta:    0.0000000000000000     
 PAO| norm of gradient:  0.78381729193353122     
 PAO|LS| adapt:  T F F
 PAO|LS| adapt: scan_steps:    0.0000000000000000        0.0000000000000000        0.0000000000000000     
 PAO|LS| adapt: energies:   -7.5932755688601796        0.0000000000000000        0.0000000000000000     
 PAO| ======================= Iteration:         2 =============================

     Lanczos converged:  T threshold:   0.100E-02
     Est. extremal eigenvalues:    0.328E+01   0.129E+00
     Est. condition number :    0.254E+02
     NS sqrt iter    1 1.00000000   0.805E+00       0.002       41.391
     NS sqrt iter    2 1.00000000   0.425E+00       0.002       63.618
     NS sqrt iter    3 1.00000000   0.152E+00       0.002       64.750
     NS sqrt iter    4 1.00000000   0.139E-01       0.002       63.923
     NS sqrt iter    5 1.00000000   0.156E-04       0.002       51.857
     Final NS sqrt iter    5 1.00000000   0.364E-09

     Est. extremal eigenvalues     -0.92162     1.79572  converged:  T
     TRS4 it   1 1.00000000   0.873E+00       0.001       16.128   0.100E-07
     TRS4 it   2 1.00000000   0.663E+00       0.001       32.256   0.100E-07
     TRS4 it   3 1.00000000   0.477E+00       0.001       32.256   0.100E-07
     TRS4 it   4 1.00000000   0.287E+00       0.001       32.256   0.100E-07
     TRS4 it   5 1.00000000   0.131E+00       0.001       32.256   0.100E-07
     TRS4 it   6 1.00000000   0.354E-01       0.001       32.256   0.100E-07
     TRS4 it   7 1.00000000   0.358E-02       0.001       32.256   0.100E-07
     TRS4 it   8 1.00000000   0.513E-04       0.001       32.256   0.100E-07
     TRS4 it   9 1.00000000   0.117E-07       0.001       32.256   0.100E-07
     Final TRS4 iteration    9 1.00000000   0.117E-07
     Chemical potential (mu):      -0.05018
 
 PAO| energy:  -7.6488234168276668      penalty:   2.2527342348592499E-008
 PAO|LS| adapt:  T T F
 PAO|LS| adapt: scan_steps:    0.0000000000000000       0.10000000000000001        0.0000000000000000     
 PAO|LS| adapt: energies:   -7.5932755688601796       -7.6488234168276668        0.0000000000000000     
 PAO| ======================= Iteration:         3 =============================

     Lanczos converged:  T threshold:   0.100E-02
     Est. extremal eigenvalues:    0.318E+01   0.141E+00
     Est. condition number :    0.226E+02
     NS sqrt iter    1 1.00000000   0.788E+00       0.002       41.191
     NS sqrt iter    2 1.00000000   0.408E+00       0.002       63.945
     NS sqrt iter    3 1.00000000   0.135E+00       0.002       65.360
     NS sqrt iter    4 1.00000000   0.952E-02       0.002       64.227
     NS sqrt iter    5 1.00000000   0.493E-05       0.002       51.957
     Final NS sqrt iter    5 1.00000000   0.365E-10

     Est. extremal eigenvalues     -0.92505     1.75190  converged:  T
     TRS4 it   1 1.00000000   0.869E+00       0.001       16.128   0.100E-07
     TRS4 it   2 1.00000000   0.647E+00       0.001       32.256   0.100E-07
     TRS4 it   3 1.00000000   0.460E+00       0.001       32.256   0.100E-07
     TRS4 it   4 1.00000000   0.266E+00       0.001       32.256   0.100E-07
     TRS4 it   5 1.00000000   0.113E+00       0.001       32.256   0.100E-07
     TRS4 it   6 1.00000000   0.259E-01       0.001       32.256   0.100E-07
     TRS4 it   7 1.00000000   0.193E-02       0.001       32.256   0.100E-07
     TRS4 it   8 1.00000000   0.149E-04       0.001       32.256   0.100E-07
     TRS4 it   9 1.00000000   0.989E-09       0.001       32.256   0.100E-07
     Final TRS4 iteration    9 1.00000000   0.989E-09
     Chemical potential (mu):      -0.03721
 
 PAO| energy:  -7.6919308244819833      penalty:   3.6043718876120059E-007
 PAO|LS| adapt:  T T F
 PAO|LS| adapt: scan_steps:    0.0000000000000000       0.20000000000000001        0.0000000000000000     
 PAO|LS| adapt: energies:   -7.5932755688601796       -7.6919308244819833        0.0000000000000000     
 PAO| ======================= Iteration:         4 =============================

     Lanczos converged:  T threshold:   0.100E-02
     Est. extremal eigenvalues:    0.299E+01   0.160E+00
     Est. condition number :    0.187E+02
     NS sqrt iter    1 1.00000000   0.750E+00       0.002       41.019
     NS sqrt iter    2 1.00000000   0.373E+00       0.002       64.421
     NS sqrt iter    3 1.00000000   0.105E+00       0.002       64.017
     NS sqrt iter    4 1.00000000   0.456E-02       0.002       64.331
     NS sqrt iter    5 1.00000000   0.651E-06       0.002       51.807
     Final NS sqrt iter    5 1.00000000   0.706E-12

     Est. extremal eigenvalues     -0.93037     1.69003  converged:  T
     TRS4 it   1 1.00000000   0.864E+00       0.001       16.128   0.100E-07
     TRS4 it   2 1.00000000   0.620E+00       0.001       32.256   0.100E-07
     TRS4 it   3 1.00000000   0.429E+00       0.001       32.256   0.100E-07
     TRS4 it   4 1.00000000   0.228E+00       0.001       32.256   0.100E-07
     TRS4 it   5 1.00000000   0.808E-01       0.001       32.256   0.100E-07
     TRS4 it   6 1.00000000   0.129E-01       0.001       32.256   0.100E-07
     TRS4 it   7 1.00000000   0.459E-03       0.001       32.256   0.100E-07
     TRS4 it   8 1.00000000   0.826E-06       0.001       32.256   0.100E-07
     TRS4 it   9 1.00000000   0.305E-11       0.001       32.256   0.100E-07
     Final TRS4 iteration    9 1.00000000   0.305E-11
     Chemical potential (mu):      -0.00885
 
 PAO| energy:  -7.7392078375788538      penalty:   5.7669927096549595E-006
 PAO|LS| Need extra step
 PAO|LS| adapt:  T T F
 PAO|LS| adapt: scan_steps:    0.0000000000000000       0.40000000000000002        0.0000000000000000     
 PAO|LS| adapt: energies:   -7.5932755688601796       -7.7392078375788538        0.0000000000000000     
 PAO| ======================= Iteration:         5 =============================

     Lanczos converged:  T threshold:   0.100E-02
     Est. extremal eigenvalues:    0.263E+01   0.187E+00
     Est. condition number :    0.141E+02
     NS sqrt iter    1 1.00000000   0.685E+00       0.002       41.836
     NS sqrt iter    2 1.00000000   0.311E+00       0.002       64.616
     NS sqrt iter    3 1.00000000   0.642E-01       0.002       65.153
     NS sqrt iter    4 1.00000000   0.122E-02       0.002       64.079
     NS sqrt iter    5 1.00000000   0.173E-07       0.002       35.754
     Final NS sqrt iter    5 1.00000000   0.480E-09

     Est. extremal eigenvalues     -0.93161     1.62615  converged:  T
     TRS4 it   1 1.00000000   0.860E+00       0.001       16.128   0.100E-07
     TRS4 it   2 1.00000000   0.584E+00       0.001       32.256   0.100E-07
     TRS4 it   3 1.00000000   0.380E+00       0.001       32.256   0.100E-07
     TRS4 it   4 1.00000000   0.171E+00       0.001       32.256   0.100E-07
     TRS4 it   5 1.00000000   0.423E-01       0.001       32.256   0.100E-07
     TRS4 it   6 1.00000000   0.323E-02       0.001       32.256   0.100E-07
     TRS4 it   7 1.00000000   0.243E-04       0.001       32.256   0.100E-07
     TRS4 it   8 1.00000000   0.172E-08       0.001       32.256   0.100E-07
     Final TRS4 iteration    8 1.00000000   0.172E-08
     Chemical potential (mu):       0.03968
 
 PAO| energy:  -7.6844139831924858      penalty:   9.2271864870305389E-005
 PAO|LS| Need extra step
 PAO|LS| adapt:  T T T
 PAO|LS| adapt: scan_steps:    0.0000000000000000       0.40000000000000002       0.80000000000000004     
 PAO|LS| adapt: energies:   -7.5932755688601796       -7.7392078375788538       -7.6844139831924858     
 PAO|LS| adapt: suggested step_size:   0.49080872277357995     
 PAO|LS| adapt: predicted energy  -7.7443804394545577     
 PAO| ======================= Iteration:         6 =============================

     Lanczos converged:  T threshold:   0.100E-02
     Est. extremal eigenvalues:    0.290E+01   0.167E+00
     Est. condition number :    0.174E+02
     NS sqrt iter    1 1.00000000   0.734E+00       0.002       41.126
     NS sqrt iter    2 1.00000000   0.358E+00       0.002       63.253
     NS sqrt iter    3 1.00000000   0.936E-01       0.002       63.786
     NS sqrt iter    4 1.00000000   0.333E-02       0.002       63.276
     NS sqrt iter    5 1.00000000   0.280E-06       0.002       50.421
     Final NS sqrt iter    5 1.00000000   0.320E-09

     Est. extremal eigenvalues     -0.93185     1.67017  converged:  T
     TRS4 it   1 1.00000000   0.863E+00       0.001       16.128   0.100E-07
     TRS4 it   2 1.00000000   0.610E+00       0.001       32.256   0.100E-07
     TRS4 it   3 1.00000000   0.416E+00       0.002       16.244   0.100E-07
     TRS4 it   4 1.00000000   0.212E+00       0.001       32.256   0.100E-07
     TRS4 it   5 1.00000000   0.693E-01       0.001       32.256   0.100E-07
     TRS4 it   6 1.00000000   0.927E-02       0.001       32.256   0.100E-07
     TRS4 it   7 1.00000000   0.226E-03       0.001       32.256   0.100E-07
     TRS4 it   8 1.00000000   0.193E-06       0.001       32.256   0.100E-07
     TRS4 it   9 1.00000000   0.164E-12       0.001       32.256   0.100E-07
     Final TRS4 iteration    9 1.00000000   0.164E-12
     Chemical potential (mu):       0.00473
 
 PAO| energy:  -7.7436493284218040      penalty:   1.3072495317553826E-005
 PAO|CG| warming up with steepest descent
 PAO|CG| beta:    0.0000000000000000     
 PAO| norm of gradient:  0.41821413028543974     
 PAO| energy improvement: -0.15037375956162435     
 PAO| step      6                   -7.743649328  0.261E-01  0.491E+00     0.130
 PAO|LS| adapt:  T F F
 PAO|LS| adapt: scan_steps:    0.0000000000000000        0.0000000000000000        0.0000000000000000     
 PAO|LS| adapt: energies:   -7.7436493284218040        0.0000000000000000        0.0000000000000000     
 PAO| ======================= Iteration:         7 =============================

     Lanczos converged:  T threshold:   0.100E-02
     Est. extremal eigenvalues:    0.281E+01   0.181E+00
     Est. condition number :    0.155E+02
     NS sqrt iter    1 1.00000000   0.716E+00       0.002       40.993
     NS sqrt iter    2 1.00000000   0.337E+00       0.002       64.363
     NS sqrt iter    3 1.00000000   0.780E-01       0.002       64.731
     NS sqrt iter    4 1.00000000   0.199E-02       0.002       64.337
     NS sqrt iter    5 1.00000000   0.671E-07       0.002       45.896
     Final NS sqrt iter    5 1.00000000   0.465E-09

     Est. extremal eigenvalues     -0.93357     1.65894  converged:  T
     TRS4 it   1 1.00000000   0.862E+00       0.001       16.128   0.100E-07
     TRS4 it   2 1.00000000   0.608E+00       0.001       32.256   0.100E-07
     TRS4 it   3 1.00000000   0.416E+00       0.001       32.256   0.100E-07
     TRS4 it   4 1.00000000   0.213E+00       0.001       32.256   0.100E-07
     TRS4 it   5 1.00000000   0.699E-01       0.001       32.256   0.100E-07
     TRS4 it   6 1.00000000   0.920E-02       0.001       32.256   0.100E-07
     TRS4 it   7 1.00000000   0.211E-03       0.001       32.256   0.100E-07
     TRS4 it   8 1.00000000   0.159E-06       0.001       32.256   0.100E-07
     TRS4 it   9 1.00000000   0.111E-12       0.001       32.256   0.100E-07
     Final TRS4 iteration    9 1.00000000   0.111E-12
     Chemical potential (mu):       0.00674
 
 PAO| energy:  -7.7375555795658526      penalty:   1.9817045659393574E-005
 PAO|LS| adapt:  T F T
 PAO|LS| adapt: scan_steps:    0.0000000000000000        0.0000000000000000       0.49080872277357995     
 PAO|LS| adapt: energies:   -7.7436493284218040        0.0000000000000000       -7.7375555795658526     
 PAO| ======================= Iteration:         8 =============================

     Lanczos converged:  T threshold:   0.100E-02
     Est. extremal eigenvalues:    0.285E+01   0.174E+00
     Est. condition number :    0.164E+02
     NS sqrt iter    1 1.00000000   0.725E+00       0.002       40.687
     NS sqrt iter    2 1.00000000   0.347E+00       0.002       64.137
     NS sqrt iter    3 1.00000000   0.856E-01       0.002       64.775
     NS sqrt iter    4 1.00000000   0.259E-02       0.002       66.467
     NS sqrt iter    5 1.00000000   0.140E-06       0.002       49.945
     Final NS sqrt iter    5 1.00000000   0.119E-08

     Est. extremal eigenvalues     -0.93368     1.66387  converged:  T
     TRS4 it   1 1.00000000   0.862E+00       0.001       16.128   0.100E-07
     TRS4 it   2 1.00000000   0.609E+00       0.001       32.256   0.100E-07
     TRS4 it   3 1.00000000   0.416E+00       0.001       32.256   0.100E-07
     TRS4 it   4 1.00000000   0.212E+00       0.001       32.256   0.100E-07
     TRS4 it   5 1.00000000   0.693E-01       0.001       32.256   0.100E-07
     TRS4 it   6 1.00000000   0.928E-02       0.001       32.256   0.100E-07
     TRS4 it   7 1.00000000   0.224E-03       0.001       32.256   0.100E-07
     TRS4 it   8 1.00000000   0.186E-06       0.001       32.256   0.100E-07
     TRS4 it   9 1.00000000   0.153E-12       0.001       32.256   0.100E-07
     Final TRS4 iteration    9 1.00000000   0.153E-12
     Chemical potential (mu):       0.00530
 
 PAO| energy:  -7.7633445291286094      penalty:   1.4180662566382296E-005
 PAO|LS| adapt:  T T T
 PAO|LS| adapt: scan_steps:    0.0000000000000000       0.24540436138678998       0.49080872277357995     
 PAO|LS| adapt: energies:   -7.7436493284218040       -7.7633445291286094       -7.7375555795658526     
 PAO|LS| adapt: suggested step_size:   0.22896531022739122     
 PAO|LS| adapt: predicted energy  -7.7634465805434960     
 PAO| ======================= Iteration:         9 =============================

     Lanczos converged:  T threshold:   0.100E-02
     Est. extremal eigenvalues:    0.286E+01   0.173E+00
     Est. condition number :    0.165E+02
     NS sqrt iter    1 1.00000000   0.725E+00       0.002       40.506
     NS sqrt iter    2 1.00000000   0.348E+00       0.002       63.792
     NS sqrt iter    3 1.00000000   0.861E-01       0.002       63.527
     NS sqrt iter    4 1.00000000   0.263E-02       0.002       64.177
     NS sqrt iter    5 1.00000000   0.147E-06       0.002       48.958
     Final NS sqrt iter    5 1.00000000   0.123E-08

     Est. extremal eigenvalues     -0.93362     1.66425  converged:  T
     TRS4 it   1 1.00000000   0.862E+00       0.001       16.128   0.100E-07
     TRS4 it   2 1.00000000   0.609E+00       0.001       32.256   0.100E-07
     TRS4 it   3 1.00000000   0.416E+00       0.001       32.256   0.100E-07
     TRS4 it   4 1.00000000   0.212E+00       0.001       32.256   0.100E-07
     TRS4 it   5 1.00000000   0.693E-01       0.001       32.256   0.100E-07
     TRS4 it   6 1.00000000   0.929E-02       0.001       32.256   0.100E-07
     TRS4 it   7 1.00000000   0.225E-03       0.001       32.256   0.100E-07
     TRS4 it   8 1.00000000   0.187E-06       0.001       32.256   0.100E-07
     TRS4 it   9 1.00000000   0.154E-12       0.001       32.256   0.100E-07
     Final TRS4 iteration    9 1.00000000   0.154E-12
     Chemical potential (mu):       0.00523
 
 PAO| energy:  -7.7634713141801219      penalty:   1.4004257214917595E-005
 PAO|CG| trace_G_new    3.6878441290373327E-002
 PAO|CG| trace_G_prev   0.17490305877040677     
 PAO|CG| trace_G_mix   -1.4554337941020991E-003
 PAO|CG| trace_D   0.17490305877040677     
 PAO|CG| trace_D_Gnew   1.4554337941020991E-003
 PAO|CG| beta:   0.21917212514159554     
 PAO| norm of gradient:  0.19203760384459426     
 PAO| energy improvement:  -1.9821985758317950E-002
 PAO| step      9                   -7.763471314  0.120E-01  0.229E+00     0.081
 PAO|LS| adapt:  T F F
 PAO|LS| adapt: scan_steps:    0.0000000000000000        0.0000000000000000        0.0000000000000000     
 PAO|LS| adapt: energies:   -7.7634713141801219        0.0000000000000000        0.0000000000000000     
 PAO| ======================= Iteration:        10 =============================

     Lanczos converged:  T threshold:   0.100E-02
     Est. extremal eigenvalues:    0.282E+01   0.179E+00
     Est. condition number :    0.157E+02
     NS sqrt iter    1 1.00000000   0.717E+00       0.002       40.818
     NS sqrt iter    2 1.00000000   0.340E+00       0.002       64.703
     NS sqrt iter    3 1.00000000   0.805E-01       0.002       64.544
     NS sqrt iter    4 1.00000000   0.216E-02       0.002       65.114
     NS sqrt iter    5 1.00000000   0.815E-07       0.002       46.799
     Final NS sqrt iter    5 1.00000000   0.784E-09

     Est. extremal eigenvalues     -0.93451     1.66289  converged:  T
     TRS4 it   1 1.00000000   0.861E+00       0.001       16.128   0.100E-07
     TRS4 it   2 1.00000000   0.608E+00       0.001       32.256   0.100E-07
     TRS4 it   3 1.00000000   0.414E+00       0.001       32.256   0.100E-07
     TRS4 it   4 1.00000000   0.210E+00       0.001       32.256   0.100E-07
     TRS4 it   5 1.00000000   0.677E-01       0.001       32.256   0.100E-07
     TRS4 it   6 1.00000000   0.879E-02       0.001       32.256   0.100E-07
     TRS4 it   7 1.00000000   0.198E-03       0.001       32.256   0.100E-07
     TRS4 it   8 1.00000000   0.142E-06       0.001       32.256   0.100E-07
     TRS4 it   9 1.00000000   0.881E-13       0.001       32.256   0.100E-07
     Final TRS4 iteration    9 1.00000000   0.881E-13
     Chemical potential (mu):       0.00827
 
 PAO| energy:  -7.7685178757005957      penalty:   1.4541817818819344E-005
 PAO|LS| adapt:  T T F
 PAO|LS| adapt: scan_steps:    0.0000000000000000       0.22896531022739122        0.0000000000000000     
 PAO|LS| adapt: energies:   -7.7634713141801219       -7.7685178757005957        0.0000000000000000     
 PAO| ======================= Iteration:        11 =============================

     Lanczos converged:  T threshold:   0.100E-02
     Est. extremal eigenvalues:    0.278E+01   0.185E+00
     Est. condition number :    0.150E+02
     NS sqrt iter    1 1.00000000   0.709E+00       0.002       40.022
     NS sqrt iter    2 1.00000000   0.331E+00       0.002       63.998
     NS sqrt iter    3 1.00000000   0.751E-01       0.002       64.056
     NS sqrt iter    4 1.00000000   0.177E-02       0.002       64.531
     NS sqrt iter    5 1.00000000   0.448E-07       0.002       43.776
     Final NS sqrt iter    5 1.00000000   0.325E-09

     Est. extremal eigenvalues     -0.93443     1.66304  converged:  T
     TRS4 it   1 1.00000000   0.861E+00       0.001       16.128   0.100E-07
     TRS4 it   2 1.00000000   0.608E+00       0.001       32.256   0.100E-07
     TRS4 it   3 1.00000000   0.413E+00       0.001       32.256   0.100E-07
     TRS4 it   4 1.00000000   0.208E+00       0.001       32.256   0.100E-07
     TRS4 it   5 1.00000000   0.662E-01       0.001       32.256   0.100E-07
     TRS4 it   6 1.00000000   0.834E-02       0.001       32.256   0.100E-07
     TRS4 it   7 1.00000000   0.175E-03       0.001       32.256   0.100E-07
     TRS4 it   8 1.00000000   0.108E-06       0.001       32.256   0.100E-07
     TRS4 it   9 1.00000000   0.494E-13       0.001       32.256   0.100E-07
     Final TRS4 iteration    9 1.00000000   0.494E-13
     Chemical potential (mu):       0.01141
 
 PAO| energy:  -7.7671563465042182      penalty:   1.5747924194333730E-005
 PAO|LS| adapt:  T T T
 PAO|LS| adapt: scan_steps:    0.0000000000000000       0.22896531022739122       0.45793062045478244     
 PAO|LS| adapt: energies:   -7.7634713141801219       -7.7685178757005957       -7.7671563465042182     
 PAO|LS| adapt: suggested step_size:   0.29479962863567044     
 PAO|LS| adapt: predicted energy  -7.7687827647258452     
 PAO| ======================= Iteration:        12 =============================

     Lanczos converged:  T threshold:   0.100E-02
     Est. extremal eigenvalues:    0.281E+01   0.181E+00
     Est. condition number :    0.155E+02
     NS sqrt iter    1 1.00000000   0.715E+00       0.002       40.580
     NS sqrt iter    2 1.00000000   0.337E+00       0.002       64.281
     NS sqrt iter    3 1.00000000   0.790E-01       0.002       64.303
     NS sqrt iter    4 1.00000000   0.204E-02       0.002       63.295
     NS sqrt iter    5 1.00000000   0.687E-07       0.002       45.745
     Final NS sqrt iter    5 1.00000000   0.484E-09

     Est. extremal eigenvalues     -0.93458     1.66278  converged:  T
     TRS4 it   1 1.00000000   0.861E+00       0.001       16.128   0.100E-07
     TRS4 it   2 1.00000000   0.608E+00       0.001       32.256   0.100E-07
     TRS4 it   3 1.00000000   0.414E+00       0.001       32.256   0.100E-07
     TRS4 it   4 1.00000000   0.210E+00       0.001       32.256   0.100E-07
     TRS4 it   5 1.00000000   0.672E-01       0.001       32.256   0.100E-07
     TRS4 it   6 1.00000000   0.865E-02       0.001       32.256   0.100E-07
     TRS4 it   7 1.00000000   0.191E-03       0.001       32.256   0.100E-07
     TRS4 it   8 1.00000000   0.131E-06       0.001       32.256   0.100E-07
     TRS4 it   9 1.00000000   0.748E-13       0.001       32.256   0.100E-07
     Final TRS4 iteration    9 1.00000000   0.748E-13
     Chemical potential (mu):       0.00917
 
 PAO| energy:  -7.7687664834792258      penalty:   1.4812410097690317E-005
 PAO|CG| trace_G_new    1.1843455050389671E-002
 PAO|CG| trace_G_prev    3.6878441290373327E-002
 PAO|CG| trace_G_mix   -4.5198213666213264E-004
 PAO|CG| trace_D    4.4642177122237774E-002
 PAO|CG| trace_D_Gnew   2.0386449267619324E-004
 PAO|CG| beta:   0.33340447038528659     
 PAO| norm of gradient:  0.10882763918412303     
 PAO| energy improvement:  -5.2951692991038968E-003
 PAO| step     12                   -7.768766483  0.680E-02  0.295E+00     0.082
 PAO|LS| adapt:  T F F
 PAO|LS| adapt: scan_steps:    0.0000000000000000        0.0000000000000000        0.0000000000000000     
 PAO|LS| adapt: energies:   -7.7687664834792258        0.0000000000000000        0.0000000000000000     
 PAO| ======================= Iteration:        13 =============================

     Lanczos converged:  T threshold:   0.100E-02
     Est. extremal eigenvalues:    0.277E+01   0.185E+00
     Est. condition number :    0.150E+02
     NS sqrt iter    1 1.00000000   0.708E+00       0.002       39.152
     NS sqrt iter    2 1.00000000   0.330E+00       0.002       63.721
     NS sqrt iter    3 1.00000000   0.746E-01       0.002       64.322
     NS sqrt iter    4 1.00000000   0.173E-02       0.002       64.166
     NS sqrt iter    5 1.00000000   0.425E-07       0.002       44.289
     Final NS sqrt iter    5 1.00000000   0.295E-09

     Est. extremal eigenvalues     -0.93506     1.65750  converged:  T
     TRS4 it   1 1.00000000   0.861E+00       0.001       16.128   0.100E-07
     TRS4 it   2 1.00000000   0.605E+00       0.001       32.256   0.100E-07
     TRS4 it   3 1.00000000   0.410E+00       0.001       32.256   0.100E-07
     TRS4 it   4 1.00000000   0.205E+00       0.001       32.256   0.100E-07
     TRS4 it   5 1.00000000   0.638E-01       0.001       32.256   0.100E-07
     TRS4 it   6 1.00000000   0.775E-02       0.001       32.256   0.100E-07
     TRS4 it   7 1.00000000   0.151E-03       0.001       32.256   0.100E-07
     TRS4 it   8 1.00000000   0.803E-07       0.001       32.256   0.100E-07
     TRS4 it   9 1.00000000   0.277E-13       0.001       32.256   0.100E-07
     Final TRS4 iteration    9 1.00000000   0.277E-13
     Chemical potential (mu):       0.01361
 
 PAO| energy:  -7.7708434813293978      penalty:   1.5124911439632519E-005
 PAO|LS| adapt:  T T F
 PAO|LS| adapt: scan_steps:    0.0000000000000000       0.29479962863567044        0.0000000000000000     
 PAO|LS| adapt: energies:   -7.7687664834792258       -7.7708434813293978        0.0000000000000000     
 PAO| ======================= Iteration:        14 =============================

     Lanczos converged:  T threshold:   0.100E-02
     Est. extremal eigenvalues:    0.274E+01   0.189E+00
     Est. condition number :    0.145E+02
     NS sqrt iter    1 1.00000000   0.700E+00       0.002       41.084
     NS sqrt iter    2 1.00000000   0.323E+00       0.002       65.137
     NS sqrt iter    3 1.00000000   0.704E-01       0.002       63.230
     NS sqrt iter    4 1.00000000   0.147E-02       0.002       64.786
     NS sqrt iter    5 1.00000000   0.259E-07       0.002       38.854
     Final NS sqrt iter    5 1.00000000   0.411E-08

     Est. extremal eigenvalues     -0.93504     1.65252  converged:  T
     TRS4 it   1 1.00000000   0.860E+00       0.001       16.128   0.100E-07
     TRS4 it   2 1.00000000   0.602E+00       0.001       32.256   0.100E-07
     TRS4 it   3 1.00000000   0.406E+00       0.001       32.256   0.100E-07
     TRS4 it   4 1.00000000   0.200E+00       0.001       32.256   0.100E-07
     TRS4 it   5 1.00000000   0.606E-01       0.001       32.256   0.100E-07
     TRS4 it   6 1.00000000   0.695E-02       0.001       32.256   0.100E-07
     TRS4 it   7 1.00000000   0.120E-03       0.001       32.256   0.100E-07
     TRS4 it   8 1.00000000   0.494E-07       0.001       32.256   0.100E-07
     Final TRS4 iteration    8 1.00000000   0.494E-07
     Chemical potential (mu):       0.01552
 
 PAO| energy:  -7.7701819557534124      penalty:   1.5924059527359654E-005
 PAO|LS| adapt:  T T T
 PAO|LS| adapt: scan_steps:    0.0000000000000000       0.29479962863567044       0.58959925727134088     
 PAO|LS| adapt: energies:   -7.7687664834792258       -7.7708434813293978       -7.7701819557534124     
 PAO|LS| adapt: suggested step_size:   0.37098679884363239     
 PAO|LS| adapt: predicted energy  -7.7709349339777427     
 PAO| ======================= Iteration:        15 =============================

     Lanczos converged:  T threshold:   0.100E-02
     Est. extremal eigenvalues:    0.276E+01   0.186E+00
     Est. condition number :    0.149E+02
     NS sqrt iter    1 1.00000000   0.706E+00       0.002       40.319
     NS sqrt iter    2 1.00000000   0.328E+00       0.002       64.438
     NS sqrt iter    3 1.00000000   0.735E-01       0.002       64.503
     NS sqrt iter    4 1.00000000   0.166E-02       0.002       64.487
     NS sqrt iter    5 1.00000000   0.376E-07       0.002       42.822
     Final NS sqrt iter    5 1.00000000   0.354E-09

     Est. extremal eigenvalues     -0.93511     1.65619  converged:  T
     TRS4 it   1 1.00000000   0.861E+00       0.001       16.128   0.100E-07
     TRS4 it   2 1.00000000   0.604E+00       0.001       32.256   0.100E-07
     TRS4 it   3 1.00000000   0.409E+00       0.001       32.256   0.100E-07
     TRS4 it   4 1.00000000   0.204E+00       0.001       32.256   0.100E-07
     TRS4 it   5 1.00000000   0.630E-01       0.001       32.256   0.100E-07
     TRS4 it   6 1.00000000   0.753E-02       0.001       32.256   0.100E-07
     TRS4 it   7 1.00000000   0.143E-03       0.001       32.256   0.100E-07
     TRS4 it   8 1.00000000   0.708E-07       0.001       32.256   0.100E-07
     Final TRS4 iteration    8 1.00000000   0.708E-07
     Chemical potential (mu):       0.01263
 
 PAO| energy:  -7.7709317775640576      penalty:   1.5281755747667790E-005
 PAO|CG| trace_G_new    2.6168785917925303E-003
 PAO|CG| trace_G_prev    1.1843455050389671E-002
 PAO|CG| trace_G_mix    6.2819366460511672E-005
 PAO|CG| trace_D    1.6669875654264744E-002
 PAO|CG| trace_D_Gnew   3.4426400693475658E-005
 PAO|CG| beta:   0.21565153196135831     
 PAO| norm of gradient:   5.1155435603584987E-002
 PAO| energy improvement:  -2.1652940848317925E-003
 PAO| step     15                   -7.770931778  0.320E-02  0.371E+00     0.080
 PAO|LS| adapt:  T F F
 PAO|LS| adapt: scan_steps:    0.0000000000000000        0.0000000000000000        0.0000000000000000     
 PAO|LS| adapt: energies:   -7.7709317775640576        0.0000000000000000        0.0000000000000000     
 PAO| ======================= Iteration:        16 =============================

     Lanczos converged:  T threshold:   0.100E-02
     Est. extremal eigenvalues:    0.275E+01   0.187E+00
     Est. condition number :    0.148E+02
     NS sqrt iter    1 1.00000000   0.704E+00       0.002       41.453
     NS sqrt iter    2 1.00000000   0.327E+00       0.002       65.375
     NS sqrt iter    3 1.00000000   0.728E-01       0.002       65.075
     NS sqrt iter    4 1.00000000   0.161E-02       0.002       62.946
     NS sqrt iter    5 1.00000000   0.340E-07       0.002       42.087
     Final NS sqrt iter    5 1.00000000   0.324E-08

     Est. extremal eigenvalues     -0.93513     1.65621  converged:  T
     TRS4 it   1 1.00000000   0.861E+00       0.001       16.128   0.100E-07
     TRS4 it   2 1.00000000   0.604E+00       0.001       32.256   0.100E-07
     TRS4 it   3 1.00000000   0.408E+00       0.001       32.256   0.100E-07
     TRS4 it   4 1.00000000   0.202E+00       0.001       32.256   0.100E-07
     TRS4 it   5 1.00000000   0.619E-01       0.001       32.256   0.100E-07
     TRS4 it   6 1.00000000   0.729E-02       0.001       32.256   0.100E-07
     TRS4 it   7 1.00000000   0.134E-03       0.001       32.256   0.100E-07
     TRS4 it   8 1.00000000   0.634E-07       0.001       32.256   0.100E-07
     Final TRS4 iteration    8 1.00000000   0.634E-07
     Chemical potential (mu):       0.01361
 
 PAO| energy:  -7.7710565582384632      penalty:   1.5062686791840473E-005
 PAO|LS| adapt:  T T F
 PAO|LS| adapt: scan_steps:    0.0000000000000000       0.37098679884363239        0.0000000000000000     
 PAO|LS| adapt: energies:   -7.7709317775640576       -7.7710565582384632        0.0000000000000000     
 PAO| ======================= Iteration:        17 =============================

     Lanczos converged:  T threshold:   0.100E-02
     Est. extremal eigenvalues:    0.274E+01   0.187E+00
     Est. condition number :    0.147E+02
     NS sqrt iter    1 1.00000000   0.702E+00       0.002       41.118
     NS sqrt iter    2 1.00000000   0.326E+00       0.002       64.848
     NS sqrt iter    3 1.00000000   0.721E-01       0.002       65.098
     NS sqrt iter    4 1.00000000   0.156E-02       0.002       63.770
     NS sqrt iter    5 1.00000000   0.308E-07       0.002       40.131
     Final NS sqrt iter    5 1.00000000   0.408E-08

     Est. extremal eigenvalues     -0.93504     1.65632  converged:  T
     TRS4 it   1 1.00000000   0.862E+00       0.001       16.128   0.100E-07
     TRS4 it   2 1.00000000   0.603E+00       0.001       32.256   0.100E-07
     TRS4 it   3 1.00000000   0.407E+00       0.001       32.256   0.100E-07
     TRS4 it   4 1.00000000   0.200E+00       0.001       32.256   0.100E-07
     TRS4 it   5 1.00000000   0.609E-01       0.001       32.256   0.100E-07
     TRS4 it   6 1.00000000   0.706E-02       0.001       32.256   0.100E-07
     TRS4 it   7 1.00000000   0.127E-03       0.001       32.256   0.100E-07
     TRS4 it   8 1.00000000   0.569E-07       0.001       32.256   0.100E-07
     Final TRS4 iteration    8 1.00000000   0.569E-07
     Chemical potential (mu):       0.01456
 
 PAO| energy:  -7.7694889356827215      penalty:   1.4969591574184033E-005
 PAO|LS| adapt:  T T T
 PAO|LS| adapt: scan_steps:    0.0000000000000000       0.37098679884363239       0.74197359768726479     
 PAO|LS| adapt: energies:   -7.7709317775640576       -7.7710565582384632       -7.7694889356827215     
 PAO|LS| adapt: suggested step_size:   0.21284620880592844     
 PAO|LS| adapt: predicted energy  -7.7712103183366370     
 PAO| ======================= Iteration:        18 =============================

     Lanczos converged:  T threshold:   0.100E-02
     Est. extremal eigenvalues:    0.276E+01   0.186E+00
     Est. condition number :    0.148E+02
     NS sqrt iter    1 1.00000000   0.705E+00       0.002       41.783
     NS sqrt iter    2 1.00000000   0.328E+00       0.002       63.520
     NS sqrt iter    3 1.00000000   0.731E-01       0.002       64.590
     NS sqrt iter    4 1.00000000   0.163E-02       0.002       63.343
     NS sqrt iter    5 1.00000000   0.354E-07       0.002       42.758
     Final NS sqrt iter    5 1.00000000   0.336E-08

     Est. extremal eigenvalues     -0.93514     1.65619  converged:  T
     TRS4 it   1 1.00000000   0.861E+00       0.001       16.128   0.100E-07
     TRS4 it   2 1.00000000   0.604E+00       0.001       32.256   0.100E-07
     TRS4 it   3 1.00000000   0.408E+00       0.001       32.256   0.100E-07
     TRS4 it   4 1.00000000   0.203E+00       0.001       32.256   0.100E-07
     TRS4 it   5 1.00000000   0.624E-01       0.001       32.256   0.100E-07
     TRS4 it   6 1.00000000   0.739E-02       0.001       32.256   0.100E-07
     TRS4 it   7 1.00000000   0.138E-03       0.001       32.256   0.100E-07
     TRS4 it   8 1.00000000   0.665E-07       0.001       32.256   0.100E-07
     Final TRS4 iteration    8 1.00000000   0.665E-07
     Chemical potential (mu):       0.01319
 
 PAO| energy:  -7.7712098407197168      penalty:   1.5140933899545925E-005
 PAO|CG| trace_G_new    7.3225720136384871E-004
 PAO|CG| trace_G_prev    2.6168785917925303E-003
 PAO|CG| trace_G_mix    1.9000547843149985E-006
 PAO|CG| trace_D    3.3772726694881331E-003
 PAO|CG| trace_D_Gnew  -1.7764457026849774E-006
 PAO|CG| beta:   0.27909477683458284     
 PAO| norm of gradient:   2.7060251317455437E-002
 PAO| energy improvement:  -2.7806315565914730E-004
 PAO| step     18                   -7.771209841  0.169E-02  0.213E+00     0.079
 PAO|LS| adapt:  T F F
 PAO|LS| adapt: scan_steps:    0.0000000000000000        0.0000000000000000        0.0000000000000000     
 PAO|LS| adapt: energies:   -7.7712098407197168        0.0000000000000000        0.0000000000000000     
 PAO| ======================= Iteration:        19 =============================

     Lanczos converged:  T threshold:   0.100E-02
     Est. extremal eigenvalues:    0.276E+01   0.186E+00
     Est. condition number :    0.148E+02
     NS sqrt iter    1 1.00000000   0.705E+00       0.002       41.328
     NS sqrt iter    2 1.00000000   0.328E+00       0.002       63.952
     NS sqrt iter    3 1.00000000   0.733E-01       0.002       65.895
     NS sqrt iter    4 1.00000000   0.164E-02       0.002       65.030
     NS sqrt iter    5 1.00000000   0.359E-07       0.002       43.085
     Final NS sqrt iter    5 1.00000000   0.342E-09

     Est. extremal eigenvalues     -0.93514     1.65663  converged:  T
     TRS4 it   1 1.00000000   0.861E+00       0.001       16.128   0.100E-07
     TRS4 it   2 1.00000000   0.604E+00       0.001       32.256   0.100E-07
     TRS4 it   3 1.00000000   0.408E+00       0.001       32.256   0.100E-07
     TRS4 it   4 1.00000000   0.202E+00       0.001       32.256   0.100E-07
     TRS4 it   5 1.00000000   0.623E-01       0.001       32.256   0.100E-07
     TRS4 it   6 1.00000000   0.739E-02       0.001       32.256   0.100E-07
     TRS4 it   7 1.00000000   0.138E-03       0.001       32.256   0.100E-07
     TRS4 it   8 1.00000000   0.675E-07       0.001       32.256   0.100E-07
     Final TRS4 iteration    8 1.00000000   0.675E-07
     Chemical potential (mu):       0.01307
 
 PAO| energy:  -7.7713287081858837      penalty:   1.4850579243796396E-005
 PAO|LS| adapt:  T T F
 PAO|LS| adapt: scan_steps:    0.0000000000000000       0.21284620880592844        0.0000000000000000     
 PAO|LS| adapt: energies:   -7.7712098407197168       -7.7713287081858837        0.0000000000000000     
 PAO| ======================= Iteration:        20 =============================

     Lanczos converged:  T threshold:   0.100E-02
     Est. extremal eigenvalues:    0.276E+01   0.186E+00
     Est. condition number :    0.148E+02
     NS sqrt iter    1 1.00000000   0.705E+00       0.002       40.642
     NS sqrt iter    2 1.00000000   0.328E+00       0.002       63.881
     NS sqrt iter    3 1.00000000   0.735E-01       0.002       64.278
     NS sqrt iter    4 1.00000000   0.165E-02       0.002       65.914
     NS sqrt iter    5 1.00000000   0.363E-07       0.002       42.732
     Final NS sqrt iter    5 1.00000000   0.348E-09

     Est. extremal eigenvalues     -0.93514     1.65707  converged:  T
     TRS4 it   1 1.00000000   0.861E+00       0.001       16.128   0.100E-07
     TRS4 it   2 1.00000000   0.604E+00       0.001       32.256   0.100E-07
     TRS4 it   3 1.00000000   0.408E+00       0.001       32.256   0.100E-07
     TRS4 it   4 1.00000000   0.202E+00       0.001       32.256   0.100E-07
     TRS4 it   5 1.00000000   0.622E-01       0.001       32.256   0.100E-07
     TRS4 it   6 1.00000000   0.738E-02       0.001       32.256   0.100E-07
     TRS4 it   7 1.00000000   0.139E-03       0.001       32.256   0.100E-07
     TRS4 it   8 1.00000000   0.686E-07       0.001       32.256   0.100E-07
     Final TRS4 iteration    8 1.00000000   0.686E-07
     Chemical potential (mu):       0.01294
 
 PAO| energy:  -7.7713729774696336      penalty:   1.4572728066285109E-005
 PAO|LS| adapt:  T T F
 PAO|LS| adapt: scan_steps:    0.0000000000000000       0.42569241761185689        0.0000000000000000     
 PAO|LS| adapt: energies:   -7.7712098407197168       -7.7713729774696336        0.0000000000000000     
 PAO| ======================= Iteration:        21 =============================

     Lanczos converged:  T threshold:   0.100E-02
     Est. extremal eigenvalues:    0.276E+01   0.186E+00
     Est. condition number :    0.148E+02
     NS sqrt iter    1 1.00000000   0.704E+00       0.002       41.034
     NS sqrt iter    2 1.00000000   0.328E+00       0.002       64.056
     NS sqrt iter    3 1.00000000   0.739E-01       0.002       64.120
     NS sqrt iter    4 1.00000000   0.167E-02       0.002       64.380
     NS sqrt iter    5 1.00000000   0.372E-07       0.002       43.265
     Final NS sqrt iter    5 1.00000000   0.348E-09

     Est. extremal eigenvalues     -0.93513     1.65796  converged:  T
     TRS4 it   1 1.00000000   0.861E+00       0.001       16.128   0.100E-07
     TRS4 it   2 1.00000000   0.604E+00       0.001       32.256   0.100E-07
     TRS4 it   3 1.00000000   0.408E+00       0.001       32.256   0.100E-07
     TRS4 it   4 1.00000000   0.202E+00       0.001       32.256   0.100E-07
     TRS4 it   5 1.00000000   0.620E-01       0.001       32.256   0.100E-07
     TRS4 it   6 1.00000000   0.738E-02       0.001       32.256   0.100E-07
     TRS4 it   7 1.00000000   0.140E-03       0.001       32.256   0.100E-07
     TRS4 it   8 1.00000000   0.709E-07       0.001       32.256   0.100E-07
     Final TRS4 iteration    8 1.00000000   0.709E-07
     Chemical potential (mu):       0.01267
 
 PAO| energy:  -7.7712352315340265      penalty:   1.4053966941236216E-005
 PAO|LS| Need extra step
 PAO|LS| adapt:  T T T
 PAO|LS| adapt: scan_steps:    0.0000000000000000       0.42569241761185689       0.85138483522371378     
 PAO|LS| adapt: energies:   -7.7712098407197168       -7.7713729774696336       -7.7712352315340265     
 PAO|LS| adapt: suggested step_size:   0.44365403130495823     
 PAO|LS| adapt: predicted energy  -7.7713732453038604     
 PAO| ======================= Iteration:        22 =============================

     Lanczos converged:  T threshold:   0.100E-02
     Est. extremal eigenvalues:    0.276E+01   0.186E+00
     Est. condition number :    0.148E+02
     NS sqrt iter    1 1.00000000   0.705E+00       0.002       41.250
     NS sqrt iter    2 1.00000000   0.328E+00       0.002       64.835
     NS sqrt iter    3 1.00000000   0.735E-01       0.002       64.369
     NS sqrt iter    4 1.00000000   0.165E-02       0.002       64.948
     NS sqrt iter    5 1.00000000   0.363E-07       0.002       43.139
     Final NS sqrt iter    5 1.00000000   0.349E-09

     Est. extremal eigenvalues     -0.93514     1.65711  converged:  T
     TRS4 it   1 1.00000000   0.861E+00       0.001       16.128   0.100E-07
     TRS4 it   2 1.00000000   0.604E+00       0.001       32.256   0.100E-07
     TRS4 it   3 1.00000000   0.408E+00       0.001       32.256   0.100E-07
     TRS4 it   4 1.00000000   0.202E+00       0.001       32.256   0.100E-07
     TRS4 it   5 1.00000000   0.622E-01       0.001       32.256   0.100E-07
     TRS4 it   6 1.00000000   0.738E-02       0.001       32.256   0.100E-07
     TRS4 it   7 1.00000000   0.139E-03       0.001       32.256   0.100E-07
     TRS4 it   8 1.00000000   0.687E-07       0.001       32.256   0.100E-07
     Final TRS4 iteration    8 1.00000000   0.687E-07
     Chemical potential (mu):       0.01293
 
 PAO| energy:  -7.7713732802506543      penalty:   1.4549847327944045E-005
 PAO|CG| trace_G_new    2.2498155944977599E-004
 PAO|CG| trace_G_prev    7.3225720136384871E-004
 PAO|CG| trace_G_mix    3.2012530694083534E-006
 PAO|CG| trace_D    9.9631771566515695E-004
 PAO|CG| trace_D_Gnew  -1.9463491697211277E-006
 PAO|CG| beta:   0.30287214105548688     
 PAO| norm of gradient:   1.4999385302397429E-002
 PAO| energy improvement:  -1.6343953093755914E-004
 PAO| step     22                   -7.771373280  0.937E-03  0.444E+00     0.102
 PAO|LS| adapt:  T F F
 PAO|LS| adapt: scan_steps:    0.0000000000000000        0.0000000000000000        0.0000000000000000     
 PAO|LS| adapt: energies:   -7.7713732802506543        0.0000000000000000        0.0000000000000000     
 PAO| ======================= Iteration:        23 =============================

     Lanczos converged:  T threshold:   0.100E-02
     Est. extremal eigenvalues:    0.276E+01   0.186E+00
     Est. condition number :    0.148E+02
     NS sqrt iter    1 1.00000000   0.705E+00       0.002       41.268
     NS sqrt iter    2 1.00000000   0.328E+00       0.002       64.936
     NS sqrt iter    3 1.00000000   0.735E-01       0.002       64.166
     NS sqrt iter    4 1.00000000   0.165E-02       0.002       64.661
     NS sqrt iter    5 1.00000000   0.365E-07       0.002       43.983
     Final NS sqrt iter    5 1.00000000   0.340E-09

     Est. extremal eigenvalues     -0.93514     1.65725  converged:  T
     TRS4 it   1 1.00000000   0.861E+00       0.001       16.128   0.100E-07
     TRS4 it   2 1.00000000   0.604E+00       0.001       32.256   0.100E-07
     TRS4 it   3 1.00000000   0.408E+00       0.001       32.256   0.100E-07
     TRS4 it   4 1.00000000   0.202E+00       0.001       32.256   0.100E-07
     TRS4 it   5 1.00000000   0.623E-01       0.001       32.256   0.100E-07
     TRS4 it   6 1.00000000   0.742E-02       0.001       32.256   0.100E-07
     TRS4 it   7 1.00000000   0.140E-03       0.001       32.256   0.100E-07
     TRS4 it   8 1.00000000   0.705E-07       0.001       32.256   0.100E-07
     Final TRS4 iteration    8 1.00000000   0.705E-07
     Chemical potential (mu):       0.01269
 
 PAO| energy:  -7.7714231272893501      penalty:   1.3866771572121821E-005
 PAO|LS| adapt:  T T F
 PAO|LS| adapt: scan_steps:    0.0000000000000000       0.44365403130495823        0.0000000000000000     
 PAO|LS| adapt: energies:   -7.7713732802506543       -7.7714231272893501        0.0000000000000000     
 PAO| ======================= Iteration:        24 =============================

     Lanczos converged:  T threshold:   0.100E-02
     Est. extremal eigenvalues:    0.276E+01   0.186E+00
     Est. condition number :    0.148E+02
     NS sqrt iter    1 1.00000000   0.704E+00       0.002       41.235
     NS sqrt iter    2 1.00000000   0.328E+00       0.002       63.754
     NS sqrt iter    3 1.00000000   0.736E-01       0.002       63.966
     NS sqrt iter    4 1.00000000   0.165E-02       0.002       64.657
     NS sqrt iter    5 1.00000000   0.366E-07       0.002       43.085
     Final NS sqrt iter    5 1.00000000   0.342E-09

     Est. extremal eigenvalues     -0.93513     1.65739  converged:  T
     TRS4 it   1 1.00000000   0.861E+00       0.001       16.128   0.100E-07
     TRS4 it   2 1.00000000   0.604E+00       0.001       32.256   0.100E-07
     TRS4 it   3 1.00000000   0.408E+00       0.001       32.256   0.100E-07
     TRS4 it   4 1.00000000   0.203E+00       0.001       32.256   0.100E-07
     TRS4 it   5 1.00000000   0.624E-01       0.001       32.256   0.100E-07
     TRS4 it   6 1.00000000   0.746E-02       0.001       32.256   0.100E-07
     TRS4 it   7 1.00000000   0.142E-03       0.001       32.256   0.100E-07
     TRS4 it   8 1.00000000   0.724E-07       0.001       32.256   0.100E-07
     Final TRS4 iteration    8 1.00000000   0.724E-07
     Chemical potential (mu):       0.01245
 
 PAO| energy:  -7.7713718606320121      penalty:   1.3212070090894775E-005
 PAO|LS| adapt:  T T T
 PAO|LS| adapt: scan_steps:    0.0000000000000000       0.44365403130495823       0.88730806260991646     
 PAO|LS| adapt: energies:   -7.7713732802506543       -7.7714231272893501       -7.7713718606320121     
 PAO|LS| adapt: suggested step_size:   0.44053961872669090     
 PAO|LS| adapt: predicted energy  -7.7714231297807501     
 PAO| ======================= Iteration:        25 =============================

     Lanczos converged:  T threshold:   0.100E-02
     Est. extremal eigenvalues:    0.276E+01   0.186E+00
     Est. condition number :    0.148E+02
     NS sqrt iter    1 1.00000000   0.705E+00       0.002       41.196
     NS sqrt iter    2 1.00000000   0.328E+00       0.002       64.572
     NS sqrt iter    3 1.00000000   0.735E-01       0.002       65.202
     NS sqrt iter    4 1.00000000   0.165E-02       0.002       64.386
     NS sqrt iter    5 1.00000000   0.365E-07       0.002       43.291
     Final NS sqrt iter    5 1.00000000   0.340E-09

     Est. extremal eigenvalues     -0.93514     1.65725  converged:  T
     TRS4 it   1 1.00000000   0.861E+00       0.001       16.128   0.100E-07
     TRS4 it   2 1.00000000   0.604E+00       0.001       32.256   0.100E-07
     TRS4 it   3 1.00000000   0.408E+00       0.001       32.256   0.100E-07
     TRS4 it   4 1.00000000   0.202E+00       0.001       32.256   0.100E-07
     TRS4 it   5 1.00000000   0.623E-01       0.001       32.256   0.100E-07
     TRS4 it   6 1.00000000   0.742E-02       0.001       32.256   0.100E-07
     TRS4 it   7 1.00000000   0.140E-03       0.001       32.256   0.100E-07
     TRS4 it   8 1.00000000   0.705E-07       0.001       32.256   0.100E-07
     Final TRS4 iteration    8 1.00000000   0.705E-07
     Chemical potential (mu):       0.01269
 
 PAO| energy:  -7.7714231286169921      penalty:   1.3871467108021770E-005
 PAO|CG| trace_G_new    8.0981169778245312E-005
 PAO|CG| trace_G_prev    2.2498155944977599E-004
 PAO|CG| trace_G_mix    7.4602426762851981E-007
 PAO|CG| trace_D    3.1755430156783657E-004
 PAO|CG| trace_D_Gnew  -3.7940935810235163E-007
 PAO|CG| beta:   0.35662987538553431     
 PAO| norm of gradient:   8.9989538157635475E-003
 PAO| energy improvement:  -4.9848366337812422E-005
 PAO| step     25                   -7.771423129  0.562E-03  0.441E+00     0.078
 PAO|LS| adapt:  T F F
 PAO|LS| adapt: scan_steps:    0.0000000000000000        0.0000000000000000        0.0000000000000000     
 PAO|LS| adapt: energies:   -7.7714231286169921        0.0000000000000000        0.0000000000000000     
 PAO| ======================= Iteration:        26 =============================

     Lanczos converged:  T threshold:   0.100E-02
     Est. extremal eigenvalues:    0.276E+01   0.186E+00
     Est. condition number :    0.148E+02
     NS sqrt iter    1 1.00000000   0.704E+00       0.002       41.328
     NS sqrt iter    2 1.00000000   0.328E+00       0.002       64.441
     NS sqrt iter    3 1.00000000   0.734E-01       0.002       64.189
     NS sqrt iter    4 1.00000000   0.164E-02       0.002       64.830
     NS sqrt iter    5 1.00000000   0.364E-07       0.002       42.541
     Final NS sqrt iter    5 1.00000000   0.338E-09

     Est. extremal eigenvalues     -0.93514     1.65727  converged:  T
     TRS4 it   1 1.00000000   0.861E+00       0.001       16.128   0.100E-07
     TRS4 it   2 1.00000000   0.604E+00       0.001       32.256   0.100E-07
     TRS4 it   3 1.00000000   0.408E+00       0.001       32.256   0.100E-07
     TRS4 it   4 1.00000000   0.202E+00       0.001       32.256   0.100E-07
     TRS4 it   5 1.00000000   0.622E-01       0.001       32.256   0.100E-07
     TRS4 it   6 1.00000000   0.740E-02       0.001       32.256   0.100E-07
     TRS4 it   7 1.00000000   0.140E-03       0.001       32.256   0.100E-07
     TRS4 it   8 1.00000000   0.697E-07       0.001       32.256   0.100E-07
     Final TRS4 iteration    8 1.00000000   0.697E-07
     Chemical potential (mu):       0.01280
 
 PAO| energy:  -7.7714274166454018      penalty:   1.3148202725475790E-005
 PAO|LS| adapt:  T T F
 PAO|LS| adapt: scan_steps:    0.0000000000000000       0.44053961872669090        0.0000000000000000     
 PAO|LS| adapt: energies:   -7.7714231286169921       -7.7714274166454018        0.0000000000000000     
 PAO| ======================= Iteration:        27 =============================

     Lanczos converged:  T threshold:   0.100E-02
     Est. extremal eigenvalues:    0.276E+01   0.186E+00
     Est. condition number :    0.148E+02
     NS sqrt iter    1 1.00000000   0.704E+00       0.002       41.594
     NS sqrt iter    2 1.00000000   0.328E+00       0.002       64.350
     NS sqrt iter    3 1.00000000   0.733E-01       0.002       64.378
     NS sqrt iter    4 1.00000000   0.164E-02       0.002       64.368
     NS sqrt iter    5 1.00000000   0.363E-07       0.002       42.821
     Final NS sqrt iter    5 1.00000000   0.336E-09

     Est. extremal eigenvalues     -0.93514     1.65730  converged:  T
     TRS4 it   1 1.00000000   0.861E+00       0.001       16.128   0.100E-07
     TRS4 it   2 1.00000000   0.604E+00       0.001       32.256   0.100E-07
     TRS4 it   3 1.00000000   0.408E+00       0.001       32.256   0.100E-07
     TRS4 it   4 1.00000000   0.202E+00       0.001       32.256   0.100E-07
     TRS4 it   5 1.00000000   0.622E-01       0.001       32.256   0.100E-07
     TRS4 it   6 1.00000000   0.739E-02       0.001       32.256   0.100E-07
     TRS4 it   7 1.00000000   0.139E-03       0.001       32.256   0.100E-07
     TRS4 it   8 1.00000000   0.689E-07       0.001       32.256   0.100E-07
     Final TRS4 iteration    8 1.00000000   0.689E-07
     Chemical potential (mu):       0.01291
 
 PAO| energy:  -7.7713686989482103      penalty:   1.2448629744012869E-005
 PAO|LS| adapt:  T T T
 PAO|LS| adapt: scan_steps:    0.0000000000000000       0.44053961872669090       0.88107923745338179     
 PAO|LS| adapt: energies:   -7.7714231286169921       -7.7714274166454018       -7.7713686989482103     
 PAO|LS| adapt: suggested step_size:   0.25025194801287209     
 PAO|LS| adapt: predicted energy  -7.7714332942636961     
 PAO| ======================= Iteration:        28 =============================

     Lanczos converged:  T threshold:   0.100E-02
     Est. extremal eigenvalues:    0.276E+01   0.186E+00
     Est. condition number :    0.148E+02
     NS sqrt iter    1 1.00000000   0.704E+00       0.002       41.615
     NS sqrt iter    2 1.00000000   0.328E+00       0.002       65.303
     NS sqrt iter    3 1.00000000   0.735E-01       0.002       63.642
     NS sqrt iter    4 1.00000000   0.165E-02       0.002       64.216
     NS sqrt iter    5 1.00000000   0.364E-07       0.002       43.333
     Final NS sqrt iter    5 1.00000000   0.339E-09

     Est. extremal eigenvalues     -0.93514     1.65726  converged:  T
     TRS4 it   1 1.00000000   0.861E+00       0.001       16.128   0.100E-07
     TRS4 it   2 1.00000000   0.604E+00       0.001       32.256   0.100E-07
     TRS4 it   3 1.00000000   0.408E+00       0.001       32.256   0.100E-07
     TRS4 it   4 1.00000000   0.202E+00       0.001       32.256   0.100E-07
     TRS4 it   5 1.00000000   0.623E-01       0.001       32.256   0.100E-07
     TRS4 it   6 1.00000000   0.741E-02       0.001       32.256   0.100E-07
     TRS4 it   7 1.00000000   0.140E-03       0.001       32.256   0.100E-07
     TRS4 it   8 1.00000000   0.701E-07       0.001       32.256   0.100E-07
     Final TRS4 iteration    8 1.00000000   0.701E-07
     Chemical potential (mu):       0.01275
 
 PAO| energy:  -7.7714332846835994      penalty:   1.3457685577085331E-005
 PAO|CG| trace_G_new    3.2092763276927953E-005
 PAO|CG| trace_G_prev    8.0981169778245312E-005
 PAO|CG| trace_G_mix    5.0987411892929627E-008
 PAO|CG| trace_D    1.2163988913574081E-004
 PAO|CG| trace_D_Gnew  -2.4785552143770565E-008
 PAO|CG| beta:   0.39566946183633278     
 PAO| norm of gradient:   5.6650475087970760E-003
 PAO| energy improvement:  -1.0156066607258651E-005
 PAO| step     28                   -7.771433285  0.354E-03  0.250E+00     0.078
 PAO|LS| adapt:  T F F
 PAO|LS| adapt: scan_steps:    0.0000000000000000        0.0000000000000000        0.0000000000000000     
 PAO|LS| adapt: energies:   -7.7714332846835994        0.0000000000000000        0.0000000000000000     
 PAO| ======================= Iteration:        29 =============================

     Lanczos converged:  T threshold:   0.100E-02
     Est. extremal eigenvalues:    0.276E+01   0.186E+00
     Est. condition number :    0.148E+02
     NS sqrt iter    1 1.00000000   0.704E+00       0.002       40.763
     NS sqrt iter    2 1.00000000   0.328E+00       0.002       64.556
     NS sqrt iter    3 1.00000000   0.734E-01       0.002       64.764
     NS sqrt iter    4 1.00000000   0.164E-02       0.002       64.211
     NS sqrt iter    5 1.00000000   0.364E-07       0.002       43.317
     Final NS sqrt iter    5 1.00000000   0.338E-09

     Est. extremal eigenvalues     -0.93514     1.65732  converged:  T
     TRS4 it   1 1.00000000   0.861E+00       0.001       16.128   0.100E-07
     TRS4 it   2 1.00000000   0.604E+00       0.001       32.256   0.100E-07
     TRS4 it   3 1.00000000   0.408E+00       0.001       32.256   0.100E-07
     TRS4 it   4 1.00000000   0.202E+00       0.001       32.256   0.100E-07
     TRS4 it   5 1.00000000   0.622E-01       0.001       32.256   0.100E-07
     TRS4 it   6 1.00000000   0.739E-02       0.001       32.256   0.100E-07
     TRS4 it   7 1.00000000   0.139E-03       0.001       32.256   0.100E-07
     TRS4 it   8 1.00000000   0.691E-07       0.001       32.256   0.100E-07
     Final TRS4 iteration    8 1.00000000   0.691E-07
     Chemical potential (mu):       0.01287
 
 PAO| energy:  -7.7714403776078287      penalty:   1.3024914146513164E-005
 PAO|LS| adapt:  T T F
 PAO|LS| adapt: scan_steps:    0.0000000000000000       0.25025194801287209        0.0000000000000000     
 PAO|LS| adapt: energies:   -7.7714332846835994       -7.7714403776078287        0.0000000000000000     
 PAO| ======================= Iteration:        30 =============================

     Lanczos converged:  T threshold:   0.100E-02
     Est. extremal eigenvalues:    0.276E+01   0.186E+00
     Est. condition number :    0.148E+02
     NS sqrt iter    1 1.00000000   0.704E+00       0.002       41.868
     NS sqrt iter    2 1.00000000   0.328E+00       0.002       64.000
     NS sqrt iter    3 1.00000000   0.734E-01       0.002       64.748
     NS sqrt iter    4 1.00000000   0.164E-02       0.002       64.417
     NS sqrt iter    5 1.00000000   0.364E-07       0.002       42.810
     Final NS sqrt iter    5 1.00000000   0.338E-09

     Est. extremal eigenvalues     -0.93514     1.65738  converged:  T
     TRS4 it   1 1.00000000   0.862E+00       0.001       16.128   0.100E-07
     TRS4 it   2 1.00000000   0.604E+00       0.001       32.256   0.100E-07
     TRS4 it   3 1.00000000   0.408E+00       0.001       32.256   0.100E-07
     TRS4 it   4 1.00000000   0.202E+00       0.001       32.256   0.100E-07
     TRS4 it   5 1.00000000   0.621E-01       0.001       32.256   0.100E-07
     TRS4 it   6 1.00000000   0.737E-02       0.001       32.256   0.100E-07
     TRS4 it   7 1.00000000   0.138E-03       0.001       32.256   0.100E-07
     TRS4 it   8 1.00000000   0.683E-07       0.001       32.256   0.100E-07
     Final TRS4 iteration    8 1.00000000   0.683E-07
     Chemical potential (mu):       0.01300
 
 PAO| energy:  -7.7714455868032903      penalty:   1.2600055202996681E-005
 PAO|LS| adapt:  T T F
 PAO|LS| adapt: scan_steps:    0.0000000000000000       0.50050389602574419        0.0000000000000000     
 PAO|LS| adapt: energies:   -7.7714332846835994       -7.7714455868032903        0.0000000000000000     
 PAO| ======================= Iteration:        31 =============================

     Lanczos converged:  T threshold:   0.100E-02
     Est. extremal eigenvalues:    0.275E+01   0.186E+00
     Est. condition number :    0.148E+02
     NS sqrt iter    1 1.00000000   0.703E+00       0.002       41.601
     NS sqrt iter    2 1.00000000   0.327E+00       0.002       64.531
     NS sqrt iter    3 1.00000000   0.732E-01       0.002       64.624
     NS sqrt iter    4 1.00000000   0.164E-02       0.002       64.185
     NS sqrt iter    5 1.00000000   0.363E-07       0.002       41.970
     Final NS sqrt iter    5 1.00000000   0.336E-08

     Est. extremal eigenvalues     -0.93515     1.65749  converged:  T
     TRS4 it   1 1.00000000   0.862E+00       0.001       16.128   0.100E-07
     TRS4 it   2 1.00000000   0.604E+00       0.001       32.256   0.100E-07
     TRS4 it   3 1.00000000   0.408E+00       0.001       32.256   0.100E-07
     TRS4 it   4 1.00000000   0.202E+00       0.001       32.256   0.100E-07
     TRS4 it   5 1.00000000   0.619E-01       0.001       32.256   0.100E-07
     TRS4 it   6 1.00000000   0.733E-02       0.001       32.256   0.100E-07
     TRS4 it   7 1.00000000   0.137E-03       0.001       32.256   0.100E-07
     TRS4 it   8 1.00000000   0.665E-07       0.001       32.256   0.100E-07
     Final TRS4 iteration    8 1.00000000   0.665E-07
     Chemical potential (mu):       0.01325
 
 PAO| energy:  -7.7714503566669153      penalty:   1.1773909237035159E-005
 PAO|LS| Need extra step
 PAO|LS| adapt:  T T F
 PAO|LS| adapt: scan_steps:    0.0000000000000000        1.0010077920514884        0.0000000000000000     
 PAO|LS| adapt: energies:   -7.7714332846835994       -7.7714503566669153        0.0000000000000000     
 PAO| ======================= Iteration:        32 =============================

     Lanczos converged:  T threshold:   0.100E-02
     Est. extremal eigenvalues:    0.275E+01   0.186E+00
     Est. condition number :    0.148E+02
     NS sqrt iter    1 1.00000000   0.703E+00       0.002       41.074
     NS sqrt iter    2 1.00000000   0.327E+00       0.002       63.865
     NS sqrt iter    3 1.00000000   0.730E-01       0.002       65.038
     NS sqrt iter    4 1.00000000   0.163E-02       0.002       64.338
     NS sqrt iter    5 1.00000000   0.364E-07       0.002       41.735
     Final NS sqrt iter    5 1.00000000   0.319E-08

     Est. extremal eigenvalues     -0.93515     1.65769  converged:  T
     TRS4 it   1 1.00000000   0.862E+00       0.001       16.128   0.100E-07
     TRS4 it   2 1.00000000   0.604E+00       0.001       32.256   0.100E-07
     TRS4 it   3 1.00000000   0.407E+00       0.001       32.256   0.100E-07
     TRS4 it   4 1.00000000   0.201E+00       0.001       32.256   0.100E-07
     TRS4 it   5 1.00000000   0.616E-01       0.001       32.256   0.100E-07
     TRS4 it   6 1.00000000   0.726E-02       0.001       32.256   0.100E-07
     TRS4 it   7 1.00000000   0.134E-03       0.001       32.256   0.100E-07
     TRS4 it   8 1.00000000   0.631E-07       0.001       32.256   0.100E-07
     Final TRS4 iteration    8 1.00000000   0.631E-07
     Chemical potential (mu):       0.01373
 
 PAO| energy:  -7.7714373016798017      penalty:   1.0214756440364351E-005
 PAO|LS| Need extra step
 PAO|LS| adapt:  T T T
 PAO|LS| adapt: scan_steps:    0.0000000000000000        1.0010077920514884        2.0020155841029768     
 PAO|LS| adapt: energies:   -7.7714332846835994       -7.7714503566669153       -7.7714373016798017     
 PAO|LS| adapt: suggested step_size:    1.0677427548084397     
 PAO|LS| adapt: predicted energy  -7.7714504236179653     
 PAO| ======================= Iteration:        33 =============================

     Lanczos converged:  T threshold:   0.100E-02
     Est. extremal eigenvalues:    0.275E+01   0.186E+00
     Est. condition number :    0.148E+02
     NS sqrt iter    1 1.00000000   0.703E+00       0.002       41.768
     NS sqrt iter    2 1.00000000   0.327E+00       0.002       64.106
     NS sqrt iter    3 1.00000000   0.732E-01       0.002       64.483
     NS sqrt iter    4 1.00000000   0.164E-02       0.002       64.860
     NS sqrt iter    5 1.00000000   0.363E-07       0.002       40.931
     Final NS sqrt iter    5 1.00000000   0.335E-08

     Est. extremal eigenvalues     -0.93515     1.65750  converged:  T
     TRS4 it   1 1.00000000   0.862E+00       0.001       16.128   0.100E-07
     TRS4 it   2 1.00000000   0.604E+00       0.001       32.256   0.100E-07
     TRS4 it   3 1.00000000   0.408E+00       0.001       32.256   0.100E-07
     TRS4 it   4 1.00000000   0.202E+00       0.001       32.256   0.100E-07
     TRS4 it   5 1.00000000   0.619E-01       0.001       32.256   0.100E-07
     TRS4 it   6 1.00000000   0.733E-02       0.001       32.256   0.100E-07
     TRS4 it   7 1.00000000   0.137E-03       0.001       32.256   0.100E-07
     TRS4 it   8 1.00000000   0.663E-07       0.001       32.256   0.100E-07
     Final TRS4 iteration    8 1.00000000   0.663E-07
     Chemical potential (mu):       0.01328
 
 PAO| energy:  -7.7714504234794974      penalty:   1.1666115751001067E-005
 PAO|CG| trace_G_new    8.1096977336285412E-005
 PAO|CG| trace_G_prev    3.2092763276927953E-005
 PAO|CG| trace_G_mix    8.2743999198360835E-008
 PAO|CG| trace_D    5.1155627546156364E-005
 PAO|CG| trace_D_Gnew   6.5199953336747229E-009
 PAO|CG| beta:    2.5243769954620765     
 PAO| norm of gradient:   9.0053860181718709E-003
 PAO| energy improvement:  -1.7138795898041792E-005
 PAO| step     33                   -7.771450423  0.563E-03  0.107E+01     0.125
 PAO|LS| adapt:  T F F
 PAO|LS| adapt: scan_steps:    0.0000000000000000        0.0000000000000000        0.0000000000000000     
 PAO|LS| adapt: energies:   -7.7714504234794974        0.0000000000000000        0.0000000000000000     
 PAO| ======================= Iteration:        34 =============================

     Lanczos converged:  T threshold:   0.100E-02
     Est. extremal eigenvalues:    0.275E+01   0.185E+00
     Est. condition number :    0.149E+02
     NS sqrt iter    1 1.00000000   0.701E+00       0.002       41.031
     NS sqrt iter    2 1.00000000   0.326E+00       0.002       64.415
     NS sqrt iter    3 1.00000000   0.726E-01       0.002       62.947
[...]

     Lanczos converged:  T threshold:   0.100E-02
     Est. extremal eigenvalues:    0.253E+01   0.190E+00
     Est. condition number :    0.133E+02
     NS sqrt iter    1 1.00000000   0.639E+00       0.002       42.995
     NS sqrt iter    2 1.00000000   0.279E+00       0.002       68.626
     NS sqrt iter    3 1.00000000   0.499E-01       0.002       68.033
     NS sqrt iter    4 1.00000000   0.816E-03       0.002       69.176
     NS sqrt iter    5 1.00000000   0.713E-08       0.001       28.642
     Final NS sqrt iter    5 1.00000000   0.422E-09

     Est. extremal eigenvalues     -0.93487     1.63335  converged:  T
     TRS4 it   1 1.00000000   0.880E+00       0.001       16.128   0.100E-07
     TRS4 it   2 1.00000000   0.632E+00       0.001       32.256   0.100E-07
     TRS4 it   3 1.00000000   0.454E+00       0.001       32.256   0.100E-07
     TRS4 it   4 1.00000000   0.277E+00       0.001       32.256   0.100E-07
     TRS4 it   5 1.00000000   0.136E+00       0.001       32.256   0.100E-07
     TRS4 it   6 1.00000000   0.419E-01       0.001       27.663   0.100E-07
     TRS4 it   7 1.00000000   0.550E-02       0.001       32.256   0.100E-07
     TRS4 it   8 1.00000000   0.128E-03       0.001       32.256   0.100E-07
     TRS4 it   9 1.00000000   0.731E-07       0.001       32.256   0.100E-07
     Final TRS4 iteration    9 1.00000000   0.731E-07
     Chemical potential (mu):      -0.07140
 
 PAO| energy:  -7.7711013899701982      penalty:   2.1427959989349059E-008
 PAO|LS| Need extra step
 PAO|LS| adapt:  T T T
 PAO|LS| adapt: scan_steps:    0.0000000000000000       0.20000000000000001       0.40000000000000002     
 PAO|LS| adapt: energies:   -7.7711013870208463       -7.7711013919331444       -7.7711013899701982     
 PAO|LS| adapt: suggested step_size:   0.24289813879300137     
 PAO|LS| adapt: predicted energy  -7.7711013920912961     
 PAO| ======================= Iteration:       420 =============================

     Lanczos converged:  T threshold:   0.100E-02
     Est. extremal eigenvalues:    0.253E+01   0.190E+00
     Est. condition number :    0.133E+02
     NS sqrt iter    1 1.00000000   0.639E+00       0.002       41.980
     NS sqrt iter    2 1.00000000   0.279E+00       0.002       60.655
     NS sqrt iter    3 1.00000000   0.499E-01       0.002       68.127
     NS sqrt iter    4 1.00000000   0.816E-03       0.002       69.330
     NS sqrt iter    5 1.00000000   0.713E-08       0.001       29.276
     Final NS sqrt iter    5 1.00000000   0.422E-09

     Est. extremal eigenvalues     -0.93487     1.63335  converged:  T
     TRS4 it   1 1.00000000   0.880E+00       0.001       16.128   0.100E-07
     TRS4 it   2 1.00000000   0.632E+00       0.001       28.279   0.100E-07
     TRS4 it   3 1.00000000   0.454E+00       0.001       32.256   0.100E-07
     TRS4 it   4 1.00000000   0.277E+00       0.001       32.256   0.100E-07
     TRS4 it   5 1.00000000   0.136E+00       0.001       32.256   0.100E-07
     TRS4 it   6 1.00000000   0.419E-01       0.001       32.256   0.100E-07
     TRS4 it   7 1.00000000   0.550E-02       0.001       31.528   0.100E-07
     TRS4 it   8 1.00000000   0.128E-03       0.001       26.429   0.100E-07
     TRS4 it   9 1.00000000   0.731E-07       0.001       28.871   0.100E-07
     Final TRS4 iteration    9 1.00000000   0.731E-07
     Chemical potential (mu):      -0.07140
 
 PAO| energy:  -7.7711013920913041      penalty:   2.1702376039119315E-008
 PAO|CG| warming up with steepest descent
 PAO|CG| beta:    0.0000000000000000     
 PAO| norm of gradient:   1.2540745906952506E-004
 PAO| energy improvement:  -5.0704578313798265E-009
 PAO| step    420                   -7.771101392  0.784E-05  0.243E+00     0.105
 PAO| converged after          420  steps :-)
 PAO| Recalculating energy after mixing.

     Lanczos converged:  T threshold:   0.100E-02
     Est. extremal eigenvalues:    0.253E+01   0.190E+00
     Est. condition number :    0.133E+02
     NS sqrt iter    1 1.00000000   0.639E+00       0.002       39.473
     NS sqrt iter    2 1.00000000   0.279E+00       0.002       63.840
     NS sqrt iter    3 1.00000000   0.499E-01       0.002       65.593
     NS sqrt iter    4 1.00000000   0.816E-03       0.002       59.585
     NS sqrt iter    5 1.00000000   0.713E-08       0.001       26.918
     Final NS sqrt iter    5 1.00000000   0.422E-09

     Est. extremal eigenvalues     -0.93487     1.63335  converged:  T
     TRS4 it   1 1.00000000   0.880E+00       0.001       16.128   0.100E-07
     TRS4 it   2 1.00000000   0.632E+00       0.001       32.256   0.100E-07
     TRS4 it   3 1.00000000   0.454E+00       0.001       32.256   0.100E-07
     TRS4 it   4 1.00000000   0.277E+00       0.001       30.234   0.100E-07
     TRS4 it   5 1.00000000   0.136E+00       0.001       32.256   0.100E-07
     TRS4 it   6 1.00000000   0.419E-01       0.001       32.256   0.100E-07
     TRS4 it   7 1.00000000   0.550E-02       0.001       32.256   0.100E-07
     TRS4 it   8 1.00000000   0.128E-03       0.001       32.256   0.100E-07
     TRS4 it   9 1.00000000   0.731E-07       0.001       23.366   0.100E-07
     Final TRS4 iteration    9 1.00000000   0.731E-07
     Chemical potential (mu):      -0.07140
 
 PAO| energy:  -7.7711013908236728      penalty:   2.1915708397975014E-008
 PAO| Writing restart file.
     Est. extremal eigenvalues     -0.93487     1.63335  converged:  T
     TRS4 it   1 1.00000000   0.880E+00       0.001       16.128   0.100E-07
     TRS4 it   2 1.00000000   0.632E+00       0.001       32.256   0.100E-07
     TRS4 it   3 1.00000000   0.454E+00       0.001       32.256   0.100E-07
     TRS4 it   4 1.00000000   0.277E+00       0.001       32.256   0.100E-07
     TRS4 it   5 1.00000000   0.136E+00       0.001       32.256   0.100E-07
     TRS4 it   6 1.00000000   0.419E-01       0.001       32.256   0.100E-07
     TRS4 it   7 1.00000000   0.550E-02       0.001       32.256   0.100E-07
     TRS4 it   8 1.00000000   0.128E-03       0.001       32.256   0.100E-07
     TRS4 it   9 1.00000000   0.731E-07       0.001       32.256   0.100E-07
     Final TRS4 iteration    9 1.00000000   0.731E-07
     Chemical potential (mu):      -0.07140

 SCF     1       -34.450298631       -34.450298631    2.408920

*********************************************************
 Using MIXING_FRACTION=0.450 to mix KS matrix:  iscf=  2
 KS_nw=0.450*KS + 0.550*KS_old
*********************************************************
     Est. extremal eigenvalues     -0.93487     1.63335  converged:  T
     TRS4 it   1 1.00000000   0.880E+00       0.001       16.128   0.100E-07
     TRS4 it   2 1.00000000   0.632E+00       0.001       32.256   0.100E-07
     TRS4 it   3 1.00000000   0.454E+00       0.001       32.256   0.100E-07
     TRS4 it   4 1.00000000   0.277E+00       0.001       32.256   0.100E-07
     TRS4 it   5 1.00000000   0.136E+00       0.001       28.353   0.100E-07
     TRS4 it   6 1.00000000   0.419E-01       0.001       32.256   0.100E-07
     TRS4 it   7 1.00000000   0.550E-02       0.001       32.256   0.100E-07
     TRS4 it   8 1.00000000   0.128E-03       0.001       32.256   0.100E-07
     TRS4 it   9 1.00000000   0.731E-07       0.001       32.256   0.100E-07
     Final TRS4 iteration    9 1.00000000   0.731E-07
     Chemical potential (mu):      -0.07140

 SCF     2       -34.450298631        -0.000000000    2.206765

 PAO| Storing density matrix for ASPC guess in slot:           1

 ENERGY| Total FORCE_EVAL ( QS ) energy (a.u.):              -34.450298630859585


 -------------------------------------------------------------------------------
 -                                                                             -
 -                                DBCSR STATISTICS                             -
 -                                                                             -
 -------------------------------------------------------------------------------
 COUNTER                                    TOTAL       BLAS       SMM       ACC
 flops     5 x     5 x     4                20000     100.0%      0.0%      0.0%
 flops    13 x     5 x     4                20800     100.0%      0.0%      0.0%
 flops     5 x    13 x     4                20800     100.0%      0.0%      0.0%
 flops    13 x    13 x     4                40560     100.0%      0.0%      0.0%
 flops     4 x     4 x     5              3298560     100.0%      0.0%      0.0%
 flops     5 x     4 x     5              4035200     100.0%      0.0%      0.0%
 flops     4 x     4 x    13              4288128     100.0%      0.0%      0.0%
 flops    13 x     4 x     5              5245760     100.0%      0.0%      0.0%
 flops     5 x     4 x    13              5245760     100.0%      0.0%      0.0%
 flops    13 x     4 x    13              6819488     100.0%      0.0%      0.0%
 flops     5 x     4 x     4              6870080     100.0%      0.0%      0.0%
 flops    13 x     4 x     4              9328384     100.0%      0.0%      0.0%
 flops     4 x     4 x     4            419133568     100.0%      0.0%      0.0%
 flops inhomo. stacks                           0       0.0%      0.0%      0.0%
 flops total                       464.367088E+06     100.0%      0.0%      0.0%
 flops max/rank                    464.367088E+06     100.0%      0.0%      0.0%
 matmuls inhomo. stacks                         0       0.0%      0.0%      0.0%
 matmuls total                            3416373     100.0%      0.0%      0.0%
 number of processed stacks                 27303     100.0%      0.0%      0.0%
 average stack size                                   125.1       0.0       0.0
 marketing flops                   753.110592E+06
 -------------------------------------------------------------------------------
 # multiplications                          22676
 max memory usage/rank             328.585216E+06
 # max total images/rank                        1
 # max 3D layers                                1
 # MPI messages exchanged                       0
 MPI messages size (bytes):
  total size                         0.000000E+00
  min size                           0.000000E+00
  max size                           0.000000E+00
  average size                       0.000000E+00
 MPI breakdown and total messages size (bytes):
             size <=      128                   0                        0
       128 < size <=     8192                   0                        0
      8192 < size <=    32768                   0                        0
     32768 < size <=   131072                   0                        0
    131072 < size <=  4194304                   0                        0
   4194304 < size <= 16777216                   0                        0
  16777216 < size                               0                        0
 -------------------------------------------------------------------------------

 MEMORY| Estimated peak process memory [MiB]                                 314

 -------------------------------------------------------------------------------
 -                                                                             -
 -                           R E F E R E N C E S                               -
 -                                                                             -
 -------------------------------------------------------------------------------
 
 CP2K version 7.0 (Development Version), the CP2K developers group (2018).
 CP2K is freely available from https://www.cp2k.org/ .

 Schuett, O; VandeVondele, J. 
 Journal of Chemical Theory and Computation, 14, (2018). 
 Machine Learning Adaptive Basis Sets for Efficient Large Scale Density Functional Theory Simulation.
 https://dx.doi.org/10.1021/acs.jctc.8b00378


 Schuett, Ole; Messmer, Peter; Hutter, Juerg; VandeVondele, Joost. 
 Electronic Structure Calculations on Graphics Processing Units, John Wiley & Sons, Ltd, 173-190 (2016). 
 GPU-Accelerated Sparse Matrix-Matrix Multiplication for Linear Scaling Density Functional Theory.
 https://dx.doi.org/10.1002/9781118670712.ch8


 Borstnik, U; VandeVondele, J; Weber, V; Hutter, J. 
 PARALLEL COMPUTING, 40 (5-6), 47-58 (2014). 
 Sparse matrix multiplication: The distributed block-compressed sparse
 row library.
 https://dx.doi.org/10.1016/j.parco.2014.03.012


 Hutter, J; Iannuzzi, M; Schiffmann, F; VandeVondele, J. 
 WILEY INTERDISCIPLINARY REVIEWS-COMPUTATIONAL MOLECULAR SCIENCE, 4 (1), 15-25 (2014). 
 CP2K: atomistic simulations of condensed matter systems.
 https://dx.doi.org/10.1002/wcms.1159


 VandeVondele, J; Borstnik, U; Hutter, J. 
 JOURNAL OF CHEMICAL THEORY AND COMPUTATION, 8 (10), 3565-3573 (2012). 
 Linear Scaling Self-Consistent Field Calculations with Millions of Atoms
 in the Condensed Phase.
 https://dx.doi.org/10.1021/ct200897x


 VandeVondele, J; Hutter, J. 
 JOURNAL OF CHEMICAL PHYSICS, 127 (11), 114105 (2007). 
 Gaussian basis sets for accurate calculations on molecular systems in
 gas and condensed phases.
 https://dx.doi.org/10.1063/1.2770708


 Krack, M. 
 THEORETICAL CHEMISTRY ACCOUNTS, 114 (1-3), 145-152 (2005). 
 Pseudopotentials for H to Kr optimized for gradient-corrected
 exchange-correlation functionals.
 https://dx.doi.org/10.1007/s00214-005-0655-y


 VandeVondele, J; Krack, M; Mohamed, F; Parrinello, M; Chassaing, T;
 Hutter, J. COMPUTER PHYSICS COMMUNICATIONS, 167 (2), 103-128 (2005). 
 QUICKSTEP: Fast and accurate density functional calculations using a
 mixed Gaussian and plane waves approach.
 https://dx.doi.org/10.1016/j.cpc.2004.12.014


 Frigo, M; Johnson, SG. 
 PROCEEDINGS OF THE IEEE, 93 (2), 216-231 (2005). 
 The design and implementation of FFTW3.
 https://dx.doi.org/10.1109/JPROC.2004.840301


 Niklasson, AMN; Tymczak, CJ; Challacombe, M. 
 JOURNAL OF CHEMICAL PHYSICS, 118 (19), 8611-8620 (2003). 
 Trace resetting density matrix purification in O(N)
 self-consistent-field theory.
 https://dx.doi.org/10.1063/1.1559913


 Hartwigsen, C; Goedecker, S; Hutter, J. 
 PHYSICAL REVIEW B, 58 (7), 3641-3662 (1998). 
 Relativistic separable dual-space Gaussian pseudopotentials from H to Rn.
 https://dx.doi.org/10.1103/PhysRevB.58.3641


 Lippert, G; Hutter, J; Parrinello, M. 
 MOLECULAR PHYSICS, 92 (3), 477-487 (1997). 
 A hybrid Gaussian and plane wave density functional scheme.
 https://dx.doi.org/10.1080/002689797170220


 Perdew, JP; Burke, K; Ernzerhof, M. 
 PHYSICAL REVIEW LETTERS, 77 (18), 3865-3868 (1996). 
 Generalized gradient approximation made simple.
 https://dx.doi.org/10.1103/PhysRevLett.77.3865


 Goedecker, S; Teter, M; Hutter, J. 
 PHYSICAL REVIEW B, 54 (3), 1703-1710 (1996). 
 Separable dual-space Gaussian pseudopotentials.
 https://dx.doi.org/10.1103/PhysRevB.54.1703


 -------------------------------------------------------------------------------
 -                                                                             -
 -                                T I M I N G                                  -
 -                                                                             -
 -------------------------------------------------------------------------------
 SUBROUTINE                       CALLS  ASD         SELF TIME        TOTAL TIME
                                MAXIMUM       AVERAGE  MAXIMUM  AVERAGE  MAXIMUM
 CP2K                                 1  1.0    0.029    0.029   35.342   35.342
 qs_energies                          1  2.0    0.000    0.000   34.850   34.850
 ls_scf                               1  3.0    0.000    0.000   34.705   34.705
 ls_scf_main                          4  4.0    0.001    0.001   21.045   21.045
 ls_scf_dm_to_ks                      9  5.0    0.000    0.000   20.933   20.933
 qs_ks_update_qs_env                 10  6.0    0.000    0.000   16.339   16.339
 rebuild_ks_matrix                   10  7.0    0.000    0.000   16.339   16.339
 qs_ks_build_kohn_sham_matrix        10  8.0    0.001    0.001   16.339   16.339
 pao_update                           4  4.0    0.012    0.012   11.460   11.460
 pao_calc_energy                    423  5.0    0.005    0.005   10.293   10.293
 qs_vxc_create                       10  9.0    0.000    0.000    9.729    9.729
 xc_vxc_pw_create                    10 10.0    0.121    0.121    9.729    9.729
 dbcsr_multiply_generic           22676  8.4    0.534    0.534    8.798    8.798
 xc_rho_set_and_dset_create          10 11.0    0.035    0.035    6.999    6.999
 qs_rho_update_rho                   10  6.0    0.000    0.000    6.712    6.712
 calculate_rho_elec                  10  7.0    5.390    5.390    6.712    6.712
 pw_transfer                        191 10.6    0.025    0.025    6.669    6.669
 fft_wrap_pw1pw2                    171 11.7    0.002    0.002    6.569    6.569
 fft_wrap_pw1pw2_200                111 12.8    0.339    0.339    6.288    6.288
 sum_up_and_integrate                10  9.0    0.022    0.022    5.642    5.642
 integrate_v_rspace                  10 10.0    4.802    4.802    5.620    5.620
 pao_dm_trs4                        423  6.0    0.004    0.004    5.234    5.234
 ls_scf_init_matrix_S               427  7.0    0.004    0.004    5.054    5.054
 density_matrix_trs4                432  7.0    0.192    0.192    5.035    5.035
 pao_rebuild_S                      423  6.0    0.003    0.003    5.009    5.009
 xc_functional_eval                  10 12.0    0.000    0.000    4.990    4.990
 pbe_lda_eval                        10 13.0    4.990    4.990    4.990    4.990
 matrix_sqrt_Newton_Schulz          427  8.0    0.127    0.127    4.566    4.566
 multiply_cannon                  22676  9.4    1.388    1.388    4.145    4.145
 fft3d_s                            172 13.6    3.562    3.562    3.575    3.575
 make_m2s                         45352  9.4    0.204    0.204    2.805    2.805
 make_images                      45352 10.4    0.665    0.665    2.473    2.473
 pao_guess_initial_P                  1  4.0    0.000    0.000    2.124    2.124
 pao_read_preopt_dm                   1  5.0    0.000    0.000    2.124    2.124
 multiply_cannon_multrec          22676 10.4    1.484    1.484    1.620    1.620
 pw_gather_s                         81 13.1    1.556    1.556    1.556    1.556
 density_rs2pw                       10  8.0    0.001    0.001    1.308    1.308
 arnoldi_extremal                   859  8.5    0.005    0.005    1.288    1.288
 arnoldi_normal_ev                  859  9.5    0.015    0.015    1.283    1.283
 pao_calc_AB                        558  5.8    0.001    0.001    1.144    1.144
 pao_calc_AB_direct                 558  6.8    0.032    0.032    1.143    1.143
 pw_scatter_s                        90 14.2    1.084    1.084    1.084    1.084
 pao_calc_grad_lnv_wrt_AB           134  7.0    0.009    0.009    1.077    1.077
 build_subspace                     859 10.5    0.066    0.066    0.952    0.952
 dbcsr_matrix_vector_mult         20590 11.5    0.130    0.130    0.858    0.858
 potential_pw2rs                     10 11.0    0.003    0.003    0.816    0.816
 dbcsr_finalize                   53509  9.6    0.130    0.130    0.812    0.812
 dbcsr_create_new                173480 10.7    0.391    0.391    0.750    0.750
 -------------------------------------------------------------------------------

 The number of warnings for this run is : 0
 
 -------------------------------------------------------------------------------
  **** **** ******  **  PROGRAM ENDED AT                 2019-03-28 17:34:06.782
 ***** ** ***  *** **   PROGRAM RAN ON            oleschuett.zrh.corp.google.com
 **    ****   ******    PROGRAM RAN BY                                oleschuett
 ***** **    ** ** **   PROGRAM PROCESS ID                                 34376
  **** **  *******  **  PROGRAM STOPPED IN /usr/local/google/home/oleschuett/git
                                           /pao_ml_equivar/2H2O_rotations/rand_0
                                           2
