6
Properties=species:S:1:pos:R:3 i=0 time=0.0 E=-34.4504806384 pbc="F F F"
O        3.59344446      -5.33696823       1.19955754
H        4.10573679      -4.78393246       0.60039395
H        2.93709900      -4.75216658       1.59115257
O        2.19307746      -7.46888963      -0.37936026
H        2.43803552      -8.34340253      -0.06416552
H        2.68517453      -6.84671764       0.17846721
