6
Properties=species:S:1:pos:R:3 i=0 time=0.0 E=-34.4504806384 pbc="F F F"
O      -1.14930140      -1.00671333      -6.36401177 
H      -0.82236637      -0.10502330      -6.27823549 
H      -0.88554586      -1.45386384      -5.55369181 
O      -4.14416282      -0.95903935      -6.53023532 
H      -4.44770514      -1.37857267      -7.34016053 
H      -3.17650163      -1.01682827      -6.55709180 
