 DBCSR| CPU Multiplication driver                                           XSMM (U)
 DBCSR| Multrec recursion limit                                              512 (U)
 DBCSR| Multiplication stack size                                           1000 (D)
 DBCSR| Maximum elements for images                                    UNLIMITED (U)
 DBCSR| Multiplicative factor virtual images                                   1 (U)
 DBCSR| Use multiplication densification                                       T (D)
 DBCSR| Multiplication size stacks                                             3 (U)
 DBCSR| Use memory pool for CPU allocation                                     F (U)
 DBCSR| OMP: Current number of threads                                         1
 DBCSR| OMP: Max number of threads                                             1
 DBCSR| Split modifier for TAS multiplication algorithm                  1.0E+00 (U)


  **** **** ******  **  PROGRAM STARTED AT               2023-02-01 10:47:55.442
 ***** ** ***  *** **   PROGRAM STARTED ON                                moritz
 **    ****   ******    PROGRAM STARTED BY                                   ole
 ***** **    ** ** **   PROGRAM PROCESS ID                                148744
  **** **  *******  **  PROGRAM STARTED IN /home/ole/git/pao_ml_equivar/2H2O_MD/
                                           frame_0925

 CP2K| version string:                 CP2K version 2023.1 (Development Version)
 CP2K| source code revision number:                                  git:03b4147
 CP2K| cp2kflags: omp libint fftw3 libxc quip xsmm spglib libvori libbqb libtorc
 CP2K|            h
 CP2K| is freely available from                            https://www.cp2k.org/
 CP2K| Program compiled at                           Mi 01 Feb 2023 10:36:52 CET
 CP2K| Program compiled on                                                moritz
 CP2K| Program compiled for                                                local
 CP2K| Data directory path                               /home/ole/git/cp2k/data
 CP2K| Input file name                                            2H2O_pao44.inp

 GLOBAL| Force Environment number                                              1
 GLOBAL| Basis set file name                                        BASIS_MOLOPT
 GLOBAL| Potential file name                                      GTH_POTENTIALS
 GLOBAL| MM Potential file name                                     MM_POTENTIAL
 GLOBAL| Coordinate file name                                         coords.xyz
 GLOBAL| Method name                                                        CP2K
 GLOBAL| Project name                                                 2H2O_pao44
 GLOBAL| Run type                                                         ENERGY
 GLOBAL| FFT library                                                       FFTW3
 GLOBAL| Diagonalization library                                       ScaLAPACK
 GLOBAL| DGEMM library                                                      BLAS
 GLOBAL| Orthonormality check for eigenvectors                          DISABLED
 GLOBAL| Matrix multiplication library                                 ScaLAPACK
 GLOBAL| All-to-all communication in single precision                          F
 GLOBAL| FFTs using library dependent lengths                                  F
 GLOBAL| Grid backend                                                       AUTO
 GLOBAL| Global print level                                                  LOW
 GLOBAL| MPI I/O enabled                                                       T
 GLOBAL| Total number of message passing processes                             1
 GLOBAL| Number of threads for this process                                    1
 GLOBAL| This output is from process                                           0
 GLOBAL| Stack size for threads created by OpenMP (OMP_STACKSIZE)        default
 GLOBAL| CPU model name           AMD Ryzen Threadripper 3970X 32-Core Processor
 GLOBAL| CPUID                                                              1002
 GLOBAL| Compiled for CPUID                                                    0

 *** HINT in environment.F:884 :: The compiler target flags (generic) used ***
 *** to build this binary cannot exploit all extensions of this CPU model  ***
 *** (x86_avx2). Consider compiler target flags as part of FCFLAGS and     ***
 *** CFLAGS (ARCH file).                                                   ***


 MEMORY| system memory details [Kb]
 MEMORY|                        rank 0           min           max       average
 MEMORY| MemTotal            131773860     131773860     131773860     131773860
 MEMORY| MemFree             110569996     110569996     110569996     110569996
 MEMORY| Buffers                302624        302624        302624        302624
 MEMORY| Cached                7056636       7056636       7056636       7056636
 MEMORY| Slab                   780228        780228        780228        780228
 MEMORY| SReclaimable           332704        332704        332704        332704
 MEMORY| MemLikelyFree       118261960     118261960     118261960     118261960


 GENERATE|  Preliminary Number of Bonds generated:                             0
 GENERATE|  Achieved consistency in connectivity generation.

 *******************************************************************************
 *******************************************************************************
 **                                                                           **
 **     #####                         ##              ##                      **
 **    ##   ##            ##          ##              ##                      **
 **   ##     ##                       ##            ######                    **
 **   ##     ##  ##   ##  ##   #####  ##  ##   ####   ##    #####    #####    **
 **   ##     ##  ##   ##  ##  ##      ## ##   ##      ##   ##   ##  ##   ##   **
 **   ##  ## ##  ##   ##  ##  ##      ####     ###    ##   ######   ######    **
 **    ##  ###   ##   ##  ##  ##      ## ##      ##   ##   ##       ##        **
 **     #######   #####   ##   #####  ##  ##  ####    ##    #####   ##        **
 **           ##                                                    ##        **
 **                                                                           **
 **                                                ... make the atoms dance   **
 **                                                                           **
 **            Copyright (C) by CP2K developers group (2000-2023)             **
 **                      J. Chem. Phys. 152, 194103 (2020)                    **
 **                                                                           **
 *******************************************************************************


 TOTAL NUMBERS AND MAXIMUM NUMBERS

  Total number of            - Atomic kinds:                                   2
                             - Atoms:                                          6
                             - Shell sets:                                     6
                             - Shells:                                        22
                             - Primitive Cartesian functions:                 42
                             - Cartesian basis functions:                     48
                             - Spherical basis functions:                     46

  Maximum angular momentum of- Orbital basis functions:                        2
                             - Local part of the GTH pseudopotential:          2
                             - Non-local part of the GTH pseudopotential:      0

 ------------------------------ Linear scaling SCF -----------------------------
 eps_scf:                                                              0.100E-07
 eps_filter:                                                           0.100E-07
 mixing_fraction:                                                      0.450E+00
 max_scf:                                                                     25
 fixed chemical potential (mu)                                                 F
 has unit metric:                                                              F
 Computing inv(S):                                                             T
 Computing sqrt(S):                                                            T
 Computing S preconditioner                                                    F
 S sqrt method:                                                     NEWTONSCHULZ
 S sqrt order:                                                                 3
 Extrapolation order:                                                          1
 Use single precision matrices                                                 F
 S preconditioner type                                                      NONE
 Polarized Atomic Orbitals (PAO)                                               T
 Purification method                                   Trace resetting 4th order
 Cluster type                                                             ATOMIC
 Computing Chebyshev                                                       FALSE
 Using PAO                                                                     T
 -------------------------------------------------------------------------------

 
 PAO|                                  EPS_PAO                           0.5E-06
 PAO|                                  MIXING                            0.5E+00
 PAO|                                  MAX_PAO                              1500
 PAO|                                  MAX_CYCLES                           1000
 PAO|                                  PARAMETERIZATION              EQUIVARIANT
 PAO|                                  PRECONDITION                            F
 PAO|                                  REGULARIZATION                    0.0E+00
 PAO|                                  EPS_PGF                           0.1E-09
 PAO|                                  PENALTY_DISTANCE                  0.1E+00
 PAO|                                  PENALTY_STRENGTH                  0.5E-02
 PAO|                                  LINPOT_PRECONDITION_DELTA         0.0E+00
 PAO|                                  LINPOT_INITGUESS_DELT             0.0E+00
 PAO|                                  LINPOT_REGULARIZATION_DELTA       0.0E+00
 PAO|                                  LINPOT_REGULARIZATION_STRENGTH    0.0E+00
 PAO|                                  OPTIMIZER                              CG
 PAO|                                  CG_INIT_STEPS                           2
 PAO|                                  CG_RESET_LIMIT                    0.1E+00
 PAO|                                  CHECK_UNITARY_TOL                -0.1E+01
 PAO|                                  CHECK_GRADIENT_TOL               -0.1E+01
 PAO|                                  NUM_GRADIENT_ORDER                      2
 PAO|                                  NUM_GRADIENT_EPS                  0.1E-07
 PAO|                                  PRINT%RESTART%WRITE_CYCLES            100
 PAO|                                  RESTART_FILE 
 PAO|                                  PREOPT_DM_FILE 2H2O_ref_LS_DM_SPIN_1_RESTART.dm
 PAO|                                  MACHINE_LEARNING%METHOD       GAUSSIAN_PR
 PAO|                                  MACHINE_LEARNING%PRIOR               ZERO
 PAO|                                  MACHINE_LEARNING%DESCRIPTOR     POTENTIAL
 PAO|                                  MACHINE_LEARNING%TOLERANCE        0.1E-01
 PAO|                                  MACHINE_LEARNING%GP_NOISE_VAR     0.1E+00
 PAO|                                  MACHINE_LEARNING%GP_SCALE         0.5E-01
 

 Calculating atomic Fock matrix for atomic kind: O

 Electronic structure
    Total number of core electrons                                          2.00
    Total number of valence electrons                                       6.00
    Total number of electrons                                               8.00
    Multiplicity                                                   not specified
    S   [  2.00] 2.00
    P      4.00


 *******************************************************************************
                  Iteration          Convergence                     Energy [au]
 *******************************************************************************
                          1        0.708315                     -15.576645311500
                          2        0.608879                     -15.587933561584
                          3        0.102828E-01                 -15.656849565404
                          4        0.113889E-02                 -15.656866888140
                          5        0.434197E-03                 -15.656867072159
                          6        0.263771E-03                 -15.656867091904
                          7        0.478536E-06                 -15.656867103452

 Energy components [Hartree]           Total Energy ::          -15.656867103452
                                        Band Energy ::           -3.000198112285
                                     Kinetic Energy ::           11.759971203220
                                   Potential Energy ::          -27.416838306672
                                      Virial (-V/T) ::            2.331369510426
                                        Core Energy ::          -26.140716385623
                                          XC Energy ::           -3.154051012914
                                     Coulomb Energy ::           13.637900295084
                       Total Pseudopotential Energy ::          -37.935781716540
                       Local Pseudopotential Energy ::          -39.218907440693
                    Nonlocal Pseudopotential Energy ::            1.283125724153
                                        Confinement ::            0.350941276976

 Orbital energies  State     L     Occupation   Energy[a.u.]          Energy[eV]

                       1     0          2.000      -0.864471          -23.523463

                       1     1          4.000      -0.317814           -8.648154


 Total Electron Density at R=0:                                         0.000068

 Calculating atomic Fock matrix for atomic kind: H

 Electronic structure
    Total number of core electrons                                          0.00
    Total number of valence electrons                                       1.00
    Total number of electrons                                               1.00
    Multiplicity                                                   not specified
    S      1.00


 *******************************************************************************
                  Iteration          Convergence                     Energy [au]
 *******************************************************************************
                          1        0.437545E-02                  -0.424159432110
                          2        0.531356E-03                  -0.424178438213
                          3        0.259176E-06                  -0.424178722480

 Energy components [Hartree]           Total Energy ::           -0.424178722480
                                        Band Energy ::           -0.199015229016
                                     Kinetic Energy ::            0.464007633961
                                   Potential Energy ::           -0.888186356441
                                      Virial (-V/T) ::            1.914163240935
                                        Core Energy ::           -0.479160803564
                                          XC Energy ::           -0.244352904054
                                     Coulomb Energy ::            0.299334985138
                       Total Pseudopotential Energy ::           -0.962295316385
                       Local Pseudopotential Energy ::           -0.962295316385
                    Nonlocal Pseudopotential Energy ::            0.000000000000
                                        Confinement ::            0.191268788606

 Orbital energies  State     L     Occupation   Energy[a.u.]          Energy[eV]

                       1     0          1.000      -0.199015           -5.415480


 Total Electron Density at R=0:                                         0.242907
 PAO| Made initial guess for matrix_X with norm:   4.8989794855663558     

     Lanczos converged:  T threshold:   0.100E-02
     Est. extremal eigenvalues:    0.330E+01   0.119E+00
     Est. condition number :    0.277E+02

 Order=           3
     NS sqrt iter    1 1.00000000   0.805E+00       0.017        3.707
     NS sqrt iter    2 1.00000000   0.423E+00       0.001      110.267
     NS sqrt iter    3 1.00000000   0.159E+00       0.001      107.629
     NS sqrt iter    4 1.00000000   0.174E-01       0.001      103.202
     NS sqrt iter    5 1.00000000   0.336E-04       0.001       83.968
     Symmetrizing Results
     Final NS sqrt iter    5 1.00000000   0.172E-08

 PAO| Read restart DM 2H2O_ref_LS_DM_SPIN_1_RESTART.dm with checksum:    58.289181730485048     
 PAO| Quickstep energy from restart density:  -34.449044191428193     
 PAO| ======================= Iteration:         1 =============================

     Lanczos converged:  T threshold:   0.100E-02
     Est. extremal eigenvalues:    0.330E+01   0.119E+00
     Est. condition number :    0.277E+02

 Order=           3
     NS sqrt iter    1 1.00000000   0.805E+00       0.001       58.823
     NS sqrt iter    2 1.00000000   0.423E+00       0.001       97.937
     NS sqrt iter    3 1.00000000   0.159E+00       0.001       99.630
     NS sqrt iter    4 1.00000000   0.174E-01       0.001       99.602
     NS sqrt iter    5 1.00000000   0.336E-04       0.001       77.384
     Symmetrizing Results
     Final NS sqrt iter    5 1.00000000   0.172E-08

     Est. extremal eigenvalues     -0.90545     1.80754  converged:  T
     TRS4 it   1 1.00000000   0.882E+00       0.000       16.128   0.100E-07
     TRS4 it   2 1.00000000   0.681E+00       0.001       32.256   0.100E-07
     TRS4 it   3 1.00000000   0.496E+00       0.017        1.928   0.100E-07
     TRS4 it   4 1.00000000   0.315E+00       0.001       32.256   0.100E-07
     TRS4 it   5 1.00000000   0.158E+00       0.001       32.256   0.100E-07
     TRS4 it   6 1.00000000   0.491E-01       0.001       32.256   0.100E-07
     TRS4 it   7 1.00000000   0.637E-02       0.001       32.256   0.100E-07
     TRS4 it   8 1.00000000   0.147E-03       0.001       32.256   0.100E-07
     TRS4 it   9 1.00000000   0.915E-07       0.001       32.256   0.100E-07
     TRS4 it  10 1.00000000   0.381E-13       0.001       32.256   0.100E-07
     Final TRS4 iteration   10 1.00000000   0.381E-13
     Chemical potential (mu):      -0.06941
 
 PAO| energy:  -7.5249534307398829      penalty:   3.4512664603419263E-033
 PAO|CG| warming up with steepest descent
 PAO|CG| beta:    0.0000000000000000     
 PAO| norm of gradient:  0.78108178063415312     
 PAO|LS| adapt:  T F F
 PAO|LS| adapt: scan_steps:    0.0000000000000000        0.0000000000000000        0.0000000000000000     
 PAO|LS| adapt: energies:   -7.5249534307398829        0.0000000000000000        0.0000000000000000     
 PAO| ======================= Iteration:         2 =============================

     Lanczos converged:  T threshold:   0.100E-02
     Est. extremal eigenvalues:    0.322E+01   0.132E+00
     Est. condition number :    0.244E+02

 Order=           3
     NS sqrt iter    1 1.00000000   0.790E+00       0.001       58.126
     NS sqrt iter    2 1.00000000   0.408E+00       0.017        6.429
     NS sqrt iter    3 1.00000000   0.142E+00       0.001       96.461
     NS sqrt iter    4 1.00000000   0.119E-01       0.001       97.840
     NS sqrt iter    5 1.00000000   0.106E-04       0.001       76.969
     Symmetrizing Results
     Final NS sqrt iter    5 1.00000000   0.172E-09

     Est. extremal eigenvalues     -0.90901     1.76426  converged:  T
     TRS4 it   1 1.00000000   0.881E+00       0.000       16.128   0.100E-07
     TRS4 it   2 1.00000000   0.665E+00       0.001       32.256   0.100E-07
     TRS4 it   3 1.00000000   0.480E+00       0.001       32.256   0.100E-07
     TRS4 it   4 1.00000000   0.295E+00       0.001       32.256   0.100E-07
     TRS4 it   5 1.00000000   0.139E+00       0.001       32.256   0.100E-07
     TRS4 it   6 1.00000000   0.378E-01       0.001       32.256   0.100E-07
     TRS4 it   7 1.00000000   0.381E-02       0.001       32.256   0.100E-07
     TRS4 it   8 1.00000000   0.530E-04       0.001       32.256   0.100E-07
     TRS4 it   9 1.00000000   0.120E-07       0.001       32.256   0.100E-07
     Final TRS4 iteration    9 1.00000000   0.120E-07
     Chemical potential (mu):      -0.05756
 
 PAO| energy:  -7.5800507372255570      penalty:   2.2345314542659877E-008
 PAO|LS| adapt:  T T F
 PAO|LS| adapt: scan_steps:    0.0000000000000000       0.10000000000000001        0.0000000000000000     
 PAO|LS| adapt: energies:   -7.5249534307398829       -7.5800507372255570        0.0000000000000000     
 PAO| ======================= Iteration:         3 =============================

     Lanczos converged:  T threshold:   0.100E-02
     Est. extremal eigenvalues:    0.314E+01   0.144E+00
     Est. condition number :    0.219E+02

 Order=           3
     NS sqrt iter    1 1.00000000   0.775E+00       0.017        3.755
     NS sqrt iter    2 1.00000000   0.392E+00       0.001       96.212
     NS sqrt iter    3 1.00000000   0.126E+00       0.001       99.179
     NS sqrt iter    4 1.00000000   0.818E-02       0.001       99.178
     NS sqrt iter    5 1.00000000   0.358E-05       0.001       76.598
     Symmetrizing Results
     Final NS sqrt iter    5 1.00000000   0.204E-10

     Est. extremal eigenvalues     -0.91232     1.73072  converged:  T
     TRS4 it   1 1.00000000   0.880E+00       0.000       16.128   0.100E-07
     TRS4 it   2 1.00000000   0.651E+00       0.001       32.256   0.100E-07
     TRS4 it   3 1.00000000   0.465E+00       0.001       32.256   0.100E-07
     TRS4 it   4 1.00000000   0.275E+00       0.001       32.256   0.100E-07
     TRS4 it   5 1.00000000   0.120E+00       0.001       32.256   0.100E-07
     TRS4 it   6 1.00000000   0.283E-01       0.001       32.256   0.100E-07
     TRS4 it   7 1.00000000   0.213E-02       0.001       32.256   0.100E-07
     TRS4 it   8 1.00000000   0.165E-04       0.001       32.256   0.100E-07
     TRS4 it   9 1.00000000   0.117E-08       0.001       32.256   0.100E-07
     Final TRS4 iteration    9 1.00000000   0.117E-08
     Chemical potential (mu):      -0.04499
 
 PAO| energy:  -7.6226513390767670      penalty:   3.5752504021637992E-007
 PAO|LS| adapt:  T T F
 PAO|LS| adapt: scan_steps:    0.0000000000000000       0.20000000000000001        0.0000000000000000     
 PAO|LS| adapt: energies:   -7.5249534307398829       -7.6226513390767670        0.0000000000000000     
 PAO| ======================= Iteration:         4 =============================

     Lanczos converged:  T threshold:   0.100E-02
     Est. extremal eigenvalues:    0.296E+01   0.161E+00
     Est. condition number :    0.184E+02

 Order=           3
     NS sqrt iter    1 1.00000000   0.741E+00       0.001       64.294
     NS sqrt iter    2 1.00000000   0.360E+00       0.001      110.592
     NS sqrt iter    3 1.00000000   0.981E-01       0.001      110.186
     NS sqrt iter    4 1.00000000   0.400E-02       0.001      110.592
     NS sqrt iter    5 1.00000000   0.534E-06       0.001       82.560
     Symmetrizing Results
     Final NS sqrt iter    5 1.00000000   0.124E-09

     Est. extremal eigenvalues     -0.91738     1.68370  converged:  T
     TRS4 it   1 1.00000000   0.881E+00       0.000       16.128   0.100E-07
     TRS4 it   2 1.00000000   0.627E+00       0.001       32.256   0.100E-07
     TRS4 it   3 1.00000000   0.437E+00       0.001       32.256   0.100E-07
     TRS4 it   4 1.00000000   0.239E+00       0.001       32.256   0.100E-07
     TRS4 it   5 1.00000000   0.886E-01       0.001       32.256   0.100E-07
     TRS4 it   6 1.00000000   0.148E-01       0.001       32.256   0.100E-07
     TRS4 it   7 1.00000000   0.550E-03       0.001       32.256   0.100E-07
     TRS4 it   8 1.00000000   0.108E-05       0.001       32.256   0.100E-07
     TRS4 it   9 1.00000000   0.509E-11       0.001       32.256   0.100E-07
     Final TRS4 iteration    9 1.00000000   0.509E-11
     Chemical potential (mu):      -0.01728
 
 PAO| energy:  -7.6687247602279225      penalty:   5.7204007037328292E-006
 PAO|LS| Need extra step
 PAO|LS| adapt:  T T F
 PAO|LS| adapt: scan_steps:    0.0000000000000000       0.40000000000000002        0.0000000000000000     
 PAO|LS| adapt: energies:   -7.5249534307398829       -7.6687247602279225        0.0000000000000000     
 PAO| ======================= Iteration:         5 =============================

     Lanczos converged:  T threshold:   0.100E-02
     Est. extremal eigenvalues:    0.263E+01   0.188E+00
     Est. condition number :    0.140E+02

 Order=           3
     NS sqrt iter    1 1.00000000   0.680E+00       0.001       64.134
     NS sqrt iter    2 1.00000000   0.300E+00       0.001      110.592
     NS sqrt iter    3 1.00000000   0.602E-01       0.001      109.826
     NS sqrt iter    4 1.00000000   0.111E-02       0.001      110.032
     NS sqrt iter    5 1.00000000   0.149E-07       0.001       45.483
     Symmetrizing Results
     Final NS sqrt iter    5 1.00000000   0.437E-08

     Est. extremal eigenvalues     -0.91811     1.63151  converged:  T
     TRS4 it   1 1.00000000   0.883E+00       0.000       16.128   0.100E-07
     TRS4 it   2 1.00000000   0.595E+00       0.001       32.256   0.100E-07
     TRS4 it   3 1.00000000   0.391E+00       0.001       32.256   0.100E-07
     TRS4 it   4 1.00000000   0.183E+00       0.001       32.256   0.100E-07
     TRS4 it   5 1.00000000   0.481E-01       0.001       32.256   0.100E-07
     TRS4 it   6 1.00000000   0.390E-02       0.001       32.256   0.100E-07
     TRS4 it   7 1.00000000   0.315E-04       0.001       32.256   0.100E-07
     TRS4 it   8 1.00000000   0.274E-08       0.001       32.256   0.100E-07
     Final TRS4 iteration    8 1.00000000   0.274E-08
     Chemical potential (mu):       0.03265
 
 PAO| energy:  -7.6109657608077832      penalty:   9.1526411741893948E-005
 PAO|LS| Need extra step
 PAO|LS| adapt:  T T T
 PAO|LS| adapt: scan_steps:    0.0000000000000000       0.40000000000000002       0.80000000000000004     
 PAO|LS| adapt: energies:   -7.5249534307398829       -7.6687247602279225       -7.6109657608077832     
 PAO|LS| adapt: suggested step_size:   0.48535919187338716     
 PAO|LS| adapt: predicted energy  -7.6733134745940115     
 PAO| ======================= Iteration:         6 =============================

     Lanczos converged:  T threshold:   0.100E-02
     Est. extremal eigenvalues:    0.289E+01   0.168E+00
     Est. condition number :    0.172E+02

 Order=           3
     NS sqrt iter    1 1.00000000   0.726E+00       0.001       58.052
     NS sqrt iter    2 1.00000000   0.346E+00       0.001       98.054
     NS sqrt iter    3 1.00000000   0.881E-01       0.001       96.006
     NS sqrt iter    4 1.00000000   0.300E-02       0.001       98.034
     NS sqrt iter    5 1.00000000   0.250E-06       0.001       74.594
     Symmetrizing Results
     Final NS sqrt iter    5 1.00000000   0.796E-09

     Est. extremal eigenvalues     -0.91868     1.66910  converged:  T
     TRS4 it   1 1.00000000   0.881E+00       0.000       16.128   0.100E-07
     TRS4 it   2 1.00000000   0.619E+00       0.001       32.256   0.100E-07
     TRS4 it   3 1.00000000   0.426E+00       0.001       32.256   0.100E-07
     TRS4 it   4 1.00000000   0.225E+00       0.001       32.256   0.100E-07
     TRS4 it   5 1.00000000   0.774E-01       0.001       32.256   0.100E-07
     TRS4 it   6 1.00000000   0.110E-01       0.001       32.256   0.100E-07
     TRS4 it   7 1.00000000   0.293E-03       0.001       32.256   0.100E-07
     TRS4 it   8 1.00000000   0.297E-06       0.001       32.256   0.100E-07
     TRS4 it   9 1.00000000   0.384E-12       0.017        1.924   0.100E-07
     Final TRS4 iteration    9 1.00000000   0.384E-12
     Chemical potential (mu):      -0.00477
 
 PAO| energy:  -7.6726102140398957      penalty:   1.2400509295331399E-005
 PAO|CG| warming up with steepest descent
 PAO|CG| beta:    0.0000000000000000     
 PAO| norm of gradient:  0.40550217472562178     
 PAO| energy improvement: -0.14765678330001286     
 PAO| step      6                   -7.672610214  0.253E-01  0.485E+00     0.183
 PAO|LS| adapt:  T F F
 PAO|LS| adapt: scan_steps:    0.0000000000000000        0.0000000000000000        0.0000000000000000     
 PAO|LS| adapt: energies:   -7.6726102140398957        0.0000000000000000        0.0000000000000000     
 PAO| ======================= Iteration:         7 =============================

     Lanczos converged:  T threshold:   0.100E-02
     Est. extremal eigenvalues:    0.280E+01   0.181E+00
     Est. condition number :    0.155E+02

 Order=           3
     NS sqrt iter    1 1.00000000   0.708E+00       0.001       57.374
     NS sqrt iter    2 1.00000000   0.325E+00       0.001       99.886
     NS sqrt iter    3 1.00000000   0.735E-01       0.001       99.454
     NS sqrt iter    4 1.00000000   0.184E-02       0.001       97.875
     NS sqrt iter    5 1.00000000   0.650E-07       0.001       64.838
     Symmetrizing Results
     Final NS sqrt iter    5 1.00000000   0.538E-09

     Est. extremal eigenvalues     -0.92029     1.67501  converged:  T
     TRS4 it   1 1.00000000   0.887E+00       0.000       16.128   0.100E-07
     TRS4 it   2 1.00000000   0.623E+00       0.001       32.256   0.100E-07
     TRS4 it   3 1.00000000   0.430E+00       0.001       32.256   0.100E-07
     TRS4 it   4 1.00000000   0.229E+00       0.001       32.256   0.100E-07
     TRS4 it   5 1.00000000   0.801E-01       0.001       32.256   0.100E-07
     TRS4 it   6 1.00000000   0.116E-01       0.001       32.256   0.100E-07
     TRS4 it   7 1.00000000   0.307E-03       0.001       32.256   0.100E-07
     TRS4 it   8 1.00000000   0.307E-06       0.001       32.256   0.100E-07
     TRS4 it   9 1.00000000   0.401E-12       0.001       32.256   0.100E-07
     Final TRS4 iteration    9 1.00000000   0.401E-12
     Chemical potential (mu):      -0.00346
 
 PAO| energy:  -7.6690958201070734      penalty:   1.8225672352966694E-005
 PAO|LS| adapt:  T F T
 PAO|LS| adapt: scan_steps:    0.0000000000000000        0.0000000000000000       0.48535919187338716     
 PAO|LS| adapt: energies:   -7.6726102140398957        0.0000000000000000       -7.6690958201070734     
 PAO| ======================= Iteration:         8 =============================

     Lanczos converged:  T threshold:   0.100E-02
     Est. extremal eigenvalues:    0.284E+01   0.174E+00
     Est. condition number :    0.163E+02

 Order=           3
     NS sqrt iter    1 1.00000000   0.717E+00       0.001       58.102
     NS sqrt iter    2 1.00000000   0.335E+00       0.001       97.082
     NS sqrt iter    3 1.00000000   0.806E-01       0.001       98.165
     NS sqrt iter    4 1.00000000   0.237E-02       0.001       97.697
     NS sqrt iter    5 1.00000000   0.130E-06       0.001       70.250
     Symmetrizing Results
     Final NS sqrt iter    5 1.00000000   0.857E-09

     Est. extremal eigenvalues     -0.92049     1.67182  converged:  T
     TRS4 it   1 1.00000000   0.884E+00       0.000       16.128   0.100E-07
     TRS4 it   2 1.00000000   0.621E+00       0.001       32.256   0.100E-07
     TRS4 it   3 1.00000000   0.428E+00       0.001       32.256   0.100E-07
     TRS4 it   4 1.00000000   0.227E+00       0.001       32.256   0.100E-07
     TRS4 it   5 1.00000000   0.787E-01       0.001       32.256   0.100E-07
     TRS4 it   6 1.00000000   0.114E-01       0.001       32.256   0.100E-07
     TRS4 it   7 1.00000000   0.310E-03       0.001       32.256   0.100E-07
     TRS4 it   8 1.00000000   0.326E-06       0.001       32.256   0.100E-07
     TRS4 it   9 1.00000000   0.459E-12       0.001       32.256   0.100E-07
     Final TRS4 iteration    9 1.00000000   0.459E-12
     Chemical potential (mu):      -0.00462
 
 PAO| energy:  -7.6914561955154728      penalty:   1.3361222737578203E-005
 PAO|LS| adapt:  T T T
 PAO|LS| adapt: scan_steps:    0.0000000000000000       0.24267959593669358       0.48535919187338716     
 PAO|LS| adapt: energies:   -7.6726102140398957       -7.6914561955154728       -7.6690958201070734     
 PAO|LS| adapt: suggested step_size:   0.23233080798170511     
 PAO|LS| adapt: predicted energy  -7.6914936623217169     
 PAO| ======================= Iteration:         9 =============================

     Lanczos converged:  T threshold:   0.100E-02
     Est. extremal eigenvalues:    0.284E+01   0.174E+00
     Est. condition number :    0.164E+02

 Order=           3
     NS sqrt iter    1 1.00000000   0.717E+00       0.001       57.949
     NS sqrt iter    2 1.00000000   0.336E+00       0.001       97.930
     NS sqrt iter    3 1.00000000   0.809E-01       0.001      100.772
     NS sqrt iter    4 1.00000000   0.239E-02       0.001       98.000
     NS sqrt iter    5 1.00000000   0.134E-06       0.001       70.725
     Symmetrizing Results
     Final NS sqrt iter    5 1.00000000   0.881E-09

     Est. extremal eigenvalues     -0.92045     1.67169  converged:  T
     TRS4 it   1 1.00000000   0.883E+00       0.000       16.128   0.100E-07
     TRS4 it   2 1.00000000   0.621E+00       0.001       32.256   0.100E-07
     TRS4 it   3 1.00000000   0.427E+00       0.001       32.256   0.100E-07
     TRS4 it   4 1.00000000   0.227E+00       0.001       32.256   0.100E-07
     TRS4 it   5 1.00000000   0.786E-01       0.001       32.256   0.100E-07
     TRS4 it   6 1.00000000   0.114E-01       0.001       32.256   0.100E-07
     TRS4 it   7 1.00000000   0.310E-03       0.001       32.256   0.100E-07
     TRS4 it   8 1.00000000   0.326E-06       0.001       32.256   0.100E-07
     TRS4 it   9 1.00000000   0.459E-12       0.001       32.256   0.100E-07
     Final TRS4 iteration    9 1.00000000   0.459E-12
     Chemical potential (mu):      -0.00465
 
 PAO| energy:  -7.6915081914079320      penalty:   1.3261646772122835E-005
 PAO|CG| trace_G_new    3.5773141714026638E-002
 PAO|CG| trace_G_prev   0.16443201370720870     
 PAO|CG| trace_G_mix   -1.3790725473949413E-003
 PAO|CG| trace_D   0.16443201370720870     
 PAO|CG| trace_D_Gnew   1.3790725473949413E-003
 PAO|CG| beta:   0.22594270679902784     
 PAO| norm of gradient:  0.18913789074119083     
 PAO| energy improvement:  -1.8897977368036223E-002
 PAO| step      9                   -7.691508191  0.118E-01  0.232E+00     0.082
 PAO|LS| adapt:  T F F
 PAO|LS| adapt: scan_steps:    0.0000000000000000        0.0000000000000000        0.0000000000000000     
 PAO|LS| adapt: energies:   -7.6915081914079320        0.0000000000000000        0.0000000000000000     
 PAO| ======================= Iteration:        10 =============================

     Lanczos converged:  T threshold:   0.100E-02
     Est. extremal eigenvalues:    0.281E+01   0.179E+00
     Est. condition number :    0.156E+02

 Order=           3
     NS sqrt iter    1 1.00000000   0.709E+00       0.001       56.375
     NS sqrt iter    2 1.00000000   0.327E+00       0.001       97.500
     NS sqrt iter    3 1.00000000   0.754E-01       0.001       98.872
     NS sqrt iter    4 1.00000000   0.195E-02       0.001      100.196
     NS sqrt iter    5 1.00000000   0.742E-07       0.001       66.156
     Symmetrizing Results
     Final NS sqrt iter    5 1.00000000   0.535E-09

     Est. extremal eigenvalues     -0.92128     1.67116  converged:  T
     TRS4 it   1 1.00000000   0.883E+00       0.000       16.128   0.100E-07
     TRS4 it   2 1.00000000   0.620E+00       0.001       32.256   0.100E-07
     TRS4 it   3 1.00000000   0.426E+00       0.001       32.256   0.100E-07
     TRS4 it   4 1.00000000   0.225E+00       0.001       32.256   0.100E-07
     TRS4 it   5 1.00000000   0.769E-01       0.001       32.256   0.100E-07
     TRS4 it   6 1.00000000   0.108E-01       0.001       32.256   0.100E-07
     TRS4 it   7 1.00000000   0.274E-03       0.001       32.256   0.100E-07
     TRS4 it   8 1.00000000   0.248E-06       0.001       32.256   0.100E-07
     TRS4 it   9 1.00000000   0.264E-12       0.001       32.256   0.100E-07
     Final TRS4 iteration    9 1.00000000   0.264E-12
     Chemical potential (mu):      -0.00149
 
 PAO| energy:  -7.6962776326977274      penalty:   1.3778688227318992E-005
 PAO|LS| adapt:  T T F
 PAO|LS| adapt: scan_steps:    0.0000000000000000       0.23233080798170511        0.0000000000000000     
 PAO|LS| adapt: energies:   -7.6915081914079320       -7.6962776326977274        0.0000000000000000     
 PAO| ======================= Iteration:        11 =============================

     Lanczos converged:  T threshold:   0.100E-02
     Est. extremal eigenvalues:    0.277E+01   0.185E+00
     Est. condition number :    0.149E+02

 Order=           3
     NS sqrt iter    1 1.00000000   0.701E+00       0.001       59.545
     NS sqrt iter    2 1.00000000   0.319E+00       0.001       98.678
     NS sqrt iter    3 1.00000000   0.702E-01       0.001       97.658
     NS sqrt iter    4 1.00000000   0.158E-02       0.001       99.570
     NS sqrt iter    5 1.00000000   0.401E-07       0.001       59.583
     Symmetrizing Results
     Final NS sqrt iter    5 1.00000000   0.255E-08

     Est. extremal eigenvalues     -0.92109     1.67150  converged:  T
     TRS4 it   1 1.00000000   0.883E+00       0.000       16.128   0.100E-07
     TRS4 it   2 1.00000000   0.620E+00       0.001       32.256   0.100E-07
     TRS4 it   3 1.00000000   0.425E+00       0.001       32.256   0.100E-07
     TRS4 it   4 1.00000000   0.223E+00       0.001       32.256   0.100E-07
     TRS4 it   5 1.00000000   0.751E-01       0.001       32.256   0.100E-07
     TRS4 it   6 1.00000000   0.103E-01       0.001       32.256   0.100E-07
     TRS4 it   7 1.00000000   0.241E-03       0.001       32.256   0.100E-07
     TRS4 it   8 1.00000000   0.187E-06       0.001       32.256   0.100E-07
     TRS4 it   9 1.00000000   0.148E-12       0.001       32.256   0.100E-07
     Final TRS4 iteration    9 1.00000000   0.148E-12
     Chemical potential (mu):       0.00177
 
 PAO| energy:  -7.6943590577452472      penalty:   1.4948917172913845E-005
 PAO|LS| adapt:  T T T
 PAO|LS| adapt: scan_steps:    0.0000000000000000       0.23233080798170511       0.46466161596341021     
 PAO|LS| adapt: energies:   -7.6915081914079320       -7.6962776326977274       -7.6943590577452472     
 PAO|LS| adapt: suggested step_size:   0.28184803817393733     
 PAO|LS| adapt: predicted energy  -7.6964295357168515     
 PAO| ======================= Iteration:        12 =============================

     Lanczos converged:  T threshold:   0.100E-02
     Est. extremal eigenvalues:    0.280E+01   0.181E+00
     Est. condition number :    0.155E+02

 Order=           3
     NS sqrt iter    1 1.00000000   0.708E+00       0.001       58.468
     NS sqrt iter    2 1.00000000   0.325E+00       0.001       97.346
     NS sqrt iter    3 1.00000000   0.743E-01       0.001      100.540
     NS sqrt iter    4 1.00000000   0.187E-02       0.001       98.190
     NS sqrt iter    5 1.00000000   0.652E-07       0.001       64.789
     Symmetrizing Results
     Final NS sqrt iter    5 1.00000000   0.516E-09

     Est. extremal eigenvalues     -0.92132     1.67116  converged:  T
     TRS4 it   1 1.00000000   0.883E+00       0.000       16.128   0.100E-07
     TRS4 it   2 1.00000000   0.620E+00       0.001       32.256   0.100E-07
     TRS4 it   3 1.00000000   0.426E+00       0.001       32.256   0.100E-07
     TRS4 it   4 1.00000000   0.224E+00       0.001       32.256   0.100E-07
     TRS4 it   5 1.00000000   0.765E-01       0.001       32.256   0.100E-07
     TRS4 it   6 1.00000000   0.107E-01       0.001       32.256   0.100E-07
     TRS4 it   7 1.00000000   0.267E-03       0.001       32.256   0.100E-07
     TRS4 it   8 1.00000000   0.234E-06       0.001       32.256   0.100E-07
     TRS4 it   9 1.00000000   0.234E-12       0.001       32.256   0.100E-07
     Final TRS4 iteration    9 1.00000000   0.234E-12
     Chemical potential (mu):      -0.00080
 
 PAO| energy:  -7.6964164891197067      penalty:   1.3967314914129345E-005
 PAO|CG| trace_G_new    1.1987570026256056E-002
 PAO|CG| trace_G_prev    3.5773141714026638E-002
 PAO|CG| trace_G_mix   -4.4091048728422391E-004
 PAO|CG| trace_D    4.3544230799368387E-002
 PAO|CG| trace_D_Gnew   2.3929873682603962E-004
 PAO|CG| beta:   0.34742490924880320     
 PAO| norm of gradient:  0.10948776199309243     
 PAO| energy improvement:  -4.9082977117747006E-003
 PAO| step     12                   -7.696416489  0.684E-02  0.282E+00     0.058
 PAO|LS| adapt:  T F F
 PAO|LS| adapt: scan_steps:    0.0000000000000000        0.0000000000000000        0.0000000000000000     
 PAO|LS| adapt: energies:   -7.6964164891197067        0.0000000000000000        0.0000000000000000     
 PAO| ======================= Iteration:        13 =============================

     Lanczos converged:  T threshold:   0.100E-02
     Est. extremal eigenvalues:    0.276E+01   0.185E+00
     Est. condition number :    0.149E+02

 Order=           3
     NS sqrt iter    1 1.00000000   0.700E+00       0.001       58.322
     NS sqrt iter    2 1.00000000   0.318E+00       0.001       97.956
     NS sqrt iter    3 1.00000000   0.701E-01       0.001       99.489
     NS sqrt iter    4 1.00000000   0.158E-02       0.001      100.224
     NS sqrt iter    5 1.00000000   0.396E-07       0.001       58.579
     Symmetrizing Results
     Final NS sqrt iter    5 1.00000000   0.253E-08

     Est. extremal eigenvalues     -0.92177     1.66437  converged:  T
     TRS4 it   1 1.00000000   0.883E+00       0.000       16.128   0.100E-07
     TRS4 it   2 1.00000000   0.617E+00       0.001       32.256   0.100E-07
     TRS4 it   3 1.00000000   0.422E+00       0.001       32.256   0.100E-07
     TRS4 it   4 1.00000000   0.219E+00       0.001       32.256   0.100E-07
     TRS4 it   5 1.00000000   0.726E-01       0.001       32.256   0.100E-07
     TRS4 it   6 1.00000000   0.959E-02       0.001       32.256   0.100E-07
     TRS4 it   7 1.00000000   0.211E-03       0.001       32.256   0.100E-07
     TRS4 it   8 1.00000000   0.142E-06       0.001       32.256   0.100E-07
     TRS4 it   9 1.00000000   0.857E-13       0.001       32.256   0.100E-07
     Final TRS4 iteration    9 1.00000000   0.857E-13
     Chemical potential (mu):       0.00378
 
 PAO| energy:  -7.6984649747398235      penalty:   1.4249284269941047E-005
 PAO|LS| adapt:  T T F
 PAO|LS| adapt: scan_steps:    0.0000000000000000       0.28184803817393733        0.0000000000000000     
 PAO|LS| adapt: energies:   -7.6964164891197067       -7.6984649747398235        0.0000000000000000     
 PAO| ======================= Iteration:        14 =============================

     Lanczos converged:  T threshold:   0.100E-02
     Est. extremal eigenvalues:    0.273E+01   0.189E+00
     Est. condition number :    0.144E+02

 Order=           3
     NS sqrt iter    1 1.00000000   0.693E+00       0.001       57.882
     NS sqrt iter    2 1.00000000   0.312E+00       0.001      100.117
     NS sqrt iter    3 1.00000000   0.661E-01       0.001       98.262
     NS sqrt iter    4 1.00000000   0.133E-02       0.001       97.570
     NS sqrt iter    5 1.00000000   0.238E-07       0.001       50.832
     Symmetrizing Results
     Final NS sqrt iter    5 1.00000000   0.425E-08

     Est. extremal eigenvalues     -0.92177     1.65787  converged:  T
     TRS4 it   1 1.00000000   0.882E+00       0.000       16.128   0.100E-07
     TRS4 it   2 1.00000000   0.614E+00       0.001       32.256   0.100E-07
     TRS4 it   3 1.00000000   0.418E+00       0.001       32.256   0.100E-07
     TRS4 it   4 1.00000000   0.214E+00       0.001       32.256   0.100E-07
     TRS4 it   5 1.00000000   0.690E-01       0.001       32.256   0.100E-07
     TRS4 it   6 1.00000000   0.858E-02       0.001       32.256   0.100E-07
     TRS4 it   7 1.00000000   0.166E-03       0.001       32.256   0.100E-07
     TRS4 it   8 1.00000000   0.861E-07       0.001       32.256   0.100E-07
     TRS4 it   9 1.00000000   0.315E-13       0.001       32.256   0.100E-07
     Final TRS4 iteration    9 1.00000000   0.315E-13
     Chemical potential (mu):       0.00827
 
 PAO| energy:  -7.6979452511369484      penalty:   1.4969163786301084E-005
 PAO|LS| adapt:  T T T
 PAO|LS| adapt: scan_steps:    0.0000000000000000       0.28184803817393733       0.56369607634787466     
 PAO|LS| adapt: energies:   -7.6964164891197067       -7.6984649747398235       -7.6979452511369484     
 PAO|LS| adapt: suggested step_size:   0.36573500726059921     
 PAO|LS| adapt: predicted energy  -7.6985787268284600     
 PAO| ======================= Iteration:        15 =============================

     Lanczos converged:  T threshold:   0.100E-02
     Est. extremal eigenvalues:    0.275E+01   0.186E+00
     Est. condition number :    0.148E+02

 Order=           3
     NS sqrt iter    1 1.00000000   0.698E+00       0.001       58.211
     NS sqrt iter    2 1.00000000   0.316E+00       0.001       97.786
     NS sqrt iter    3 1.00000000   0.689E-01       0.001       98.354
     NS sqrt iter    4 1.00000000   0.150E-02       0.001       98.230
     NS sqrt iter    5 1.00000000   0.340E-07       0.001       54.193
     Symmetrizing Results
     Final NS sqrt iter    5 1.00000000   0.523E-08

     Est. extremal eigenvalues     -0.92182     1.66241  converged:  T
     TRS4 it   1 1.00000000   0.882E+00       0.000       16.128   0.100E-07
     TRS4 it   2 1.00000000   0.616E+00       0.001       32.256   0.100E-07
     TRS4 it   3 1.00000000   0.421E+00       0.001       32.256   0.100E-07
     TRS4 it   4 1.00000000   0.218E+00       0.001       32.256   0.100E-07
     TRS4 it   5 1.00000000   0.715E-01       0.001       32.256   0.100E-07
     TRS4 it   6 1.00000000   0.928E-02       0.001       32.256   0.100E-07
     TRS4 it   7 1.00000000   0.196E-03       0.001       32.256   0.100E-07
     TRS4 it   8 1.00000000   0.122E-06       0.001       32.256   0.100E-07
     TRS4 it   9 1.00000000   0.631E-13       0.001       32.256   0.100E-07
     Final TRS4 iteration    9 1.00000000   0.631E-13
     Chemical potential (mu):       0.00513
 
 PAO| energy:  -7.6985756367085463      penalty:   1.4414698690255626E-005
 PAO|CG| trace_G_new    2.5347260498219792E-003
 PAO|CG| trace_G_prev    1.1987570026256056E-002
 PAO|CG| trace_G_mix    8.8176829613302756E-005
 PAO|CG| trace_D    1.7077259118945715E-002
 PAO|CG| trace_D_Gnew   2.9827926273024032E-005
 PAO|CG| beta:   0.20409050498558631     
 PAO| norm of gradient:   5.0346062902892209E-002
 PAO| energy improvement:  -2.1591475888396161E-003
 PAO| step     15                   -7.698575637  0.315E-02  0.366E+00     0.075
 PAO|LS| adapt:  T F F
 PAO|LS| adapt: scan_steps:    0.0000000000000000        0.0000000000000000        0.0000000000000000     
 PAO|LS| adapt: energies:   -7.6985756367085463        0.0000000000000000        0.0000000000000000     
 PAO| ======================= Iteration:        16 =============================

     Lanczos converged:  T threshold:   0.100E-02
     Est. extremal eigenvalues:    0.274E+01   0.187E+00
     Est. condition number :    0.147E+02

 Order=           3
     NS sqrt iter    1 1.00000000   0.696E+00       0.001       59.418
     NS sqrt iter    2 1.00000000   0.315E+00       0.001      101.130
     NS sqrt iter    3 1.00000000   0.683E-01       0.001       99.164
     NS sqrt iter    4 1.00000000   0.146E-02       0.001       98.230
     NS sqrt iter    5 1.00000000   0.313E-07       0.001       54.199
     Symmetrizing Results
     Final NS sqrt iter    5 1.00000000   0.460E-08

     Est. extremal eigenvalues     -0.92184     1.66310  converged:  T
     TRS4 it   1 1.00000000   0.883E+00       0.000       16.128   0.100E-07
     TRS4 it   2 1.00000000   0.616E+00       0.001       32.256   0.100E-07
     TRS4 it   3 1.00000000   0.420E+00       0.001       32.256   0.100E-07
     TRS4 it   4 1.00000000   0.216E+00       0.001       32.256   0.100E-07
     TRS4 it   5 1.00000000   0.705E-01       0.001       32.256   0.100E-07
     TRS4 it   6 1.00000000   0.901E-02       0.001       32.256   0.100E-07
     TRS4 it   7 1.00000000   0.186E-03       0.001       32.256   0.100E-07
     TRS4 it   8 1.00000000   0.111E-06       0.001       32.256   0.100E-07
     TRS4 it   9 1.00000000   0.522E-13       0.001       32.256   0.100E-07
     Final TRS4 iteration    9 1.00000000   0.522E-13
     Chemical potential (mu):       0.00600
 
 PAO| energy:  -7.6987150354255958      penalty:   1.4203863549450195E-005
 PAO|LS| adapt:  T T F
 PAO|LS| adapt: scan_steps:    0.0000000000000000       0.36573500726059921        0.0000000000000000     
 PAO|LS| adapt: energies:   -7.6985756367085463       -7.6987150354255958        0.0000000000000000     
 PAO| ======================= Iteration:        17 =============================

     Lanczos converged:  T threshold:   0.100E-02
     Est. extremal eigenvalues:    0.273E+01   0.187E+00
     Est. condition number :    0.146E+02

 Order=           3
     NS sqrt iter    1 1.00000000   0.694E+00       0.001       57.910
     NS sqrt iter    2 1.00000000   0.314E+00       0.001       98.637
     NS sqrt iter    3 1.00000000   0.677E-01       0.001       98.279
     NS sqrt iter    4 1.00000000   0.142E-02       0.001       97.358
     NS sqrt iter    5 1.00000000   0.289E-07       0.001       53.105
     Symmetrizing Results
     Final NS sqrt iter    5 1.00000000   0.505E-08

     Est. extremal eigenvalues     -0.92172     1.66389  converged:  T
     TRS4 it   1 1.00000000   0.884E+00       0.000       16.128   0.100E-07
     TRS4 it   2 1.00000000   0.615E+00       0.001       32.256   0.100E-07
     TRS4 it   3 1.00000000   0.419E+00       0.001       32.256   0.100E-07
     TRS4 it   4 1.00000000   0.215E+00       0.001       32.256   0.100E-07
     TRS4 it   5 1.00000000   0.695E-01       0.001       32.256   0.100E-07
     TRS4 it   6 1.00000000   0.876E-02       0.001       32.256   0.100E-07
     TRS4 it   7 1.00000000   0.176E-03       0.001       32.256   0.100E-07
     TRS4 it   8 1.00000000   0.100E-06       0.017        1.928   0.100E-07
     TRS4 it   9 1.00000000   0.422E-13       0.001       32.256   0.100E-07
     Final TRS4 iteration    9 1.00000000   0.422E-13
     Chemical potential (mu):       0.00685
 
 PAO| energy:  -7.6972775261442061      penalty:   1.4104297482987975E-005
 PAO|LS| adapt:  T T T
 PAO|LS| adapt: scan_steps:    0.0000000000000000       0.36573500726059921       0.73147001452119842     
 PAO|LS| adapt: energies:   -7.6985756367085463       -7.6987150354255958       -7.6972775261442061     
 PAO|LS| adapt: suggested step_size:   0.21519848986581713     
 PAO|LS| adapt: predicted energy  -7.6988486109923802     
 PAO| ======================= Iteration:        18 =============================

     Lanczos converged:  T threshold:   0.100E-02
     Est. extremal eigenvalues:    0.275E+01   0.187E+00
     Est. condition number :    0.147E+02

 Order=           3
     NS sqrt iter    1 1.00000000   0.697E+00       0.001       56.916
     NS sqrt iter    2 1.00000000   0.316E+00       0.001       98.772
     NS sqrt iter    3 1.00000000   0.685E-01       0.001       98.353
     NS sqrt iter    4 1.00000000   0.148E-02       0.001       97.222
     NS sqrt iter    5 1.00000000   0.324E-07       0.001       53.926
     Symmetrizing Results
     Final NS sqrt iter    5 1.00000000   0.469E-08

     Est. extremal eigenvalues     -0.92185     1.66280  converged:  T
     TRS4 it   1 1.00000000   0.883E+00       0.000       16.128   0.100E-07
     TRS4 it   2 1.00000000   0.616E+00       0.001       32.256   0.100E-07
     TRS4 it   3 1.00000000   0.420E+00       0.001       32.256   0.100E-07
     TRS4 it   4 1.00000000   0.217E+00       0.001       32.256   0.100E-07
     TRS4 it   5 1.00000000   0.709E-01       0.001       32.256   0.100E-07
     TRS4 it   6 1.00000000   0.912E-02       0.017        1.925   0.100E-07
     TRS4 it   7 1.00000000   0.190E-03       0.001       32.256   0.100E-07
     TRS4 it   8 1.00000000   0.116E-06       0.001       32.256   0.100E-07
     TRS4 it   9 1.00000000   0.568E-13       0.001       32.256   0.100E-07
     Final TRS4 iteration    9 1.00000000   0.568E-13
     Chemical potential (mu):       0.00564
 
 PAO| energy:  -7.6988481150316606      penalty:   1.4277404757235858E-005
 PAO|CG| trace_G_new    7.5287675204286134E-004
 PAO|CG| trace_G_prev    2.5347260498219792E-003
 PAO|CG| trace_G_mix    1.4196279901678150E-006
 PAO|CG| trace_D    3.2338688075798767E-003
 PAO|CG| trace_D_Gnew  -2.0554280140959739E-006
 PAO|CG| beta:   0.29646482865691559     
 PAO| norm of gradient:   2.7438599673504867E-002
 PAO| energy improvement:  -2.7247832311427800E-004
 PAO| step     18                   -7.698848115  0.171E-02  0.215E+00     0.107
 PAO|LS| adapt:  T F F
 PAO|LS| adapt: scan_steps:    0.0000000000000000        0.0000000000000000        0.0000000000000000     
 PAO|LS| adapt: energies:   -7.6988481150316606        0.0000000000000000        0.0000000000000000     
 PAO| ======================= Iteration:        19 =============================

     Lanczos converged:  T threshold:   0.100E-02
     Est. extremal eigenvalues:    0.275E+01   0.187E+00
     Est. condition number :    0.147E+02

 Order=           3
     NS sqrt iter    1 1.00000000   0.697E+00       0.001       59.068
     NS sqrt iter    2 1.00000000   0.316E+00       0.001       99.291
     NS sqrt iter    3 1.00000000   0.687E-01       0.001      100.000
     NS sqrt iter    4 1.00000000   0.148E-02       0.001       99.651
     NS sqrt iter    5 1.00000000   0.326E-07       0.013        4.451
     Symmetrizing Results
     Final NS sqrt iter    5 1.00000000   0.523E-08

     Est. extremal eigenvalues     -0.92185     1.66297  converged:  T
     TRS4 it   1 1.00000000   0.883E+00       0.000       16.128   0.100E-07
     TRS4 it   2 1.00000000   0.616E+00       0.001       32.256   0.100E-07
     TRS4 it   3 1.00000000   0.420E+00       0.001       32.256   0.100E-07
     TRS4 it   4 1.00000000   0.216E+00       0.001       32.256   0.100E-07
     TRS4 it   5 1.00000000   0.708E-01       0.001       32.256   0.100E-07
     TRS4 it   6 1.00000000   0.910E-02       0.001       32.256   0.100E-07
     TRS4 it   7 1.00000000   0.191E-03       0.001       32.256   0.100E-07
     TRS4 it   8 1.00000000   0.117E-06       0.001       32.256   0.100E-07
     TRS4 it   9 1.00000000   0.586E-13       0.001       32.256   0.100E-07
     Final TRS4 iteration    9 1.00000000   0.586E-13
     Chemical potential (mu):       0.00539
 
 PAO| energy:  -7.6989704437926578      penalty:   1.3998080089689955E-005
 PAO|LS| adapt:  T T F
 PAO|LS| adapt: scan_steps:    0.0000000000000000       0.21519848986581713        0.0000000000000000     
 PAO|LS| adapt: energies:   -7.6988481150316606       -7.6989704437926578        0.0000000000000000     
 PAO| ======================= Iteration:        20 =============================

     Lanczos converged:  T threshold:   0.100E-02
     Est. extremal eigenvalues:    0.275E+01   0.186E+00
     Est. condition number :    0.147E+02

 Order=           3
     NS sqrt iter    1 1.00000000   0.697E+00       0.001       58.224
     NS sqrt iter    2 1.00000000   0.316E+00       0.001       98.257
     NS sqrt iter    3 1.00000000   0.689E-01       0.001       98.848
     NS sqrt iter    4 1.00000000   0.149E-02       0.017        6.430
     NS sqrt iter    5 1.00000000   0.330E-07       0.001       55.932
     Symmetrizing Results
     Final NS sqrt iter    5 1.00000000   0.398E-08

     Est. extremal eigenvalues     -0.92184     1.66315  converged:  T
     TRS4 it   1 1.00000000   0.883E+00       0.000       16.128   0.100E-07
     TRS4 it   2 1.00000000   0.616E+00       0.001       32.256   0.100E-07
     TRS4 it   3 1.00000000   0.420E+00       0.001       32.256   0.100E-07
     TRS4 it   4 1.00000000   0.216E+00       0.001       32.256   0.100E-07
     TRS4 it   5 1.00000000   0.706E-01       0.001       32.256   0.100E-07
     TRS4 it   6 1.00000000   0.909E-02       0.001       32.256   0.100E-07
     TRS4 it   7 1.00000000   0.191E-03       0.001       32.256   0.100E-07
     TRS4 it   8 1.00000000   0.119E-06       0.001       32.256   0.100E-07
     TRS4 it   9 1.00000000   0.611E-13       0.001       32.256   0.100E-07
     Final TRS4 iteration    9 1.00000000   0.611E-13
     Chemical potential (mu):       0.00514
 
 PAO| energy:  -7.6990126234857463      penalty:   1.3731461167933574E-005
 PAO|LS| adapt:  T T F
 PAO|LS| adapt: scan_steps:    0.0000000000000000       0.43039697973163427        0.0000000000000000     
 PAO|LS| adapt: energies:   -7.6988481150316606       -7.6990126234857463        0.0000000000000000     
 PAO| ======================= Iteration:        21 =============================

     Lanczos converged:  T threshold:   0.100E-02
     Est. extremal eigenvalues:    0.275E+01   0.186E+00
     Est. condition number :    0.148E+02

 Order=           3
     NS sqrt iter    1 1.00000000   0.696E+00       0.001       58.520
     NS sqrt iter    2 1.00000000   0.316E+00       0.017        6.431
     NS sqrt iter    3 1.00000000   0.693E-01       0.001       99.099
     NS sqrt iter    4 1.00000000   0.151E-02       0.001       99.963
     NS sqrt iter    5 1.00000000   0.336E-07       0.001       55.028
     Symmetrizing Results
     Final NS sqrt iter    5 1.00000000   0.421E-08

     Est. extremal eigenvalues     -0.92183     1.66352  converged:  T
     TRS4 it   1 1.00000000   0.883E+00       0.000       16.128   0.100E-07
     TRS4 it   2 1.00000000   0.615E+00       0.001       32.256   0.100E-07
     TRS4 it   3 1.00000000   0.419E+00       0.001       32.256   0.100E-07
     TRS4 it   4 1.00000000   0.216E+00       0.001       32.256   0.100E-07
     TRS4 it   5 1.00000000   0.704E-01       0.001       32.256   0.100E-07
     TRS4 it   6 1.00000000   0.906E-02       0.001       32.256   0.100E-07
     TRS4 it   7 1.00000000   0.192E-03       0.001       32.256   0.100E-07
     TRS4 it   8 1.00000000   0.122E-06       0.001       32.256   0.100E-07
     TRS4 it   9 1.00000000   0.641E-13       0.001       32.256   0.100E-07
     Final TRS4 iteration    9 1.00000000   0.641E-13
     Chemical potential (mu):       0.00462
 
 PAO| energy:  -7.6988535669260827      penalty:   1.3235812444843571E-005
 PAO|LS| Need extra step
 PAO|LS| adapt:  T T T
 PAO|LS| adapt: scan_steps:    0.0000000000000000       0.43039697973163427       0.86079395946326853     
 PAO|LS| adapt: energies:   -7.6988481150316606       -7.6990126234857463       -7.6988535669260827     
 PAO|LS| adapt: suggested step_size:   0.43402295719117628     
 PAO|LS| adapt: predicted energy  -7.6990126349684287     
 PAO| ======================= Iteration:        22 =============================

     Lanczos converged:  T threshold:   0.100E-02
     Est. extremal eigenvalues:    0.275E+01   0.186E+00
     Est. condition number :    0.147E+02

 Order=           3
     NS sqrt iter    1 1.00000000   0.697E+00       0.001       56.868
     NS sqrt iter    2 1.00000000   0.316E+00       0.001       99.073
     NS sqrt iter    3 1.00000000   0.689E-01       0.001       98.390
     NS sqrt iter    4 1.00000000   0.149E-02       0.001       98.405
     NS sqrt iter    5 1.00000000   0.330E-07       0.001       55.834
     Symmetrizing Results
     Final NS sqrt iter    5 1.00000000   0.398E-08

     Est. extremal eigenvalues     -0.92184     1.66316  converged:  T
     TRS4 it   1 1.00000000   0.883E+00       0.000       16.128   0.100E-07
     TRS4 it   2 1.00000000   0.616E+00       0.001       32.256   0.100E-07
     TRS4 it   3 1.00000000   0.420E+00       0.001       32.256   0.100E-07
     TRS4 it   4 1.00000000   0.216E+00       0.001       32.256   0.100E-07
     TRS4 it   5 1.00000000   0.706E-01       0.001       32.256   0.100E-07
     TRS4 it   6 1.00000000   0.909E-02       0.001       32.256   0.100E-07
     TRS4 it   7 1.00000000   0.191E-03       0.001       32.256   0.100E-07
     TRS4 it   8 1.00000000   0.119E-06       0.001       32.256   0.100E-07
     TRS4 it   9 1.00000000   0.602E-13       0.001       32.256   0.100E-07
     Final TRS4 iteration    9 1.00000000   0.602E-13
     Chemical potential (mu):       0.00513
 
 PAO| energy:  -7.6990126434282944      penalty:   1.3727076636342467E-005
 PAO|CG| trace_G_new    2.1916677222047788E-004
 PAO|CG| trace_G_prev    7.5287675204286134E-004
 PAO|CG| trace_G_mix    4.2045583446571011E-006
 PAO|CG| trace_D    1.0383247158214002E-003
 PAO|CG| trace_D_Gnew  -2.3333599741939598E-006
 PAO|CG| beta:   0.28552112054534917     
 PAO| norm of gradient:   1.4804282225777711E-002
 PAO| energy improvement:  -1.6452839663383401E-004
 PAO| step     22                   -7.699012643  0.925E-03  0.434E+00     0.152
 PAO|LS| adapt:  T F F
 PAO|LS| adapt: scan_steps:    0.0000000000000000        0.0000000000000000        0.0000000000000000     
 PAO|LS| adapt: energies:   -7.6990126434282944        0.0000000000000000        0.0000000000000000     
 PAO| ======================= Iteration:        23 =============================

     Lanczos converged:  T threshold:   0.100E-02
     Est. extremal eigenvalues:    0.275E+01   0.186E+00
     Est. condition number :    0.147E+02

 Order=           3
     NS sqrt iter    1 1.00000000   0.696E+00       0.001       57.800
     NS sqrt iter    2 1.00000000   0.316E+00       0.001       97.008
     NS sqrt iter    3 1.00000000   0.689E-01       0.001       97.973
     NS sqrt iter    4 1.00000000   0.149E-02       0.001       97.137
     NS sqrt iter    5 1.00000000   0.329E-07       0.001       56.534
     Symmetrizing Results
     Final NS sqrt iter    5 1.00000000   0.399E-08

     Est. extremal eigenvalues     -0.92184     1.66311  converged:  T
     TRS4 it   1 1.00000000   0.883E+00       0.000       16.128   0.100E-07
     TRS4 it   2 1.00000000   0.616E+00       0.001       32.256   0.100E-07
     TRS4 it   3 1.00000000   0.420E+00       0.001       32.256   0.100E-07
     TRS4 it   4 1.00000000   0.216E+00       0.001       32.256   0.100E-07
     TRS4 it   5 1.00000000   0.707E-01       0.001       32.256   0.100E-07
     TRS4 it   6 1.00000000   0.912E-02       0.001       32.256   0.100E-07
     TRS4 it   7 1.00000000   0.193E-03       0.001       32.256   0.100E-07
     TRS4 it   8 1.00000000   0.121E-06       0.001       32.256   0.100E-07
     TRS4 it   9 1.00000000   0.635E-13       0.001       32.256   0.100E-07
     Final TRS4 iteration    9 1.00000000   0.635E-13
     Chemical potential (mu):       0.00487
 
 PAO| energy:  -7.6990567651994688      penalty:   1.3104089712840416E-005
 PAO|LS| adapt:  T T F
 PAO|LS| adapt: scan_steps:    0.0000000000000000       0.43402295719117628        0.0000000000000000     
 PAO|LS| adapt: energies:   -7.6990126434282944       -7.6990567651994688        0.0000000000000000     
 PAO| ======================= Iteration:        24 =============================

     Lanczos converged:  T threshold:   0.100E-02
     Est. extremal eigenvalues:    0.275E+01   0.186E+00
     Est. condition number :    0.147E+02

 Order=           3
     NS sqrt iter    1 1.00000000   0.696E+00       0.001       58.982
     NS sqrt iter    2 1.00000000   0.316E+00       0.001       98.669
     NS sqrt iter    3 1.00000000   0.689E-01       0.001       97.504
     NS sqrt iter    4 1.00000000   0.149E-02       0.001       97.286
     NS sqrt iter    5 1.00000000   0.328E-07       0.001       55.504
     Symmetrizing Results
     Final NS sqrt iter    5 1.00000000   0.400E-08

     Est. extremal eigenvalues     -0.92184     1.66306  converged:  T
     TRS4 it   1 1.00000000   0.883E+00       0.000       16.128   0.100E-07
     TRS4 it   2 1.00000000   0.616E+00       0.001       32.256   0.100E-07
     TRS4 it   3 1.00000000   0.420E+00       0.001       32.256   0.100E-07
     TRS4 it   4 1.00000000   0.216E+00       0.001       32.256   0.100E-07
     TRS4 it   5 1.00000000   0.708E-01       0.001       32.256   0.100E-07
     TRS4 it   6 1.00000000   0.916E-02       0.001       32.256   0.100E-07
     TRS4 it   7 1.00000000   0.195E-03       0.001       32.256   0.100E-07
     TRS4 it   8 1.00000000   0.124E-06       0.001       32.256   0.100E-07
     TRS4 it   9 1.00000000   0.656E-13       0.001       32.256   0.100E-07
     Final TRS4 iteration    9 1.00000000   0.656E-13
     Chemical potential (mu):       0.00461
 
 PAO| energy:  -7.6989976839845697      penalty:   1.2505960458699589E-005
 PAO|LS| adapt:  T T T
 PAO|LS| adapt: scan_steps:    0.0000000000000000       0.43402295719117628       0.86804591438235257     
 PAO|LS| adapt: energies:   -7.6990126434282944       -7.6990567651994688       -7.6989976839845697     
 PAO|LS| adapt: suggested step_size:   0.40256678402054197     
 PAO|LS| adapt: predicted energy  -7.6990570362489859     
 PAO| ======================= Iteration:        25 =============================

     Lanczos converged:  T threshold:   0.100E-02
     Est. extremal eigenvalues:    0.275E+01   0.186E+00
     Est. condition number :    0.147E+02

 Order=           3
     NS sqrt iter    1 1.00000000   0.697E+00       0.001       58.704
     NS sqrt iter    2 1.00000000   0.316E+00       0.001       97.833
     NS sqrt iter    3 1.00000000   0.689E-01       0.001       97.346
     NS sqrt iter    4 1.00000000   0.149E-02       0.001       97.983
     NS sqrt iter    5 1.00000000   0.329E-07       0.001       54.898
     Symmetrizing Results
     Final NS sqrt iter    5 1.00000000   0.398E-08

     Est. extremal eigenvalues     -0.92184     1.66312  converged:  T
     TRS4 it   1 1.00000000   0.883E+00       0.000       16.128   0.100E-07
     TRS4 it   2 1.00000000   0.616E+00       0.001       32.256   0.100E-07
     TRS4 it   3 1.00000000   0.420E+00       0.001       32.256   0.100E-07
     TRS4 it   4 1.00000000   0.216E+00       0.001       32.256   0.100E-07
     TRS4 it   5 1.00000000   0.707E-01       0.001       32.256   0.100E-07
     TRS4 it   6 1.00000000   0.912E-02       0.001       32.256   0.100E-07
     TRS4 it   7 1.00000000   0.193E-03       0.001       32.256   0.100E-07
     TRS4 it   8 1.00000000   0.121E-06       0.001       32.256   0.100E-07
     TRS4 it   9 1.00000000   0.629E-13       0.001       32.256   0.100E-07
     Final TRS4 iteration    9 1.00000000   0.629E-13
     Chemical potential (mu):       0.00490
 
 PAO| energy:  -7.6990570250605863      penalty:   1.3148399760919626E-005
 PAO|CG| trace_G_new    8.1083164916424656E-005
 PAO|CG| trace_G_prev    2.1916677222047788E-004
 PAO|CG| trace_G_mix    4.7626766066840894E-007
 PAO|CG| trace_D    3.0514584898137293E-004
 PAO|CG| trace_D_Gnew  -3.5209444319955995E-007
 PAO|CG| beta:   0.36778794722891267     
 PAO| norm of gradient:   9.0046190878029179E-003
 PAO| energy improvement:  -4.4381632291923268E-005
 PAO| step     25                   -7.699057025  0.563E-03  0.403E+00     0.075
 PAO|LS| adapt:  T F F
 PAO|LS| adapt: scan_steps:    0.0000000000000000        0.0000000000000000        0.0000000000000000     
 PAO|LS| adapt: energies:   -7.6990570250605863        0.0000000000000000        0.0000000000000000     
 PAO| ======================= Iteration:        26 =============================

     Lanczos converged:  T threshold:   0.100E-02
     Est. extremal eigenvalues:    0.274E+01   0.186E+00
     Est. condition number :    0.147E+02

 Order=           3
     NS sqrt iter    1 1.00000000   0.696E+00       0.001       58.382
     NS sqrt iter    2 1.00000000   0.316E+00       0.001       96.476
     NS sqrt iter    3 1.00000000   0.688E-01       0.001       97.412
     NS sqrt iter    4 1.00000000   0.149E-02       0.001       98.127
     NS sqrt iter    5 1.00000000   0.326E-07       0.001       54.638
     Symmetrizing Results
     Final NS sqrt iter    5 1.00000000   0.530E-08

     Est. extremal eigenvalues     -0.92185     1.66307  converged:  T
     TRS4 it   1 1.00000000   0.883E+00       0.000       16.128   0.100E-07
     TRS4 it   2 1.00000000   0.616E+00       0.001       32.256   0.100E-07
     TRS4 it   3 1.00000000   0.420E+00       0.001       32.256   0.100E-07
     TRS4 it   4 1.00000000   0.216E+00       0.001       32.256   0.100E-07
     TRS4 it   5 1.00000000   0.707E-01       0.001       32.256   0.100E-07
     TRS4 it   6 1.00000000   0.910E-02       0.001       32.256   0.100E-07
     TRS4 it   7 1.00000000   0.192E-03       0.001       32.256   0.100E-07
     TRS4 it   8 1.00000000   0.120E-06       0.001       32.256   0.100E-07
     TRS4 it   9 1.00000000   0.609E-13       0.001       32.256   0.100E-07
     Final TRS4 iteration    9 1.00000000   0.609E-13
     Chemical potential (mu):       0.00501
 
 PAO| energy:  -7.6990620324979648      penalty:   1.2517735112348728E-005
 PAO|LS| adapt:  T T F
 PAO|LS| adapt: scan_steps:    0.0000000000000000       0.40256678402054197        0.0000000000000000     
 PAO|LS| adapt: energies:   -7.6990570250605863       -7.6990620324979648        0.0000000000000000     
 PAO| ======================= Iteration:        27 =============================

     Lanczos converged:  T threshold:   0.100E-02
     Est. extremal eigenvalues:    0.274E+01   0.186E+00
     Est. condition number :    0.147E+02

 Order=           3
     NS sqrt iter    1 1.00000000   0.696E+00       0.001       57.578
     NS sqrt iter    2 1.00000000   0.316E+00       0.001       97.134
     NS sqrt iter    3 1.00000000   0.687E-01       0.001       98.043
     NS sqrt iter    4 1.00000000   0.148E-02       0.001       97.430
     NS sqrt iter    5 1.00000000   0.324E-07       0.001       55.423
     Symmetrizing Results
     Final NS sqrt iter    5 1.00000000   0.479E-08

     Est. extremal eigenvalues     -0.92185     1.66302  converged:  T
     TRS4 it   1 1.00000000   0.883E+00       0.000       16.128   0.100E-07
     TRS4 it   2 1.00000000   0.616E+00       0.001       32.256   0.100E-07
     TRS4 it   3 1.00000000   0.420E+00       0.001       32.256   0.100E-07
     TRS4 it   4 1.00000000   0.216E+00       0.001       32.256   0.100E-07
     TRS4 it   5 1.00000000   0.706E-01       0.001       32.256   0.100E-07
     TRS4 it   6 1.00000000   0.909E-02       0.001       32.256   0.100E-07
     TRS4 it   7 1.00000000   0.191E-03       0.001       32.256   0.100E-07
     TRS4 it   8 1.00000000   0.118E-06       0.001       32.256   0.100E-07
     TRS4 it   9 1.00000000   0.601E-13       0.001       32.256   0.100E-07
     Final TRS4 iteration    9 1.00000000   0.601E-13
     Chemical potential (mu):       0.00514
 
 PAO| energy:  -7.6990115450561341      penalty:   1.1906142858038083E-005
 PAO|LS| adapt:  T T T
 PAO|LS| adapt: scan_steps:    0.0000000000000000       0.40256678402054197       0.80513356804108394     
 PAO|LS| adapt: energies:   -7.6990570250605863       -7.6990620324979648       -7.6990115450561341     
 PAO|LS| adapt: suggested step_size:   0.23760796808608439     
 PAO|LS| adapt: predicted energy  -7.6990666915557782     
 PAO| ======================= Iteration:        28 =============================

     Lanczos converged:  T threshold:   0.100E-02
     Est. extremal eigenvalues:    0.275E+01   0.186E+00
     Est. condition number :    0.147E+02

 Order=           3
     NS sqrt iter    1 1.00000000   0.696E+00       0.001       57.662
     NS sqrt iter    2 1.00000000   0.316E+00       0.001       97.660
     NS sqrt iter    3 1.00000000   0.689E-01       0.001       96.998
     NS sqrt iter    4 1.00000000   0.149E-02       0.001       98.085
     NS sqrt iter    5 1.00000000   0.328E-07       0.001       55.384
     Symmetrizing Results
     Final NS sqrt iter    5 1.00000000   0.394E-08

     Est. extremal eigenvalues     -0.92185     1.66309  converged:  T
     TRS4 it   1 1.00000000   0.883E+00       0.000       16.128   0.100E-07
     TRS4 it   2 1.00000000   0.616E+00       0.001       32.256   0.100E-07
     TRS4 it   3 1.00000000   0.420E+00       0.001       32.256   0.100E-07
     TRS4 it   4 1.00000000   0.216E+00       0.001       32.256   0.100E-07
     TRS4 it   5 1.00000000   0.707E-01       0.001       32.256   0.100E-07
     TRS4 it   6 1.00000000   0.911E-02       0.001       32.256   0.100E-07
     TRS4 it   7 1.00000000   0.192E-03       0.001       32.256   0.100E-07
     TRS4 it   8 1.00000000   0.120E-06       0.001       32.256   0.100E-07
     TRS4 it   9 1.00000000   0.616E-13       0.001       32.256   0.100E-07
     Final TRS4 iteration    9 1.00000000   0.616E-13
     Chemical potential (mu):       0.00496
 
 PAO| energy:  -7.6990666782463286      penalty:   1.2773840708411039E-005
 PAO|CG| trace_G_new    2.6255501130119215E-005
 PAO|CG| trace_G_prev    8.1083164916424656E-005
 PAO|CG| trace_G_mix    5.2214256456794859E-008
 PAO|CG| trace_D    1.2261861790634511E-004
 PAO|CG| trace_D_Gnew  -1.7279814785338952E-008
 PAO|CG| beta:   0.32316556588129103     
 PAO| norm of gradient:   5.1240122101844383E-003
 PAO| energy improvement:  -9.6531857423087786E-006
 PAO| step     28                   -7.699066678  0.320E-03  0.238E+00     0.059
 PAO|LS| adapt:  T F F
 PAO|LS| adapt: scan_steps:    0.0000000000000000        0.0000000000000000        0.0000000000000000     
 PAO|LS| adapt: energies:   -7.6990666782463286        0.0000000000000000        0.0000000000000000     
 PAO| ======================= Iteration:        29 =============================

     Lanczos converged:  T threshold:   0.100E-02
     Est. extremal eigenvalues:    0.274E+01   0.186E+00
     Est. condition number :    0.147E+02

 Order=           3
     NS sqrt iter    1 1.00000000   0.696E+00       0.001       58.103
     NS sqrt iter    2 1.00000000   0.316E+00       0.001       97.361
     NS sqrt iter    3 1.00000000   0.688E-01       0.001       97.260
     NS sqrt iter    4 1.00000000   0.149E-02       0.001      100.610
     NS sqrt iter    5 1.00000000   0.326E-07       0.001       54.351
     Symmetrizing Results
     Final NS sqrt iter    5 1.00000000   0.527E-08

     Est. extremal eigenvalues     -0.92185     1.66309  converged:  T
     TRS4 it   1 1.00000000   0.883E+00       0.000       16.128   0.100E-07
     TRS4 it   2 1.00000000   0.616E+00       0.001       32.256   0.100E-07
     TRS4 it   3 1.00000000   0.420E+00       0.001       32.256   0.100E-07
     TRS4 it   4 1.00000000   0.216E+00       0.001       32.256   0.100E-07
     TRS4 it   5 1.00000000   0.706E-01       0.001       32.256   0.100E-07
     TRS4 it   6 1.00000000   0.909E-02       0.001       32.256   0.100E-07
     TRS4 it   7 1.00000000   0.191E-03       0.001       32.256   0.100E-07
     TRS4 it   8 1.00000000   0.119E-06       0.001       32.256   0.100E-07
     TRS4 it   9 1.00000000   0.601E-13       0.001       32.256   0.100E-07
     Final TRS4 iteration    9 1.00000000   0.601E-13
     Chemical potential (mu):       0.00510
 
 PAO| energy:  -7.6990722637855802      penalty:   1.2409469807261163E-005
 PAO|LS| adapt:  T T F
 PAO|LS| adapt: scan_steps:    0.0000000000000000       0.23760796808608439        0.0000000000000000     
 PAO|LS| adapt: energies:   -7.6990666782463286       -7.6990722637855802        0.0000000000000000     
 PAO| ======================= Iteration:        30 =============================

     Lanczos converged:  T threshold:   0.100E-02
     Est. extremal eigenvalues:    0.274E+01   0.186E+00
     Est. condition number :    0.147E+02

 Order=           3
     NS sqrt iter    1 1.00000000   0.696E+00       0.001       58.103
     NS sqrt iter    2 1.00000000   0.316E+00       0.001       97.638
     NS sqrt iter    3 1.00000000   0.688E-01       0.001       98.759
     NS sqrt iter    4 1.00000000   0.148E-02       0.001       98.272
     NS sqrt iter    5 1.00000000   0.326E-07       0.001       52.359
     Symmetrizing Results
     Final NS sqrt iter    5 1.00000000   0.480E-08

     Est. extremal eigenvalues     -0.92185     1.66309  converged:  T
     TRS4 it   1 1.00000000   0.883E+00       0.000       16.128   0.100E-07
     TRS4 it   2 1.00000000   0.616E+00       0.001       32.256   0.100E-07
     TRS4 it   3 1.00000000   0.419E+00       0.001       32.256   0.100E-07
     TRS4 it   4 1.00000000   0.216E+00       0.001       32.256   0.100E-07
     TRS4 it   5 1.00000000   0.705E-01       0.001       32.256   0.100E-07
     TRS4 it   6 1.00000000   0.906E-02       0.001       32.256   0.100E-07
     TRS4 it   7 1.00000000   0.190E-03       0.001       32.256   0.100E-07
     TRS4 it   8 1.00000000   0.117E-06       0.001       32.256   0.100E-07
     TRS4 it   9 1.00000000   0.588E-13       0.001       32.256   0.100E-07
     Final TRS4 iteration    9 1.00000000   0.588E-13
     Chemical potential (mu):       0.00523
 
 PAO| energy:  -7.6990765220053516      penalty:   1.2050895013278065E-005
 PAO|LS| adapt:  T T F
 PAO|LS| adapt: scan_steps:    0.0000000000000000       0.47521593617216878        0.0000000000000000     
 PAO|LS| adapt: energies:   -7.6990666782463286       -7.6990765220053516        0.0000000000000000     
 PAO| ======================= Iteration:        31 =============================

     Lanczos converged:  T threshold:   0.100E-02
     Est. extremal eigenvalues:    0.274E+01   0.186E+00
     Est. condition number :    0.147E+02

 Order=           3
     NS sqrt iter    1 1.00000000   0.696E+00       0.001       58.296
     NS sqrt iter    2 1.00000000   0.315E+00       0.001       98.721
     NS sqrt iter    3 1.00000000   0.686E-01       0.001       99.626
     NS sqrt iter    4 1.00000000   0.148E-02       0.001       97.316
     NS sqrt iter    5 1.00000000   0.325E-07       0.001       54.845
     Symmetrizing Results
     Final NS sqrt iter    5 1.00000000   0.467E-08

     Est. extremal eigenvalues     -0.92185     1.66310  converged:  T
     TRS4 it   1 1.00000000   0.883E+00       0.000       16.128   0.100E-07
     TRS4 it   2 1.00000000   0.615E+00       0.001       32.256   0.100E-07
     TRS4 it   3 1.00000000   0.419E+00       0.001       32.256   0.100E-07
     TRS4 it   4 1.00000000   0.216E+00       0.001       32.256   0.100E-07
     TRS4 it   5 1.00000000   0.703E-01       0.001       32.256   0.100E-07
     TRS4 it   6 1.00000000   0.902E-02       0.001       32.256   0.100E-07
     TRS4 it   7 1.00000000   0.188E-03       0.001       32.256   0.100E-07
     TRS4 it   8 1.00000000   0.114E-06       0.001       32.256   0.100E-07
     TRS4 it   9 1.00000000   0.557E-13       0.001       32.256   0.100E-07
     Final TRS4 iteration    9 1.00000000   0.557E-13
     Chemical potential (mu):       0.00550
 
 PAO| energy:  -7.6990810782862598      penalty:   1.1351041951524101E-005
 PAO|LS| Need extra step
 PAO|LS| adapt:  T T F
 PAO|LS| adapt: scan_steps:    0.0000000000000000       0.95043187234433757        0.0000000000000000     
 PAO|LS| adapt: energies:   -7.6990666782463286       -7.6990810782862598        0.0000000000000000     
 PAO| ======================= Iteration:        32 =============================

     Lanczos converged:  T threshold:   0.100E-02
     Est. extremal eigenvalues:    0.274E+01   0.186E+00
     Est. condition number :    0.147E+02

 Order=           3
[...]
     Symmetrizing Results
     Final NS sqrt iter    5 1.00000000   0.144E-10

     Est. extremal eigenvalues     -0.92153     1.45474  converged:  T
     TRS4 it   1 1.00000000   0.837E+00       0.000       16.128   0.100E-07
     TRS4 it   2 1.00000000   0.596E+00       0.001       30.009   0.100E-07
     TRS4 it   3 1.00000000   0.428E+00       0.003       10.695   0.100E-07
     TRS4 it   4 1.00000000   0.261E+00       0.003       10.831   0.100E-07
     TRS4 it   5 1.00000000   0.120E+00       0.002       17.722   0.100E-07
     TRS4 it   6 1.00000000   0.314E-01       0.001       32.256   0.100E-07
     TRS4 it   7 1.00000000   0.294E-02       0.001       32.256   0.100E-07
     TRS4 it   8 1.00000000   0.331E-04       0.001       32.256   0.100E-07
     TRS4 it   9 1.00000000   0.478E-08       0.001       32.256   0.100E-07
     Final TRS4 iteration    9 1.00000000   0.478E-08
     Chemical potential (mu):      -0.07338
 
 PAO| energy:  -7.6982170281660034      penalty:   4.2592395065402842E-013
 PAO|CG| warming up with steepest descent
 PAO|CG| beta:    0.0000000000000000     
 PAO| norm of gradient:   6.8301332281712742E-006
 PAO| energy improvement:  -1.2233769552949525E-011
 PAO| step    858                   -7.698217028  0.427E-06  0.248E+00     0.153
 PAO| converged after          858  steps :-)
 PAO| Recalculating energy after mixing.

     Lanczos converged:  T threshold:   0.100E-02
     Est. extremal eigenvalues:    0.258E+01   0.231E+00
     Est. condition number :    0.112E+02

 Order=           3
     NS sqrt iter    1 1.00000000   0.647E+00       0.001       49.901
     NS sqrt iter    2 1.00000000   0.271E+00       0.001       85.849
     NS sqrt iter    3 1.00000000   0.437E-01       0.001       88.221
     NS sqrt iter    4 1.00000000   0.368E-03       0.001       88.022
     NS sqrt iter    5 1.00000000   0.321E-09       0.001       30.381
     Symmetrizing Results
     Final NS sqrt iter    5 1.00000000   0.144E-10

     Est. extremal eigenvalues     -0.92153     1.45474  converged:  T
     TRS4 it   1 1.00000000   0.837E+00       0.001       16.128   0.100E-07
     TRS4 it   2 1.00000000   0.596E+00       0.001       32.256   0.100E-07
     TRS4 it   3 1.00000000   0.428E+00       0.001       32.256   0.100E-07
     TRS4 it   4 1.00000000   0.261E+00       0.001       32.256   0.100E-07
     TRS4 it   5 1.00000000   0.120E+00       0.001       32.256   0.100E-07
     TRS4 it   6 1.00000000   0.314E-01       0.001       32.256   0.100E-07
     TRS4 it   7 1.00000000   0.294E-02       0.001       32.256   0.100E-07
     TRS4 it   8 1.00000000   0.331E-04       0.001       32.256   0.100E-07
     TRS4 it   9 1.00000000   0.478E-08       0.001       32.256   0.100E-07
     Final TRS4 iteration    9 1.00000000   0.478E-08
     Chemical potential (mu):      -0.07338
 
 PAO| energy:  -7.6982170281629436      penalty:   4.3021782801991733E-013
 PAO| Writing restart file.
     Est. extremal eigenvalues     -0.92153     1.45474  converged:  T
     TRS4 it   1 1.00000000   0.837E+00       0.001       16.128   0.100E-07
     TRS4 it   2 1.00000000   0.596E+00       0.001       32.256   0.100E-07
     TRS4 it   3 1.00000000   0.428E+00       0.001       32.256   0.100E-07
     TRS4 it   4 1.00000000   0.261E+00       0.001       32.256   0.100E-07
     TRS4 it   5 1.00000000   0.120E+00       0.001       32.256   0.100E-07
     TRS4 it   6 1.00000000   0.314E-01       0.001       32.256   0.100E-07
     TRS4 it   7 1.00000000   0.294E-02       0.001       32.256   0.100E-07
     TRS4 it   8 1.00000000   0.331E-04       0.001       32.256   0.100E-07
     TRS4 it   9 1.00000000   0.478E-08       0.001       32.256   0.100E-07
     Final TRS4 iteration    9 1.00000000   0.478E-08
     Chemical potential (mu):      -0.07338

 SCF     1       -34.448763841       -34.448763841    2.405389

*********************************************************
 Using MIXING_FRACTION=0.450 to mix KS matrix:  iscf=  2
 KS_nw=0.450*KS + 0.550*KS_old
*********************************************************
     Est. extremal eigenvalues     -0.92153     1.45474  converged:  T
     TRS4 it   1 1.00000000   0.837E+00       0.000       16.128   0.100E-07
     TRS4 it   2 1.00000000   0.596E+00       0.000       32.256   0.100E-07
     TRS4 it   3 1.00000000   0.428E+00       0.000       32.256   0.100E-07
     TRS4 it   4 1.00000000   0.261E+00       0.000       32.256   0.100E-07
     TRS4 it   5 1.00000000   0.120E+00       0.000       32.256   0.100E-07
     TRS4 it   6 1.00000000   0.314E-01       0.000       32.256   0.100E-07
     TRS4 it   7 1.00000000   0.294E-02       0.000       32.256   0.100E-07
     TRS4 it   8 1.00000000   0.331E-04       0.000       32.256   0.100E-07
     TRS4 it   9 1.00000000   0.478E-08       0.000       32.256   0.100E-07
     Final TRS4 iteration    9 1.00000000   0.478E-08
     Chemical potential (mu):      -0.07338

 SCF     2       -34.448763841        -0.000000000    1.344827


 SCF run converged in     2 steps.

 PAO| Storing density matrix for ASPC guess in slot:           1

 ENERGY| Total FORCE_EVAL ( QS ) energy [a.u.]:              -34.448763841293598

 -------------------------------------------------------------------------------
 -                                                                             -
 -                                DBCSR STATISTICS                             -
 -                                                                             -
 -------------------------------------------------------------------------------
 COUNTER                                    TOTAL       BLAS       SMM       ACC
 flops     5 x     5 x     4                32000       0.0%    100.0%      0.0%
 flops    13 x     5 x     4                33280       0.0%    100.0%      0.0%
 flops     5 x    13 x     4                33280       0.0%    100.0%      0.0%
 flops    13 x    13 x     4                64896       0.0%    100.0%      0.0%
 flops     4 x     4 x     5              6720000       0.0%    100.0%      0.0%
 flops     5 x     4 x     5              8192000       0.0%    100.0%      0.0%
 flops     4 x     4 x    13              8736000       0.0%    100.0%      0.0%
 flops    13 x     4 x     5             10649600       0.0%    100.0%      0.0%
 flops     5 x     4 x    13             10649600       0.0%    100.0%      0.0%
 flops     5 x     4 x     4             12644000       0.0%    100.0%      0.0%
 flops    13 x     4 x    13             13844480       0.0%    100.0%      0.0%
 flops    13 x     4 x     4             16559296       0.0%    100.0%      0.0%
 flops     4 x     4 x     4            852054272       0.0%    100.0%      0.0%
 flops inhomo. stacks                           0       0.0%      0.0%      0.0%
 flops total                       940.212704E+06       0.0%    100.0%      0.0%
 flops max/rank                    940.212704E+06       0.0%    100.0%      0.0%
 matmuls inhomo. stacks                         0       0.0%      0.0%      0.0%
 matmuls total                            6931001       0.0%    100.0%      0.0%
 number of processed stacks                 55530       0.0%    100.0%      0.0%
 average stack size                                     0.0     124.8       0.0
 marketing flops                     1.535386E+09
 -------------------------------------------------------------------------------
 # multiplications                          46283
 max memory usage/rank             505.929728E+06
 # max total images/rank                        1
 # max 3D layers                                1
 # MPI messages exchanged                       0
 -------------------------------------------------------------------------------

 -------------------------------------------------------------------------------
 -                                                                             -
 -                                DBM STATISTICS                               -
 -                                                                             -
 -------------------------------------------------------------------------------
    M  x    N  x    K                                          COUNT     PERCENT
 -------------------------------------------------------------------------------

 -------------------------------------------------------------------------------
 -                                                                             -
 -                                GRID STATISTICS                              -
 -                                                                             -
 -------------------------------------------------------------------------------
 LP    KERNEL             BACKEND                              COUNT     PERCENT
 2     collocate ortho    REF                                  60672      30.72%
 2     integrate ortho    REF                                  60672      30.72%
 3     collocate ortho    REF                                  31264      15.83%
 3     integrate ortho    REF                                  31264      15.83%
 4     collocate ortho    REF                                   6800       3.44%
 4     integrate ortho    REF                                   6800       3.44%
 0     collocate general  REF                                      6       0.00%
 -------------------------------------------------------------------------------

 MEMORY| Estimated peak process memory [MiB]                                 483

 -------------------------------------------------------------------------------
 -                                                                             -
 -                           R E F E R E N C E S                               -
 -                                                                             -
 -------------------------------------------------------------------------------
 
 CP2K version 2023.1 (Development Version), the CP2K developers group (2023).
 CP2K is freely available from https://www.cp2k.org/ .

 Kuehne,Thomas D.; Iannuzzi,Marcella; Del Ben,Mauro;
 Rybkin,Vladimir V.; Seewald,Patrick; Stein,Frederick; Laino,Teodoro;
 Khaliullin,Rustam Z.; Schuett,Ole; Schiffmann,Florian; Golze,Dorothea;
 Wilhelm,Jan; Chulkov,Sergey; Bani-Hashemian,Mohammad Hossein;
 Weber,Valery; Borstnik,Urban; Taillefumier,Mathieu;
 Jakobovits,Alice Shoshana; Lazzaro,Alfio; Pabst,Hans; Mueller,Tiziano;
 Schade,Robert; Guidon,Manuel; Andermatt,Samuel; Holmberg,Nico;
 Schenter,Gregory K.; Hehn,Anna; Bussy,Augustin; Belleflamme,Fabian;
 Tabacchi,Gloria; Gloess,Andreas; Lass,Michael; Bethune,Iain;
 Mundy,Christopher J.; Plessl,Christian; Watkins,Matt;
 VandeVondele,Joost; Krack,Matthias; Hutter,Juerg. 
 The Journal of Chemical Physics, 152 (19), (2020). 
 CP2K: An electronic structure and molecular dynamics software package -
 Quickstep: Efficient and accurate electronic structure calculations.
 https://doi.org/10.1063/5.0007045

 Schuett, O; VandeVondele, J. 
 Journal of Chemical Theory and Computation, 14, (2018). 
 Machine Learning Adaptive Basis Sets for Efficient Large Scale
 Density Functional Theory Simulation.
 https://doi.org/10.1021/acs.jctc.8b00378

 Schuett, Ole; Messmer, Peter; Hutter, Juerg; VandeVondele, Joost. 
 Electronic Structure Calculations on Graphics Processing Units, John
 Wiley & Sons, Ltd, 173-190 (2016). 
 GPU-Accelerated Sparse Matrix-Matrix Multiplication for
 Linear Scaling Density Functional Theory.
 https://doi.org/10.1002/9781118670712.ch8

 Heinecke, A; Henry, G; Hutchinson, M; Pabst, H. 
 Proceedings of Intl. Supercomputing Conference, 981-991 (2016). 
 LIBXSMM: Accelerating Small Matrix Multiplications
 by Runtime Code Generation.
 https://doi.org/10.1109/SC.2016.83

 Borstnik, U; VandeVondele, J; Weber, V; Hutter, J. 
 PARALLEL COMPUTING, 40 (5-6), 47-58 (2014). 
 Sparse matrix multiplication: The distributed block-compressed sparse
 row library.
 https://doi.org/10.1016/j.parco.2014.03.012

 Hutter, J; Iannuzzi, M; Schiffmann, F; VandeVondele, J. 
 WIREs Comput Mol Sci., 4 (1), 15-25 (2014). 
 CP2K: atomistic simulations of condensed matter systems.
 https://doi.org/10.1002/wcms.1159

 VandeVondele, J; Borstnik, U; Hutter, J. 
 JOURNAL OF CHEMICAL THEORY AND COMPUTATION, 8 (10), 3565-3573 (2012). 
 Linear Scaling Self-Consistent Field Calculations with Millions of Atoms
 in the Condensed Phase.
 https://doi.org/10.1021/ct200897x

 VandeVondele, J; Hutter, J. 
 JOURNAL OF CHEMICAL PHYSICS, 127 (11), 114105 (2007). 
 Gaussian basis sets for accurate calculations on molecular systems in
 gas and condensed phases.
 https://doi.org/10.1063/1.2770708

 Krack, M. 
 THEORETICAL CHEMISTRY ACCOUNTS, 114 (1-3), 145-152 (2005). 
 Pseudopotentials for H to Kr optimized for gradient-corrected
 exchange-correlation functionals.
 https://doi.org/10.1007/s00214-005-0655-y

 VandeVondele, J; Krack, M; Mohamed, F; Parrinello, M; Chassaing, T;
 Hutter, J. COMPUTER PHYSICS COMMUNICATIONS, 167 (2), 103-128 (2005). 
 QUICKSTEP: Fast and accurate density functional calculations using a
 mixed Gaussian and plane waves approach.
 https://doi.org/10.1016/j.cpc.2004.12.014

 Frigo, M; Johnson, SG. 
 PROCEEDINGS OF THE IEEE, 93 (2), 216-231 (2005). 
 The design and implementation of FFTW3.
 https://doi.org/10.1109/JPROC.2004.840301

 Niklasson, AMN; Tymczak, CJ; Challacombe, M. 
 JOURNAL OF CHEMICAL PHYSICS, 118 (19), 8611-8620 (2003). 
 Trace resetting density matrix purification in O(N)
 self-consistent-field theory.
 https://doi.org/10.1063/1.1559913

 Hartwigsen, C; Goedecker, S; Hutter, J. 
 PHYSICAL REVIEW B, 58 (7), 3641-3662 (1998). 
 Relativistic separable dual-space Gaussian pseudopotentials from H to Rn.
 https://doi.org/10.1103/PhysRevB.58.3641

 Lippert, G; Hutter, J; Parrinello, M. 
 MOLECULAR PHYSICS, 92 (3), 477-487 (1997). 
 A hybrid Gaussian and plane wave density functional scheme.
 https://doi.org/10.1080/002689797170220

 Perdew, JP; Burke, K; Ernzerhof, M. 
 PHYSICAL REVIEW LETTERS, 77 (18), 3865-3868 (1996). 
 Generalized gradient approximation made simple.
 https://doi.org/10.1103/PhysRevLett.77.3865

 Goedecker, S; Teter, M; Hutter, J. 
 PHYSICAL REVIEW B, 54 (3), 1703-1710 (1996). 
 Separable dual-space Gaussian pseudopotentials.
 https://doi.org/10.1103/PhysRevB.54.1703


 -------------------------------------------------------------------------------
 -                                                                             -
 -                                T I M I N G                                  -
 -                                                                             -
 -------------------------------------------------------------------------------
 SUBROUTINE                       CALLS  ASD         SELF TIME        TOTAL TIME
                                MAXIMUM       AVERAGE  MAXIMUM  AVERAGE  MAXIMUM
 CP2K                                 1  1.0    0.015    0.015   87.398   87.398
 qs_energies                          1  2.0    0.000    0.000   86.685   86.685
 ls_scf                               1  3.0    0.000    0.000   86.479   86.479
 ls_scf_main                          7  4.0    0.002    0.002   56.782   56.782
 ls_scf_dm_to_ks                     15  5.0    0.001    0.001   56.605   56.605
 qs_ks_update_qs_env                 16  6.0    0.000    0.000   46.889   46.889
 rebuild_ks_matrix                   16  7.0    0.000    0.000   46.888   46.888
 qs_ks_build_kohn_sham_matrix        16  8.0    0.005    0.005   46.888   46.888
 qs_vxc_create                       16  9.0    0.001    0.001   28.176   28.176
 xc_vxc_pw_create                    16 10.0    0.528    0.528   28.175   28.175
 pw_transfer                        305 11.1    0.061    0.061   24.669   24.669
 fft_wrap_pw1pw2                    273 12.3    0.007    0.007   24.011   24.011
 pao_update                           7  4.0    0.020    0.020   23.823   23.823
 fft_wrap_pw1pw2_200                177 13.7    2.388    2.388   23.194   23.194
 pao_calc_energy                    864  5.0    0.008    0.008   21.742   21.742
 dbcsr_multiply_generic           46283  8.4    0.974    0.974   16.923   16.923
 xc_pw_derive                        96 12.0    0.003    0.003   16.699   16.699
 qs_rho_update_rho_low               16  6.0    0.000    0.000   15.422   15.422
 calculate_rho_elec                  16  7.0    0.089    0.089   15.422   15.422
 xc_rho_set_and_dset_create          16 11.0    0.639    0.639   15.420   15.420
 sum_up_and_integrate                16  9.0    0.415    0.415   14.507   14.507
 integrate_v_rspace                  16 10.0    0.002    0.002   14.091   14.091
 xc_pw_divergence                    16 11.0    0.001    0.001   11.874   11.874
 pao_dm_trs4                        864  6.0    0.007    0.007   11.086   11.086
 grid_integrate_task_list            16 11.0   10.966   10.966   10.966   10.966
 ls_scf_init_matrix_S               871  7.0    0.007    0.007   10.576   10.576
 density_matrix_trs4                879  7.0    0.312    0.312   10.570   10.570
 pao_rebuild_S                      864  6.0    0.003    0.003   10.441   10.441
 fft3d_s                            274 14.2   10.290   10.290   10.321   10.321
 grid_collocate_task_list            16  8.0   10.046   10.046   10.046   10.046
 matrix_sqrt_Newton_Schulz          871  8.0    0.278    0.278    9.571    9.571
 multiply_cannon                  46283  9.4    2.759    2.759    6.509    6.509
 make_m2s                         92566  9.4    0.456    0.456    6.416    6.416
 xc_functional_eval                  16 12.0    0.000    0.000    6.032    6.032
 pbe_lda_eval                        16 13.0    6.031    6.031    6.031    6.031
 pao_guess_initial_P                  1  4.0    0.000    0.000    5.718    5.718
 pao_read_preopt_dm                   1  5.0    0.000    0.000    5.718    5.718
 make_images                      92566 10.4    1.607    1.607    5.656    5.656
 pw_gather_s                        129 13.8    5.627    5.627    5.627    5.627
 pw_scatter_s                       144 14.7    5.554    5.554    5.554    5.554
 density_rs2pw                       16  8.0    0.002    0.002    5.286    5.286
 arnoldi_extremal                  1750  8.5    0.008    0.008    3.452    3.452
 arnoldi_normal_ev                 1750  9.5    0.025    0.025    3.444    3.444
 pw_derive                           96 13.0    3.326    3.326    3.326    3.326
 potential_pw2rs                     16 11.0    0.009    0.009    3.123    3.123
 build_subspace                    1750 10.5    0.171    0.171    2.771    2.771
 dbcsr_matrix_vector_mult         41991 11.5    0.298    0.298    2.525    2.525
 pw_copy                            192 11.8    2.292    2.292    2.292    2.292
 pao_calc_AB                       1135  5.8    0.002    0.002    2.142    2.142
 pao_calc_AB_equi                  1135  6.8    0.058    0.058    2.140    2.140
 dbcsr_finalize                  110740  9.6    0.357    0.357    1.925    1.925
 pao_calc_grad_lnv_wrt_AB           270  7.0    0.013    0.013    1.872    1.872
 pw_axpy                            144 10.3    1.786    1.786    1.786    1.786
 dbcsr_create_new                355430 10.7    1.066    1.066    1.778    1.778
 -------------------------------------------------------------------------------

 The number of warnings for this run is : 0
 
 -------------------------------------------------------------------------------
  **** **** ******  **  PROGRAM ENDED AT                 2023-02-01 10:49:23.293
 ***** ** ***  *** **   PROGRAM RAN ON                                    moritz
 **    ****   ******    PROGRAM RAN BY                                       ole
 ***** **    ** ** **   PROGRAM PROCESS ID                                148744
  **** **  *******  **  PROGRAM STOPPED IN /home/ole/git/pao_ml_equivar/2H2O_MD/
                                           frame_0925
