       6
 i =      925, time =      185.000, E =       -34.4492961602
  O         2.4190747556        4.2222671557        3.4517503950
  H         1.7244412228        4.3067173289        4.1187951925
  H         2.1106503493        3.5423135822        2.8058142492
  O         5.4337234571        4.2418474732        4.5806071313
  H         5.1495355229        3.5153447733        5.1892423053
  H         4.6251764315        4.3900586712        4.0225064815
