 DBCSR| CPU Multiplication driver                                           XSMM (U)
 DBCSR| Multrec recursion limit                                              512 (U)
 DBCSR| Multiplication stack size                                           1000 (D)
 DBCSR| Maximum elements for images                                    UNLIMITED (U)
 DBCSR| Multiplicative factor virtual images                                   1 (U)
 DBCSR| Use multiplication densification                                       T (D)
 DBCSR| Multiplication size stacks                                             3 (U)
 DBCSR| Use memory pool for CPU allocation                                     F (U)
 DBCSR| Number of 3D layers                                               SINGLE (U)
 DBCSR| Use MPI memory allocation                                              F (U)
 DBCSR| Use RMA algorithm                                                      F (U)
 DBCSR| Use Communication thread                                               T (U)
 DBCSR| Communication thread load                                             87 (D)
 DBCSR| MPI: My process id                                                     0
 DBCSR| MPI: Number of processes                                              32
 DBCSR| OMP: Current number of threads                                         1
 DBCSR| OMP: Max number of threads                                             1
 DBCSR| Split modifier for TAS multiplication algorithm                  1.0E+00 (U)


  **** **** ******  **  PROGRAM STARTED AT               2024-09-24 04:36:36.466
 ***** ** ***  *** **   PROGRAM STARTED ON                                moritz
 **    ****   ******    PROGRAM STARTED BY                                   ole
 ***** **    ** ** **   PROGRAM PROCESS ID                                168736
  **** **  *******  **  PROGRAM STARTED IN /home/ole/git/pao_ml_equivar/64H2O_MD
                                           /Frame5100

 CP2K| version string:                 CP2K version 2024.3 (Development Version)
 CP2K| source code revision number:                                  git:3f890bb
 CP2K| cp2kflags: omp libint fftw3 libxc libgrpp pexsi elpa parallel scalapack c
 CP2K|            osma quip deepmd xsmm plumed2 spglib libdftd4 sirius libvori l
 CP2K|            libbqb libvdwxc hdf5
 CP2K| is freely available from                            https://www.cp2k.org/
 CP2K| Program compiled at                          Mo 23 Sep 2024 17:17:04 CEST
 CP2K| Program compiled on                                                moritz
 CP2K| Program compiled for                                                local
 CP2K| Data directory path                               /home/ole/git/cp2k/data
 CP2K| Input file name                                           64H2O_pao44.inp

 GLOBAL| Force Environment number                                              1
 GLOBAL| Basis set file name                                        BASIS_MOLOPT
 GLOBAL| Potential file name                                      GTH_POTENTIALS
 GLOBAL| MM Potential file name                                     MM_POTENTIAL
 GLOBAL| Coordinate file name                                         coords.xyz
 GLOBAL| Method name                                                        CP2K
 GLOBAL| Project name                                                64H2O_pao44
 GLOBAL| Run type                                                         ENERGY
 GLOBAL| FFT library                                                       FFTW3
 GLOBAL| Diagonalization library                                            ELPA
 GLOBAL| DGEMM library                                                      BLAS
 GLOBAL| Minimum number of eigenvectors for ELPA usage                        16
 GLOBAL| Orthonormality check for eigenvectors                          DISABLED
 GLOBAL| Matrix multiplication library                                     COSMA
 GLOBAL| All-to-all communication in single precision                          F
 GLOBAL| FFTs using library dependent lengths                                  F
 GLOBAL| Grid backend                                                       AUTO
 GLOBAL| Global print level                                                  LOW
 GLOBAL| MPI I/O enabled                                                       T
 GLOBAL| Total number of message passing processes                            32
 GLOBAL| Number of threads for this process                                    1
 GLOBAL| This output is from process                                           0
 GLOBAL| Stack size for threads created by OpenMP (OMP_STACKSIZE)        default
 GLOBAL| CPU model name           AMD Ryzen Threadripper 3970X 32-Core Processor
 GLOBAL| CPUID                                                              1002

 MEMORY| system memory details [Kb]
 MEMORY|                        rank 0           min           max       average
 MEMORY| MemTotal            131752136     131752136     131752136     131752136
 MEMORY| MemFree             114308036     114308036     114308036     114308036
 MEMORY| Buffers               2019400       2019400       2019400       2019400
 MEMORY| Cached                8694828       8694828       8694832       8694828
 MEMORY| Slab                  1642780       1642780       1642780       1642780
 MEMORY| SReclaimable          1145580       1145580       1145580       1145580
 MEMORY| MemLikelyFree       126167844     126167844     126167848     126167844


 GENERATE|  Preliminary Number of Bonds generated:                             0
 GENERATE|  Achieved consistency in connectivity generation.

 *******************************************************************************
 *******************************************************************************
 **                                                                           **
 **     #####                         ##              ##                      **
 **    ##   ##            ##          ##              ##                      **
 **   ##     ##                       ##            ######                    **
 **   ##     ##  ##   ##  ##   #####  ##  ##   ####   ##    #####    #####    **
 **   ##     ##  ##   ##  ##  ##      ## ##   ##      ##   ##   ##  ##   ##   **
 **   ##  ## ##  ##   ##  ##  ##      ####     ###    ##   ######   ######    **
 **    ##  ###   ##   ##  ##  ##      ## ##      ##   ##   ##       ##        **
 **     #######   #####   ##   #####  ##  ##  ####    ##    #####   ##        **
 **           ##                                                    ##        **
 **                                                                           **
 **                                                ... make the atoms dance   **
 **                                                                           **
 **            Copyright (C) by CP2K developers group (2000-2024)             **
 **                      J. Chem. Phys. 152, 194103 (2020)                    **
 **                                                                           **
 *******************************************************************************


 TOTAL NUMBERS AND MAXIMUM NUMBERS

  Total number of            - Atomic kinds:                                   2
                             - Atoms:                                        192
                             - Shell sets:                                   192
                             - Shells:                                       704
                             - Primitive Cartesian functions:               1344
                             - Cartesian basis functions:                   1536
                             - Spherical basis functions:                   1472

  Maximum angular momentum of- Orbital basis functions:                        2
                             - Local part of the GTH pseudopotential:          2
                             - Non-local part of the GTH pseudopotential:      0

 ------------------------------ Linear scaling SCF -----------------------------
 eps_scf:                                                              0.100E-07
 eps_filter:                                                           0.100E-11
 mixing_fraction:                                                      0.450E+00
 max_scf:                                                                     25
 fixed chemical potential (mu)                                                 F
 has unit metric:                                                              F
 Computing inv(S):                                                             T
 Computing sqrt(S):                                                            T
 Computing S preconditioner                                                    F
 S sqrt method:                                                     NEWTONSCHULZ
 S sqrt order:                                                                 3
 Extrapolation order:                                                          1
 S preconditioner type                                                      NONE
 Polarized Atomic Orbitals (PAO)                                               T
 Purification method                                   Trace resetting 4th order
 Cluster type                                                             ATOMIC
 Computing Chebyshev                                                       FALSE
 Using PAO                                                                     T
 -------------------------------------------------------------------------------

 
 PAO|                                  EPS_PAO                           0.5E-06
 PAO|                                  MIXING                            0.5E+00
 PAO|                                  MAX_PAO                              1500
 PAO|                                  MAX_CYCLES                           1000
 PAO|                                  PARAMETERIZATION              EQUIVARIANT
 PAO|                                  PRECONDITION                            F
 PAO|                                  REGULARIZATION                    0.0E+00
 PAO|                                  EPS_PGF                           0.1E-09
 PAO|                                  PENALTY_DISTANCE                  0.1E+00
 PAO|                                  PENALTY_STRENGTH                  0.5E-02
 PAO|                                  LINPOT_PRECONDITION_DELTA         0.0E+00
 PAO|                                  LINPOT_INITGUESS_DELT             0.0E+00
 PAO|                                  LINPOT_REGULARIZATION_DELTA       0.0E+00
 PAO|                                  LINPOT_REGULARIZATION_STRENGTH    0.0E+00
 PAO|                                  OPTIMIZER                              CG
 PAO|                                  CG_INIT_STEPS                           2
 PAO|                                  CG_RESET_LIMIT                    0.1E+00
 PAO|                                  CHECK_UNITARY_TOL                -0.1E+01
 PAO|                                  CHECK_GRADIENT_TOL               -0.1E+01
 PAO|                                  NUM_GRADIENT_ORDER                      2
 PAO|                                  NUM_GRADIENT_EPS                  0.1E-07
 PAO|                                  PRINT%RESTART%WRITE_CYCLES            100
 PAO|                                  RESTART_FILE 
 PAO|                                  PREOPT_DM_FILE 64H2O_ref_LS_DM_SPIN_1_RESTART.dm
 PAO|                                  MACHINE_LEARNING%METHOD       GAUSSIAN_PR
 PAO|                                  MACHINE_LEARNING%PRIOR               ZERO
 PAO|                                  MACHINE_LEARNING%DESCRIPTOR     POTENTIAL
 PAO|                                  MACHINE_LEARNING%TOLERANCE        0.1E-01
 PAO|                                  MACHINE_LEARNING%GP_NOISE_VAR     0.1E+00
 PAO|                                  MACHINE_LEARNING%GP_SCALE         0.5E-01
 

 Calculating atomic Fock matrix for atomic kind: O

 Electronic structure
    Total number of core electrons                                          2.00
    Total number of valence electrons                                       6.00
    Total number of electrons                                               8.00
    Multiplicity                                                   not specified
    S   [  2.00] 2.00
    P      4.00


 *******************************************************************************
                  Iteration          Convergence                     Energy [au]
 *******************************************************************************
                          1        0.708315                     -15.576645311500
                          2        0.608879                     -15.587933561584
                          3        0.102828E-01                 -15.656849565404
                          4        0.113889E-02                 -15.656866888140
                          5        0.434197E-03                 -15.656867072159
                          6        0.263771E-03                 -15.656867091904
                          7        0.478536E-06                 -15.656867103452

 Energy components [Hartree]           Total Energy ::          -15.656867103452
                                        Band Energy ::           -3.000198112285
                                     Kinetic Energy ::           11.759971203220
                                   Potential Energy ::          -27.416838306672
                                      Virial (-V/T) ::            2.331369510426
                                        Core Energy ::          -26.140716385623
                                          XC Energy ::           -3.154051012914
                                     Coulomb Energy ::           13.637900295084
                       Total Pseudopotential Energy ::          -37.935781716540
                       Local Pseudopotential Energy ::          -39.218907440693
                    Nonlocal Pseudopotential Energy ::            1.283125724153
                                        Confinement ::            0.350941276976

 Orbital energies  State     L     Occupation   Energy[a.u.]          Energy[eV]

                       1     0          2.000      -0.864471          -23.523463

                       1     1          4.000      -0.317814           -8.648154


 Total Electron Density at R=0:                                         0.000068

 Calculating atomic Fock matrix for atomic kind: H

 Electronic structure
    Total number of core electrons                                          0.00
    Total number of valence electrons                                       1.00
    Total number of electrons                                               1.00
    Multiplicity                                                   not specified
    S      1.00


 *******************************************************************************
                  Iteration          Convergence                     Energy [au]
 *******************************************************************************
                          1        0.437545E-02                  -0.424159432110
                          2        0.531356E-03                  -0.424178438213
                          3        0.259176E-06                  -0.424178722480

 Energy components [Hartree]           Total Energy ::           -0.424178722480
                                        Band Energy ::           -0.199015229016
                                     Kinetic Energy ::            0.464007633961
                                   Potential Energy ::           -0.888186356441
                                      Virial (-V/T) ::            1.914163240935
                                        Core Energy ::           -0.479160803564
                                          XC Energy ::           -0.244352904054
                                     Coulomb Energy ::            0.299334985138
                       Total Pseudopotential Energy ::           -0.962295316385
                       Local Pseudopotential Energy ::           -0.962295316385
                    Nonlocal Pseudopotential Energy ::            0.000000000000
                                        Confinement ::            0.191268788606

 Orbital energies  State     L     Occupation   Energy[a.u.]          Energy[eV]

                       1     0          1.000      -0.199015           -5.415480


 Total Electron Density at R=0:                                         0.242907
 PAO| Made initial guess for matrix_X with norm:   27.712812921102035     

     Lanczos converged:  F threshold:   0.100E-02
     Est. extremal eigenvalues:    0.613E+01   0.911E-01
     Est. condition number :    0.673E+02

 Order=           3
     NS sqrt iter    1 1.00000000   0.150E+01       0.021     2745.467
     NS sqrt iter    2 1.00000000   0.816E+00       0.034     3367.466
     NS sqrt iter    3 1.00000000   0.328E+00       0.034     3380.363
     NS sqrt iter    4 1.00000000   0.909E-01       0.033     3406.485
     NS sqrt iter    5 1.00000000   0.321E-02       0.033     3401.838
     NS sqrt iter    6 1.00000000   0.281E-06       0.029     2939.072
     Symmetrizing Results
     Final NS sqrt iter    6 1.00000000   0.187E-12

 PAO| Read restart DM 64H2O_ref_LS_DM_SPIN_1_RESTART.dm with checksum:    6138.3643088399458     
 PAO| Quickstep energy from restart density:  -1103.1257050590059     
 PAO| ======================= Iteration:         1 =============================

     Lanczos converged:  F threshold:   0.100E-02
     Est. extremal eigenvalues:    0.613E+01   0.911E-01
     Est. condition number :    0.673E+02

 Order=           3
     NS sqrt iter    1 1.00000000   0.150E+01       0.021     2730.553
     NS sqrt iter    2 1.00000000   0.816E+00       0.033     3395.742
     NS sqrt iter    3 1.00000000   0.328E+00       0.033     3410.316
     NS sqrt iter    4 1.00000000   0.909E-01       0.033     3392.096
     NS sqrt iter    5 1.00000000   0.321E-02       0.033     3394.782
     NS sqrt iter    6 1.00000000   0.281E-06       0.029     2953.088
     Symmetrizing Results
     Final NS sqrt iter    6 1.00000000   0.187E-12

     Est. extremal eigenvalues     -0.81991     2.67553  converged:  T
     TRS4 it   1 1.00000000   0.275E+02       0.007     2150.110   0.100E-11
     TRS4 it   2 1.00000000   0.239E+02       0.013     2244.175   0.100E-11
     TRS4 it   3 1.00000000   0.161E+02       0.013     2215.054   0.100E-11
     TRS4 it   4 1.00000000   0.100E+02       0.013     2233.698   0.100E-11
     TRS4 it   5 1.00000000   0.485E+01       0.013     2242.198   0.100E-11
     TRS4 it   6 1.00000000   0.162E+01       0.013     2227.858   0.100E-11
     TRS4 it   7 1.00000000   0.324E+00       0.013     2233.144   0.100E-11
     TRS4 it   8 1.00000000   0.241E-01       0.013     2227.460   0.100E-11
     TRS4 it   9 1.00000000   0.236E-03       0.013     2214.313   0.100E-11
     TRS4 it  10 1.00000000   0.268E-07       0.013     2229.420   0.100E-11
     TRS4 it  11 1.00000000   0.888E-14       0.013     2225.466   0.100E-11
     Final TRS4 iteration   11 1.00000000   0.888E-14
     Chemical potential (mu):       0.00925
 
 PAO| energy:  -186.41685050570339      penalty:   1.3558546808486140E-031
 PAO|CG| warming up with steepest descent
 PAO|CG| beta:    0.0000000000000000     
 PAO| norm of gradient:   3.9889601973286126     
 PAO|LS| adapt:  T F F
 PAO|LS| adapt: scan_steps:    0.0000000000000000        0.0000000000000000        0.0000000000000000     
 PAO|LS| adapt: energies:   -186.41685050570339        0.0000000000000000        0.0000000000000000     
 PAO| ======================= Iteration:         2 =============================

     Lanczos converged:  F threshold:   0.100E-02
     Est. extremal eigenvalues:    0.592E+01   0.977E-01
     Est. condition number :    0.607E+02

 Order=           3
     NS sqrt iter    1 1.00000000   0.145E+01       0.021     2733.619
     NS sqrt iter    2 1.00000000   0.787E+00       0.033     3406.517
     NS sqrt iter    3 1.00000000   0.308E+00       0.033     3425.303
     NS sqrt iter    4 1.00000000   0.764E-01       0.034     3380.171
     NS sqrt iter    5 1.00000000   0.201E-02       0.033     3399.588
     NS sqrt iter    6 1.00000000   0.819E-07       0.029     2944.548
     Symmetrizing Results
     Final NS sqrt iter    6 1.00000000   0.208E-13

     Est. extremal eigenvalues     -0.82326     2.66423  converged:  T
     TRS4 it   1 1.00000000   0.277E+02       0.007     2152.389   0.100E-11
     TRS4 it   2 1.00000000   0.239E+02       0.013     2255.397   0.100E-11
     TRS4 it   3 1.00000000   0.159E+02       0.013     2254.761   0.100E-11
     TRS4 it   4 1.00000000   0.983E+01       0.013     2230.844   0.100E-11
     TRS4 it   5 1.00000000   0.464E+01       0.013     2242.159   0.100E-11
     TRS4 it   6 1.00000000   0.149E+01       0.013     2264.068   0.100E-11
     TRS4 it   7 1.00000000   0.278E+00       0.013     2252.393   0.100E-11
     TRS4 it   8 1.00000000   0.175E-01       0.013     2264.038   0.100E-11
     TRS4 it   9 1.00000000   0.113E-03       0.013     2232.053   0.100E-11
     TRS4 it  10 1.00000000   0.709E-08       0.013     2239.425   0.100E-11
     TRS4 it  11 1.00000000   0.107E-13       0.013     2217.752   0.100E-11
     Final TRS4 iteration   11 1.00000000   0.107E-13
     Chemical potential (mu):       0.01492
 
 PAO| energy:  -187.87654499927550      penalty:   4.7440100597521990E-007
 PAO|LS| adapt:  T T F
 PAO|LS| adapt: scan_steps:    0.0000000000000000       0.10000000000000001        0.0000000000000000     
 PAO|LS| adapt: energies:   -186.41685050570339       -187.87654499927550        0.0000000000000000     
 PAO| ======================= Iteration:         3 =============================

     Lanczos converged:  F threshold:   0.100E-02
     Est. extremal eigenvalues:    0.571E+01   0.104E+00
     Est. condition number :    0.550E+02

 Order=           3
     NS sqrt iter    1 1.00000000   0.141E+01       0.021     2745.865
     NS sqrt iter    2 1.00000000   0.758E+00       0.033     3409.630
     NS sqrt iter    3 1.00000000   0.288E+00       0.033     3392.739
     NS sqrt iter    4 1.00000000   0.640E-01       0.033     3388.845
     NS sqrt iter    5 1.00000000   0.127E-02       0.033     3412.629
     NS sqrt iter    6 1.00000000   0.248E-07       0.029     2916.366
     Symmetrizing Results
     Final NS sqrt iter    6 1.00000000   0.365E-14

     Est. extremal eigenvalues     -0.82645     2.65599  converged:  T
     TRS4 it   1 1.00000000   0.279E+02       0.006     2194.803   0.100E-11
     TRS4 it   2 1.00000000   0.238E+02       0.013     2234.480   0.100E-11
     TRS4 it   3 1.00000000   0.158E+02       0.013     2227.760   0.100E-11
     TRS4 it   4 1.00000000   0.965E+01       0.013     2274.153   0.100E-11
     TRS4 it   5 1.00000000   0.444E+01       0.013     2247.723   0.100E-11
     TRS4 it   6 1.00000000   0.137E+01       0.013     2233.065   0.100E-11
     TRS4 it   7 1.00000000   0.237E+00       0.013     2238.709   0.100E-11
     TRS4 it   8 1.00000000   0.123E-01       0.013     2243.557   0.100E-11
     TRS4 it   9 1.00000000   0.515E-04       0.013     2256.205   0.100E-11
     TRS4 it  10 1.00000000   0.168E-08       0.013     2264.142   0.100E-11
     TRS4 it  11 1.00000000   0.195E-13       0.013     2255.744   0.100E-11
     Final TRS4 iteration   11 1.00000000   0.195E-13
     Chemical potential (mu):       0.02129
 
 PAO| energy:  -189.05711956572296      penalty:   7.5904160956486221E-006
 PAO|LS| adapt:  T T F
 PAO|LS| adapt: scan_steps:    0.0000000000000000       0.20000000000000001        0.0000000000000000     
 PAO|LS| adapt: energies:   -186.41685050570339       -189.05711956572296        0.0000000000000000     
 PAO| ======================= Iteration:         4 =============================

     Lanczos converged:  F threshold:   0.100E-02
     Est. extremal eigenvalues:    0.531E+01   0.114E+00
     Est. condition number :    0.465E+02

 Order=           3
     NS sqrt iter    1 1.00000000   0.133E+01       0.021     2737.304
     NS sqrt iter    2 1.00000000   0.703E+00       0.033     3407.547
     NS sqrt iter    3 1.00000000   0.250E+00       0.033     3426.911
     NS sqrt iter    4 1.00000000   0.448E-01       0.033     3412.180
     NS sqrt iter    5 1.00000000   0.522E-03       0.033     3393.856
     NS sqrt iter    6 1.00000000   0.232E-08       0.029     2888.604
     Symmetrizing Results
     Final NS sqrt iter    6 1.00000000   0.152E-13

     Est. extremal eigenvalues     -0.83170     2.65002  converged:  T
     TRS4 it   1 1.00000000   0.283E+02       0.007     2129.561   0.100E-11
     TRS4 it   2 1.00000000   0.238E+02       0.013     2234.161   0.100E-11
     TRS4 it   3 1.00000000   0.157E+02       0.013     2235.742   0.100E-11
     TRS4 it   4 1.00000000   0.932E+01       0.013     2242.659   0.100E-11
     TRS4 it   5 1.00000000   0.408E+01       0.013     2228.784   0.100E-11
     TRS4 it   6 1.00000000   0.115E+01       0.013     2261.217   0.100E-11
     TRS4 it   7 1.00000000   0.170E+00       0.013     2230.252   0.100E-11
     TRS4 it   8 1.00000000   0.591E-02       0.013     2236.440   0.100E-11
     TRS4 it   9 1.00000000   0.102E-04       0.013     2246.435   0.100E-11
     TRS4 it  10 1.00000000   0.802E-10       0.013     2256.327   0.100E-11
     Final TRS4 iteration   10 1.00000000   0.802E-10
     Chemical potential (mu):       0.03880
 
 PAO| energy:  -190.54002040501629      penalty:   1.2144665753073967E-004
 PAO|LS| Need extra step
 PAO|LS| adapt:  T T F
 PAO|LS| adapt: scan_steps:    0.0000000000000000       0.40000000000000002        0.0000000000000000     
 PAO|LS| adapt: energies:   -186.41685050570339       -190.54002040501629        0.0000000000000000     
 PAO| ======================= Iteration:         5 =============================

     Lanczos converged:  F threshold:   0.100E-02
     Est. extremal eigenvalues:    0.463E+01   0.129E+00
     Est. condition number :    0.360E+02

 Order=           3
     NS sqrt iter    1 1.00000000   0.120E+01       0.021     2723.511
     NS sqrt iter    2 1.00000000   0.611E+00       0.033     3415.839
     NS sqrt iter    3 1.00000000   0.192E+00       0.033     3399.329
     NS sqrt iter    4 1.00000000   0.231E-01       0.033     3415.039
     NS sqrt iter    5 1.00000000   0.966E-04       0.033     3397.340
     NS sqrt iter    6 1.00000000   0.220E-10       0.018     2215.575
     Symmetrizing Results
     Final NS sqrt iter    6 1.00000000   0.206E-11

     Est. extremal eigenvalues     -0.83479     2.64480  converged:  T
     TRS4 it   1 1.00000000   0.289E+02       0.007     2167.005   0.100E-11
     TRS4 it   2 1.00000000   0.238E+02       0.013     2232.762   0.100E-11
     TRS4 it   3 1.00000000   0.154E+02       0.013     2230.886   0.100E-11
     TRS4 it   4 1.00000000   0.883E+01       0.013     2244.088   0.100E-11
     TRS4 it   5 1.00000000   0.357E+01       0.013     2242.815   0.100E-11
     TRS4 it   6 1.00000000   0.863E+00       0.013     2253.686   0.100E-11
     TRS4 it   7 1.00000000   0.944E-01       0.013     2262.217   0.100E-11
     TRS4 it   8 1.00000000   0.170E-02       0.013     2254.512   0.100E-11
     TRS4 it   9 1.00000000   0.791E-06       0.013     2237.398   0.100E-11
     TRS4 it  10 1.00000000   0.545E-12       0.013     2236.131   0.100E-11
     Final TRS4 iteration   10 1.00000000   0.545E-12
     Chemical potential (mu):       0.06101
 
 PAO| energy:  -190.12659501353471      penalty:   1.9431465204947165E-003
 PAO|LS| Need extra step
 PAO|LS| adapt:  T T T
 PAO|LS| adapt: scan_steps:    0.0000000000000000       0.40000000000000002       0.80000000000000004     
 PAO|LS| adapt: energies:   -186.41685050570339       -190.54002040501629       -190.12659501353471     
 PAO|LS| adapt: suggested step_size:   0.56354751834967598     
 PAO|LS| adapt: predicted energy  -190.91922009749575     
 PAO| ======================= Iteration:         6 =============================

     Lanczos converged:  F threshold:   0.100E-02
     Est. extremal eigenvalues:    0.500E+01   0.120E+00
     Est. condition number :    0.416E+02

 Order=           3
     NS sqrt iter    1 1.00000000   0.127E+01       0.021     2744.380
     NS sqrt iter    2 1.00000000   0.661E+00       0.033     3411.562
     NS sqrt iter    3 1.00000000   0.223E+00       0.033     3414.338
     NS sqrt iter    4 1.00000000   0.338E-01       0.033     3416.352
     NS sqrt iter    5 1.00000000   0.257E-03       0.033     3396.596
     NS sqrt iter    6 1.00000000   0.334E-09       0.028     2717.513
     Symmetrizing Results
     Final NS sqrt iter    6 1.00000000   0.423E-12

     Est. extremal eigenvalues     -0.83429     2.64891  converged:  T
     TRS4 it   1 1.00000000   0.285E+02       0.007     2173.924   0.100E-11
     TRS4 it   2 1.00000000   0.238E+02       0.013     2216.146   0.100E-11
     TRS4 it   3 1.00000000   0.156E+02       0.013     2233.951   0.100E-11
     TRS4 it   4 1.00000000   0.910E+01       0.013     2261.357   0.100E-11
     TRS4 it   5 1.00000000   0.384E+01       0.013     2221.769   0.100E-11
     TRS4 it   6 1.00000000   0.101E+01       0.013     2267.496   0.100E-11
     TRS4 it   7 1.00000000   0.131E+00       0.013     2249.557   0.100E-11
     TRS4 it   8 1.00000000   0.336E-02       0.013     2235.382   0.100E-11
     TRS4 it   9 1.00000000   0.309E-05       0.013     2249.656   0.100E-11
     TRS4 it  10 1.00000000   0.778E-11       0.013     2230.821   0.100E-11
     Final TRS4 iteration   10 1.00000000   0.778E-11
     Chemical potential (mu):       0.04889
 
 PAO| energy:  -190.89225680060062      penalty:   4.7848438330070047E-004
 PAO|CG| warming up with steepest descent
 PAO|CG| beta:    0.0000000000000000     
 PAO| norm of gradient:   2.1286422256079507     
 PAO| energy improvement:  -4.4754062948972262     
 PAO| step      6                 -190.892256801  0.416E-02  0.564E+00     2.466
 PAO|LS| adapt:  T F F
 PAO|LS| adapt: scan_steps:    0.0000000000000000        0.0000000000000000        0.0000000000000000     
 PAO|LS| adapt: energies:   -190.89225680060062        0.0000000000000000        0.0000000000000000     
 PAO| ======================= Iteration:         7 =============================

     Lanczos converged:  T threshold:   0.100E-02
     Est. extremal eigenvalues:    0.485E+01   0.126E+00
     Est. condition number :    0.384E+02

 Order=           3
     NS sqrt iter    1 1.00000000   0.124E+01       0.021     2730.016
     NS sqrt iter    2 1.00000000   0.636E+00       0.033     3412.101
     NS sqrt iter    3 1.00000000   0.206E+00       0.033     3393.235
     NS sqrt iter    4 1.00000000   0.273E-01       0.033     3411.209
     NS sqrt iter    5 1.00000000   0.145E-03       0.034     3375.218
     NS sqrt iter    6 1.00000000   0.696E-10       0.023     2409.878
     Symmetrizing Results
     Final NS sqrt iter    6 1.00000000   0.204E-11

     Est. extremal eigenvalues     -0.83474     2.64853  converged:  T
     TRS4 it   1 1.00000000   0.287E+02       0.007     2172.961   0.100E-11
     TRS4 it   2 1.00000000   0.239E+02       0.013     2244.977   0.100E-11
     TRS4 it   3 1.00000000   0.157E+02       0.013     2257.845   0.100E-11
     TRS4 it   4 1.00000000   0.923E+01       0.013     2255.240   0.100E-11
     TRS4 it   5 1.00000000   0.394E+01       0.013     2241.227   0.100E-11
     TRS4 it   6 1.00000000   0.104E+01       0.013     2267.445   0.100E-11
     TRS4 it   7 1.00000000   0.133E+00       0.013     2254.950   0.100E-11
     TRS4 it   8 1.00000000   0.347E-02       0.013     2242.622   0.100E-11
     TRS4 it   9 1.00000000   0.350E-05       0.013     2223.057   0.100E-11
     TRS4 it  10 1.00000000   0.114E-10       0.013     2257.857   0.100E-11
     Final TRS4 iteration   10 1.00000000   0.114E-10
     Chemical potential (mu):       0.05143
 
 PAO| energy:  -189.95566475536978      penalty:   6.8207565666953828E-004
 PAO|LS| adapt:  T F T
 PAO|LS| adapt: scan_steps:    0.0000000000000000        0.0000000000000000       0.56354751834967598     
 PAO|LS| adapt: energies:   -190.89225680060062        0.0000000000000000       -189.95566475536978     
 PAO| ======================= Iteration:         8 =============================

     Lanczos converged:  T threshold:   0.100E-02
     Est. extremal eigenvalues:    0.492E+01   0.123E+00
     Est. condition number :    0.400E+02

 Order=           3
     NS sqrt iter    1 1.00000000   0.126E+01       0.021     2718.237
     NS sqrt iter    2 1.00000000   0.649E+00       0.033     3421.903
     NS sqrt iter    3 1.00000000   0.215E+00       0.033     3422.672
     NS sqrt iter    4 1.00000000   0.304E-01       0.033     3407.767
     NS sqrt iter    5 1.00000000   0.194E-03       0.033     3410.352
     NS sqrt iter    6 1.00000000   0.154E-09       0.026     2565.981
     Symmetrizing Results
     Final NS sqrt iter    6 1.00000000   0.128E-11

     Est. extremal eigenvalues     -0.83547     2.64865  converged:  T
     TRS4 it   1 1.00000000   0.286E+02       0.007     2146.574   0.100E-11
     TRS4 it   2 1.00000000   0.238E+02       0.013     2264.503   0.100E-11
     TRS4 it   3 1.00000000   0.156E+02       0.013     2239.960   0.100E-11
     TRS4 it   4 1.00000000   0.913E+01       0.013     2239.611   0.100E-11
     TRS4 it   5 1.00000000   0.386E+01       0.013     2237.442   0.100E-11
     TRS4 it   6 1.00000000   0.102E+01       0.013     2223.078   0.100E-11
     TRS4 it   7 1.00000000   0.131E+00       0.013     2261.850   0.100E-11
     TRS4 it   8 1.00000000   0.336E-02       0.013     2238.414   0.100E-11
     TRS4 it   9 1.00000000   0.314E-05       0.013     2258.644   0.100E-11
     TRS4 it  10 1.00000000   0.807E-11       0.013     2233.453   0.100E-11
     Final TRS4 iteration   10 1.00000000   0.807E-11
     Chemical potential (mu):       0.04877
 
 PAO| energy:  -191.28207020931123      penalty:   5.0913139555665255E-004
 PAO|LS| adapt:  T T T
 PAO|LS| adapt: scan_steps:    0.0000000000000000       0.28177375917483799       0.56354751834967598     
 PAO|LS| adapt: energies:   -190.89225680060062       -191.28207020931123       -189.95566475536978     
 PAO|LS| adapt: suggested step_size:   0.20488756850853498     
 PAO|LS| adapt: predicted energy  -191.34596100132200     
 PAO| ======================= Iteration:         9 =============================

     Lanczos converged:  T threshold:   0.100E-02
     Est. extremal eigenvalues:    0.495E+01   0.122E+00
     Est. condition number :    0.404E+02

 Order=           3
     NS sqrt iter    1 1.00000000   0.126E+01       0.021     2737.089
     NS sqrt iter    2 1.00000000   0.652E+00       0.033     3392.687
     NS sqrt iter    3 1.00000000   0.217E+00       0.033     3389.340
     NS sqrt iter    4 1.00000000   0.313E-01       0.033     3387.408
     NS sqrt iter    5 1.00000000   0.210E-03       0.033     3395.878
     NS sqrt iter    6 1.00000000   0.190E-09       0.027     2613.433
     Symmetrizing Results
     Final NS sqrt iter    6 1.00000000   0.102E-11

     Est. extremal eigenvalues     -0.83535     2.64872  converged:  T
     TRS4 it   1 1.00000000   0.286E+02       0.007     2172.875   0.100E-11
     TRS4 it   2 1.00000000   0.238E+02       0.013     2232.531   0.100E-11
     TRS4 it   3 1.00000000   0.156E+02       0.013     2254.396   0.100E-11
     TRS4 it   4 1.00000000   0.911E+01       0.012     2277.632   0.100E-11
     TRS4 it   5 1.00000000   0.385E+01       0.013     2217.942   0.100E-11
     TRS4 it   6 1.00000000   0.101E+01       0.013     2241.089   0.100E-11
     TRS4 it   7 1.00000000   0.130E+00       0.013     2258.886   0.100E-11
     TRS4 it   8 1.00000000   0.335E-02       0.013     2234.656   0.100E-11
     TRS4 it   9 1.00000000   0.310E-05       0.013     2247.949   0.100E-11
     TRS4 it  10 1.00000000   0.781E-11       0.013     2245.485   0.100E-11
     Final TRS4 iteration   10 1.00000000   0.781E-11
     Chemical potential (mu):       0.04854
 
 PAO| energy:  -191.35052644269061      penalty:   4.9130233284421724E-004
 PAO|CG| trace_G_new   0.76283728240375204     
 PAO|CG| trace_G_prev    4.5311177246411694     
 PAO|CG| trace_G_mix   -4.5489652933060620E-002
 PAO|CG| trace_D    4.5311177246411694     
 PAO|CG| trace_D_Gnew   4.5489652933060620E-002
 PAO|CG| beta:   0.17839460028614157     
 PAO| norm of gradient:  0.87340556581908269     
 PAO| energy improvement: -0.45826964208998788     
 PAO| step      9                 -191.350526443  0.171E-02  0.205E+00     1.506
 PAO|LS| adapt:  T F F
 PAO|LS| adapt: scan_steps:    0.0000000000000000        0.0000000000000000        0.0000000000000000     
 PAO|LS| adapt: energies:   -191.35052644269061        0.0000000000000000        0.0000000000000000     
 PAO| ======================= Iteration:        10 =============================

     Lanczos converged:  T threshold:   0.100E-02
     Est. extremal eigenvalues:    0.489E+01   0.126E+00
     Est. condition number :    0.390E+02

 Order=           3
     NS sqrt iter    1 1.00000000   0.125E+01       0.021     2723.171
     NS sqrt iter    2 1.00000000   0.643E+00       0.033     3402.611
     NS sqrt iter    3 1.00000000   0.211E+00       0.033     3401.575
     NS sqrt iter    4 1.00000000   0.291E-01       0.033     3391.054
     NS sqrt iter    5 1.00000000   0.168E-03       0.033     3389.436
     NS sqrt iter    6 1.00000000   0.978E-10       0.024     2498.311
     Symmetrizing Results
     Final NS sqrt iter    6 1.00000000   0.178E-11

     Est. extremal eigenvalues     -0.83591     2.63481  converged:  T
     TRS4 it   1 1.00000000   0.286E+02       0.007     2144.927   0.100E-11
     TRS4 it   2 1.00000000   0.237E+02       0.013     2247.413   0.100E-11
     TRS4 it   3 1.00000000   0.156E+02       0.013     2275.049   0.100E-11
     TRS4 it   4 1.00000000   0.909E+01       0.013     2246.469   0.100E-11
     TRS4 it   5 1.00000000   0.383E+01       0.013     2250.918   0.100E-11
     TRS4 it   6 1.00000000   0.100E+01       0.013     2249.797   0.100E-11
     TRS4 it   7 1.00000000   0.127E+00       0.013     2256.060   0.100E-11
     TRS4 it   8 1.00000000   0.319E-02       0.013     2222.241   0.100E-11
     TRS4 it   9 1.00000000   0.281E-05       0.013     2253.563   0.100E-11
     TRS4 it  10 1.00000000   0.638E-11       0.013     2260.712   0.100E-11
     Final TRS4 iteration   10 1.00000000   0.638E-11
     Chemical potential (mu):       0.04929
 
 PAO| energy:  -191.45515560185254      penalty:   4.9438993901020653E-004
 PAO|LS| adapt:  T T F
 PAO|LS| adapt: scan_steps:    0.0000000000000000       0.20488756850853498        0.0000000000000000     
 PAO|LS| adapt: energies:   -191.35052644269061       -191.45515560185254        0.0000000000000000     
 PAO| ======================= Iteration:        11 =============================

     Lanczos converged:  T threshold:   0.100E-02
     Est. extremal eigenvalues:    0.484E+01   0.129E+00
     Est. condition number :    0.376E+02

 Order=           3
     NS sqrt iter    1 1.00000000   0.124E+01       0.021     2718.010
     NS sqrt iter    2 1.00000000   0.635E+00       0.033     3408.924
     NS sqrt iter    3 1.00000000   0.206E+00       0.033     3393.694
     NS sqrt iter    4 1.00000000   0.269E-01       0.033     3385.898
     NS sqrt iter    5 1.00000000   0.134E-03       0.033     3405.202
     NS sqrt iter    6 1.00000000   0.496E-10       0.021     2354.905
     Symmetrizing Results
     Final NS sqrt iter    6 1.00000000   0.222E-11

     Est. extremal eigenvalues     -0.83592     2.62070  converged:  T
     TRS4 it   1 1.00000000   0.285E+02       0.007     2143.493   0.100E-11
     TRS4 it   2 1.00000000   0.237E+02       0.013     2259.585   0.100E-11
     TRS4 it   3 1.00000000   0.155E+02       0.013     2264.488   0.100E-11
     TRS4 it   4 1.00000000   0.907E+01       0.013     2253.504   0.100E-11
     TRS4 it   5 1.00000000   0.381E+01       0.013     2235.667   0.100E-11
     TRS4 it   6 1.00000000   0.988E+00       0.013     2266.295   0.100E-11
     TRS4 it   7 1.00000000   0.123E+00       0.013     2228.884   0.100E-11
     TRS4 it   8 1.00000000   0.300E-02       0.013     2233.167   0.100E-11
     TRS4 it   9 1.00000000   0.250E-05       0.013     2238.012   0.100E-11
     TRS4 it  10 1.00000000   0.511E-11       0.013     2266.328   0.100E-11
     Final TRS4 iteration   10 1.00000000   0.511E-11
     Chemical potential (mu):       0.05014
 
 PAO| energy:  -191.46265314144597      penalty:   5.0784873208085262E-004
 PAO|LS| adapt:  T T F
 PAO|LS| adapt: scan_steps:    0.0000000000000000       0.40977513701706997        0.0000000000000000     
 PAO|LS| adapt: energies:   -191.35052644269061       -191.46265314144597        0.0000000000000000     
 PAO| ======================= Iteration:        12 =============================

     Lanczos converged:  T threshold:   0.100E-02
     Est. extremal eigenvalues:    0.474E+01   0.135E+00
     Est. condition number :    0.351E+02

 Order=           3
     NS sqrt iter    1 1.00000000   0.122E+01       0.021     2710.170
     NS sqrt iter    2 1.00000000   0.618E+00       0.033     3394.539
     NS sqrt iter    3 1.00000000   0.195E+00       0.033     3410.738
     NS sqrt iter    4 1.00000000   0.231E-01       0.033     3405.291
     NS sqrt iter    5 1.00000000   0.842E-04       0.033     3394.234
     NS sqrt iter    6 1.00000000   0.122E-10       0.015     2151.157
     Symmetrizing Results
     Final NS sqrt iter    6 1.00000000   0.172E-11

     Est. extremal eigenvalues     -0.83462     2.59301  converged:  T
     TRS4 it   1 1.00000000   0.285E+02       0.007     2163.361   0.100E-11
     TRS4 it   2 1.00000000   0.235E+02       0.013     2247.491   0.100E-11
     TRS4 it   3 1.00000000   0.155E+02       0.013     2240.593   0.100E-11
     TRS4 it   4 1.00000000   0.900E+01       0.013     2227.469   0.100E-11
     TRS4 it   5 1.00000000   0.374E+01       0.013     2262.326   0.100E-11
     TRS4 it   6 1.00000000   0.952E+00       0.013     2250.763   0.100E-11
     TRS4 it   7 1.00000000   0.114E+00       0.013     2232.085   0.100E-11
     TRS4 it   8 1.00000000   0.259E-02       0.013     2238.220   0.100E-11
     TRS4 it   9 1.00000000   0.189E-05       0.013     2247.940   0.100E-11
     TRS4 it  10 1.00000000   0.297E-11       0.013     2245.742   0.100E-11
     Final TRS4 iteration   10 1.00000000   0.297E-11
     Chemical potential (mu):       0.05208
 
 PAO| energy:  -191.20435163984328      penalty:   5.7364496066219118E-004
 PAO|LS| Need extra step
 PAO|LS| adapt:  T T T
 PAO|LS| adapt: scan_steps:    0.0000000000000000       0.40977513701706997       0.81955027403413994     
 PAO|LS| adapt: energies:   -191.35052644269061       -191.46265314144597       -191.20435163984328     
 PAO|LS| adapt: suggested step_size:   0.32892438131419771     
 PAO|LS| adapt: predicted energy  -191.46986340276206     
 PAO| ======================= Iteration:        13 =============================

     Lanczos converged:  T threshold:   0.100E-02
     Est. extremal eigenvalues:    0.486E+01   0.127E+00
     Est. condition number :    0.381E+02

 Order=           3
     NS sqrt iter    1 1.00000000   0.124E+01       0.021     2733.149
     NS sqrt iter    2 1.00000000   0.638E+00       0.033     3424.532
     NS sqrt iter    3 1.00000000   0.208E+00       0.033     3407.574
     NS sqrt iter    4 1.00000000   0.277E-01       0.033     3413.012
     NS sqrt iter    5 1.00000000   0.146E-03       0.033     3399.624
     NS sqrt iter    6 1.00000000   0.650E-10       0.023     2385.115
     Symmetrizing Results
     Final NS sqrt iter    6 1.00000000   0.214E-11

     Est. extremal eigenvalues     -0.83598     2.62627  converged:  T
     TRS4 it   1 1.00000000   0.286E+02       0.007     2136.301   0.100E-11
     TRS4 it   2 1.00000000   0.237E+02       0.013     2242.794   0.100E-11
     TRS4 it   3 1.00000000   0.155E+02       0.013     2264.548   0.100E-11
     TRS4 it   4 1.00000000   0.908E+01       0.013     2252.548   0.100E-11
     TRS4 it   5 1.00000000   0.382E+01       0.013     2215.951   0.100E-11
     TRS4 it   6 1.00000000   0.994E+00       0.013     2234.472   0.100E-11
     TRS4 it   7 1.00000000   0.125E+00       0.013     2239.144   0.100E-11
     TRS4 it   8 1.00000000   0.308E-02       0.013     2234.065   0.100E-11
     TRS4 it   9 1.00000000   0.263E-05       0.013     2267.257   0.100E-11
     TRS4 it  10 1.00000000   0.560E-11       0.013     2249.521   0.100E-11
     Final TRS4 iteration   10 1.00000000   0.560E-11
     Chemical potential (mu):       0.04979
 
 PAO| energy:  -191.47101404657593      penalty:   5.0120932139857948E-004
 PAO|CG| trace_G_new   0.29627775482237945     
 PAO|CG| trace_G_prev   0.76283728240375204     
 PAO|CG| trace_G_mix   -1.3461343958103823E-002
 PAO|CG| trace_D   0.89080822602938714     
 PAO|CG| trace_D_Gnew   1.3028789115886296E-002
 PAO|CG| beta:   0.40603560670825417     
 PAO| norm of gradient:  0.54431402225404724     
 PAO| energy improvement: -0.12048760388532287     
 PAO| step     13                 -191.471014047  0.106E-02  0.329E+00     1.940
 PAO|LS| adapt:  T F F
 PAO|LS| adapt: scan_steps:    0.0000000000000000        0.0000000000000000        0.0000000000000000     
 PAO|LS| adapt: energies:   -191.47101404657593        0.0000000000000000        0.0000000000000000     
 PAO| ======================= Iteration:        14 =============================

     Lanczos converged:  T threshold:   0.100E-02
     Est. extremal eigenvalues:    0.479E+01   0.130E+00
     Est. condition number :    0.369E+02

 Order=           3
     NS sqrt iter    1 1.00000000   0.123E+01       0.021     2737.431
     NS sqrt iter    2 1.00000000   0.627E+00       0.033     3417.418
     NS sqrt iter    3 1.00000000   0.201E+00       0.033     3384.556
     NS sqrt iter    4 1.00000000   0.255E-01       0.033     3400.333
     NS sqrt iter    5 1.00000000   0.116E-03       0.033     3398.098
     NS sqrt iter    6 1.00000000   0.337E-10       0.019     2245.543
     Symmetrizing Results
     Final NS sqrt iter    6 1.00000000   0.224E-11

     Est. extremal eigenvalues     -0.83645     2.62032  converged:  T
     TRS4 it   1 1.00000000   0.286E+02       0.007     2182.513   0.100E-11
     TRS4 it   2 1.00000000   0.237E+02       0.013     2255.905   0.100E-11
     TRS4 it   3 1.00000000   0.155E+02       0.013     2260.228   0.100E-11
     TRS4 it   4 1.00000000   0.902E+01       0.013     2242.771   0.100E-11
     TRS4 it   5 1.00000000   0.376E+01       0.013     2247.775   0.100E-11
     TRS4 it   6 1.00000000   0.964E+00       0.013     2255.703   0.100E-11
     TRS4 it   7 1.00000000   0.118E+00       0.013     2242.983   0.100E-11
     TRS4 it   8 1.00000000   0.273E-02       0.013     2262.693   0.100E-11
     TRS4 it   9 1.00000000   0.207E-05       0.013     2264.286   0.100E-11
     TRS4 it  10 1.00000000   0.353E-11       0.013     2251.666   0.100E-11
     Final TRS4 iteration   10 1.00000000   0.353E-11
     Chemical potential (mu):       0.05163
 
 PAO| energy:  -191.52654465657193      penalty:   5.0492306410247886E-004
 PAO|LS| adapt:  T T F
 PAO|LS| adapt: scan_steps:    0.0000000000000000       0.32892438131419771        0.0000000000000000     
 PAO|LS| adapt: energies:   -191.47101404657593       -191.52654465657193        0.0000000000000000     
 PAO| ======================= Iteration:        15 =============================

     Lanczos converged:  T threshold:   0.100E-02
     Est. extremal eigenvalues:    0.471E+01   0.132E+00
     Est. condition number :    0.357E+02

 Order=           3
     NS sqrt iter    1 1.00000000   0.121E+01       0.021     2698.630
     NS sqrt iter    2 1.00000000   0.616E+00       0.033     3410.160
     NS sqrt iter    3 1.00000000   0.195E+00       0.033     3411.775
     NS sqrt iter    4 1.00000000   0.235E-01       0.033     3396.539
     NS sqrt iter    5 1.00000000   0.923E-04       0.033     3391.669
     NS sqrt iter    6 1.00000000   0.177E-10       0.016     2193.303
     Symmetrizing Results
     Final NS sqrt iter    6 1.00000000   0.197E-11

     Est. extremal eigenvalues     -0.83643     2.61411  converged:  T
     TRS4 it   1 1.00000000   0.286E+02       0.007     2178.704   0.100E-11
     TRS4 it   2 1.00000000   0.236E+02       0.013     2241.716   0.100E-11
     TRS4 it   3 1.00000000   0.155E+02       0.013     2249.614   0.100E-11
     TRS4 it   4 1.00000000   0.896E+01       0.013     2238.778   0.100E-11
     TRS4 it   5 1.00000000   0.370E+01       0.013     2253.170   0.100E-11
     TRS4 it   6 1.00000000   0.934E+00       0.013     2249.409   0.100E-11
     TRS4 it   7 1.00000000   0.111E+00       0.013     2271.938   0.100E-11
     TRS4 it   8 1.00000000   0.242E-02       0.013     2249.510   0.100E-11
     TRS4 it   9 1.00000000   0.164E-05       0.013     2254.332   0.100E-11
     TRS4 it  10 1.00000000   0.217E-11       0.013     2261.665   0.100E-11
     Final TRS4 iteration   10 1.00000000   0.217E-11
     Chemical potential (mu):       0.05339
 
 PAO| energy:  -191.50295449515755      penalty:   5.2497636033286231E-004
 PAO|LS| adapt:  T T T
 PAO|LS| adapt: scan_steps:    0.0000000000000000       0.32892438131419771       0.65784876262839542     
 PAO|LS| adapt: energies:   -191.47101404657593       -191.52654465657193       -191.50295449515755     
 PAO|LS| adapt: suggested step_size:   0.39531650629814713     
 PAO|LS| adapt: predicted energy  -191.52815642083655     
 PAO| ======================= Iteration:        16 =============================

     Lanczos converged:  T threshold:   0.100E-02
     Est. extremal eigenvalues:    0.477E+01   0.130E+00
     Est. condition number :    0.366E+02

 Order=           3
     NS sqrt iter    1 1.00000000   0.122E+01       0.021     2732.183
     NS sqrt iter    2 1.00000000   0.624E+00       0.033     3404.729
     NS sqrt iter    3 1.00000000   0.200E+00       0.033     3413.623
     NS sqrt iter    4 1.00000000   0.251E-01       0.033     3390.911
     NS sqrt iter    5 1.00000000   0.111E-03       0.033     3411.464
     NS sqrt iter    6 1.00000000   0.296E-10       0.019     2219.629
     Symmetrizing Results
     Final NS sqrt iter    6 1.00000000   0.221E-11

     Est. extremal eigenvalues     -0.83648     2.61908  converged:  T
     TRS4 it   1 1.00000000   0.286E+02       0.007     2180.236   0.100E-11
     TRS4 it   2 1.00000000   0.237E+02       0.013     2234.361   0.100E-11
     TRS4 it   3 1.00000000   0.155E+02       0.013     2239.671   0.100E-11
     TRS4 it   4 1.00000000   0.901E+01       0.013     2252.245   0.100E-11
     TRS4 it   5 1.00000000   0.375E+01       0.013     2243.759   0.100E-11
     TRS4 it   6 1.00000000   0.958E+00       0.013     2246.722   0.100E-11
     TRS4 it   7 1.00000000   0.116E+00       0.013     2232.571   0.100E-11
     TRS4 it   8 1.00000000   0.266E-02       0.013     2253.813   0.100E-11
     TRS4 it   9 1.00000000   0.198E-05       0.013     2250.140   0.100E-11
     TRS4 it  10 1.00000000   0.317E-11       0.013     2262.560   0.100E-11
     Final TRS4 iteration   10 1.00000000   0.317E-11
     Chemical potential (mu):       0.05200
 
 PAO| energy:  -191.52809531572422      penalty:   5.0759756189205376E-004
 PAO|CG| trace_G_new   0.11312777611151890     
 PAO|CG| trace_G_prev   0.29627775482237945     
 PAO|CG| trace_G_mix    4.9711118709733224E-003
 PAO|CG| trace_D   0.43256047173474932     
 PAO|CG| trace_D_Gnew   8.4442595780561194E-004
 PAO|CG| beta:   0.36505158581813291     
 PAO| norm of gradient:  0.33634472808640675     
 PAO| energy improvement:  -5.7081269148284264E-002
 PAO| step     16                 -191.528095316  0.657E-03  0.395E+00     1.472
 PAO|LS| adapt:  T F F
 PAO|LS| adapt: scan_steps:    0.0000000000000000        0.0000000000000000        0.0000000000000000     
 PAO|LS| adapt: energies:   -191.52809531572422        0.0000000000000000        0.0000000000000000     
 PAO| ======================= Iteration:        17 =============================

     Lanczos converged:  T threshold:   0.100E-02
     Est. extremal eigenvalues:    0.473E+01   0.131E+00
     Est. condition number :    0.360E+02

 Order=           3
     NS sqrt iter    1 1.00000000   0.122E+01       0.021     2708.882
     NS sqrt iter    2 1.00000000   0.619E+00       0.033     3414.111
     NS sqrt iter    3 1.00000000   0.197E+00       0.033     3391.252
     NS sqrt iter    4 1.00000000   0.242E-01       0.033     3395.065
     NS sqrt iter    5 1.00000000   0.998E-04       0.033     3396.480
     NS sqrt iter    6 1.00000000   0.217E-10       0.017     2186.896
     Symmetrizing Results
     Final NS sqrt iter    6 1.00000000   0.208E-11

     Est. extremal eigenvalues     -0.83652     2.61558  converged:  T
     TRS4 it   1 1.00000000   0.286E+02       0.007     2153.911   0.100E-11
     TRS4 it   2 1.00000000   0.236E+02       0.013     2235.670   0.100E-11
     TRS4 it   3 1.00000000   0.155E+02       0.013     2264.558   0.100E-11
     TRS4 it   4 1.00000000   0.896E+01       0.013     2231.859   0.100E-11
     TRS4 it   5 1.00000000   0.370E+01       0.013     2240.960   0.100E-11
     TRS4 it   6 1.00000000   0.937E+00       0.013     2239.121   0.100E-11
     TRS4 it   7 1.00000000   0.112E+00       0.013     2251.172   0.100E-11
     TRS4 it   8 1.00000000   0.246E-02       0.013     2255.787   0.100E-11
     TRS4 it   9 1.00000000   0.169E-05       0.013     2254.352   0.100E-11
     TRS4 it  10 1.00000000   0.236E-11       0.013     2258.336   0.100E-11
     Final TRS4 iteration   10 1.00000000   0.236E-11
     Chemical potential (mu):       0.05312
 
 PAO| energy:  -191.53288638851518      penalty:   5.0181741720443191E-004
 PAO|LS| adapt:  T T F
 PAO|LS| adapt: scan_steps:    0.0000000000000000       0.39531650629814713        0.0000000000000000     
 PAO|LS| adapt: energies:   -191.52809531572422       -191.53288638851518        0.0000000000000000     
 PAO| ======================= Iteration:        18 =============================

     Lanczos converged:  T threshold:   0.100E-02
     Est. extremal eigenvalues:    0.469E+01   0.132E+00
     Est. condition number :    0.354E+02

 Order=           3
     NS sqrt iter    1 1.00000000   0.121E+01       0.021     2721.780
     NS sqrt iter    2 1.00000000   0.614E+00       0.033     3409.729
     NS sqrt iter    3 1.00000000   0.194E+00       0.033     3397.522
     NS sqrt iter    4 1.00000000   0.233E-01       0.033     3398.929
     NS sqrt iter    5 1.00000000   0.903E-04       0.033     3391.744
     NS sqrt iter    6 1.00000000   0.159E-10       0.016     2192.962
     Symmetrizing Results
     Final NS sqrt iter    6 1.00000000   0.196E-11

     Est. extremal eigenvalues     -0.83640     2.61194  converged:  T
     TRS4 it   1 1.00000000   0.287E+02       0.007     2165.926   0.100E-11
     TRS4 it   2 1.00000000   0.236E+02       0.013     2222.715   0.100E-11
     TRS4 it   3 1.00000000   0.154E+02       0.013     2255.976   0.100E-11
     TRS4 it   4 1.00000000   0.892E+01       0.013     2247.856   0.100E-11
     TRS4 it   5 1.00000000   0.366E+01       0.013     2244.359   0.100E-11
     TRS4 it   6 1.00000000   0.918E+00       0.013     2259.418   0.100E-11
     TRS4 it   7 1.00000000   0.107E+00       0.013     2220.784   0.100E-11
     TRS4 it   8 1.00000000   0.228E-02       0.013     2260.639   0.100E-11
     TRS4 it   9 1.00000000   0.145E-05       0.013     2268.031   0.100E-11
     TRS4 it  10 1.00000000   0.175E-11       0.013     2266.050   0.100E-11
     Final TRS4 iteration   10 1.00000000   0.175E-11
     Chemical potential (mu):       0.05432
 
 PAO| energy:  -191.45788949732821      penalty:   5.0437664778980916E-004
 PAO|LS| adapt:  T T T
 PAO|LS| adapt: scan_steps:    0.0000000000000000       0.39531650629814713       0.79063301259629426     
 PAO|LS| adapt: energies:   -191.52809531572422       -191.53288638851518       -191.45788949732821     
 PAO|LS| adapt: suggested step_size:   0.22139604595286361     
 PAO|LS| adapt: predicted energy  -191.54060819373947     
 PAO| ======================= Iteration:        19 =============================

     Lanczos converged:  T threshold:   0.100E-02
     Est. extremal eigenvalues:    0.475E+01   0.131E+00
     Est. condition number :    0.363E+02

 Order=           3
     NS sqrt iter    1 1.00000000   0.122E+01       0.021     2723.938
     NS sqrt iter    2 1.00000000   0.621E+00       0.033     3413.441
     NS sqrt iter    3 1.00000000   0.198E+00       0.033     3394.579
     NS sqrt iter    4 1.00000000   0.246E-01       0.033     3396.089
     NS sqrt iter    5 1.00000000   0.104E-03       0.033     3394.950
     NS sqrt iter    6 1.00000000   0.248E-10       0.018     2194.222
     Symmetrizing Results
     Final NS sqrt iter    6 1.00000000   0.213E-11

     Est. extremal eigenvalues     -0.83652     2.61714  converged:  T
     TRS4 it   1 1.00000000   0.286E+02       0.007     2185.671   0.100E-11
     TRS4 it   2 1.00000000   0.236E+02       0.013     2249.011   0.100E-11
     TRS4 it   3 1.00000000   0.155E+02       0.013     2229.118   0.100E-11
     TRS4 it   4 1.00000000   0.898E+01       0.013     2234.923   0.100E-11
     TRS4 it   5 1.00000000   0.372E+01       0.013     2252.348   0.100E-11
     TRS4 it   6 1.00000000   0.946E+00       0.013     2244.665   0.100E-11
     TRS4 it   7 1.00000000   0.114E+00       0.013     2218.027   0.100E-11
     TRS4 it   8 1.00000000   0.255E-02       0.013     2245.448   0.100E-11
     TRS4 it   9 1.00000000   0.181E-05       0.013     2232.179   0.100E-11
     TRS4 it  10 1.00000000   0.266E-11       0.013     2239.566   0.100E-11
     Final TRS4 iteration   10 1.00000000   0.266E-11
     Chemical potential (mu):       0.05261
 
 PAO| energy:  -191.54059454850528      penalty:   5.0335282433891146E-004
 PAO|CG| trace_G_new    2.2056203541332586E-002
 PAO|CG| trace_G_prev   0.11312777611151890     
 PAO|CG| trace_G_mix   -4.2453336608335671E-004
 PAO|CG| trace_D   0.17015541724911348     
 PAO|CG| trace_D_Gnew  -4.7799772661611349E-005
 PAO|CG| beta:   0.19871986951511289     
 PAO| norm of gradient:  0.14851331099040443     
 PAO| energy improvement:  -1.2499232781067349E-002
 PAO| step     19                 -191.540594549  0.290E-03  0.221E+00     1.494
 PAO|LS| adapt:  T F F
 PAO|LS| adapt: scan_steps:    0.0000000000000000        0.0000000000000000        0.0000000000000000     
 PAO|LS| adapt: energies:   -191.54059454850528        0.0000000000000000        0.0000000000000000     
 PAO| ======================= Iteration:        20 =============================

     Lanczos converged:  T threshold:   0.100E-02
     Est. extremal eigenvalues:    0.474E+01   0.131E+00
     Est. condition number :    0.362E+02

 Order=           3
     NS sqrt iter    1 1.00000000   0.122E+01       0.021     2734.718
     NS sqrt iter    2 1.00000000   0.621E+00       0.033     3427.819
     NS sqrt iter    3 1.00000000   0.198E+00       0.033     3410.235
     NS sqrt iter    4 1.00000000   0.245E-01       0.033     3388.025
     NS sqrt iter    5 1.00000000   0.104E-03       0.033     3424.275
     NS sqrt iter    6 1.00000000   0.241E-10       0.018     2190.190
     Symmetrizing Results
     Final NS sqrt iter    6 1.00000000   0.214E-11

     Est. extremal eigenvalues     -0.83652     2.61557  converged:  T
     TRS4 it   1 1.00000000   0.286E+02       0.007     2179.889   0.100E-11
     TRS4 it   2 1.00000000   0.236E+02       0.013     2238.533   0.100E-11
     TRS4 it   3 1.00000000   0.155E+02       0.013     2254.455   0.100E-11
     TRS4 it   4 1.00000000   0.897E+01       0.013     2241.066   0.100E-11
     TRS4 it   5 1.00000000   0.371E+01       0.013     2238.679   0.100E-11
     TRS4 it   6 1.00000000   0.942E+00       0.013     2246.010   0.100E-11
     TRS4 it   7 1.00000000   0.113E+00       0.013     2244.993   0.100E-11
     TRS4 it   8 1.00000000   0.251E-02       0.013     2248.563   0.100E-11
     TRS4 it   9 1.00000000   0.175E-05       0.013     2255.949   0.100E-11
     TRS4 it  10 1.00000000   0.254E-11       0.013     2228.783   0.100E-11
     Final TRS4 iteration   10 1.00000000   0.254E-11
     Chemical potential (mu):       0.05280
 
 PAO| energy:  -191.54454981866616      penalty:   4.9387876507859944E-004
 PAO|LS| adapt:  T T F
 PAO|LS| adapt: scan_steps:    0.0000000000000000       0.22139604595286361        0.0000000000000000     
 PAO|LS| adapt: energies:   -191.54059454850528       -191.54454981866616        0.0000000000000000     
 PAO| ======================= Iteration:        21 =============================

     Lanczos converged:  T threshold:   0.100E-02
     Est. extremal eigenvalues:    0.473E+01   0.131E+00
     Est. condition number :    0.361E+02

 Order=           3
     NS sqrt iter    1 1.00000000   0.122E+01       0.021     2694.816
     NS sqrt iter    2 1.00000000   0.620E+00       0.033     3402.285
     NS sqrt iter    3 1.00000000   0.198E+00       0.033     3406.729
     NS sqrt iter    4 1.00000000   0.245E-01       0.033     3403.710
     NS sqrt iter    5 1.00000000   0.103E-03       0.033     3396.352
     NS sqrt iter    6 1.00000000   0.235E-10       0.018     2197.170
     Symmetrizing Results
     Final NS sqrt iter    6 1.00000000   0.211E-11

     Est. extremal eigenvalues     -0.83653     2.61400  converged:  T
     TRS4 it   1 1.00000000   0.286E+02       0.007     2182.731   0.100E-11
     TRS4 it   2 1.00000000   0.236E+02       0.013     2263.591   0.100E-11
     TRS4 it   3 1.00000000   0.155E+02       0.013     2227.675   0.100E-11
     TRS4 it   4 1.00000000   0.896E+01       0.013     2245.561   0.100E-11
     TRS4 it   5 1.00000000   0.370E+01       0.013     2258.468   0.100E-11
     TRS4 it   6 1.00000000   0.938E+00       0.013     2238.716   0.100E-11
     TRS4 it   7 1.00000000   0.112E+00       0.013     2265.400   0.100E-11
     TRS4 it   8 1.00000000   0.248E-02       0.013     2245.349   0.100E-11
     TRS4 it   9 1.00000000   0.171E-05       0.013     2239.048   0.100E-11
     TRS4 it  10 1.00000000   0.238E-11       0.013     2248.231   0.100E-11
     Final TRS4 iteration   10 1.00000000   0.238E-11
     Chemical potential (mu):       0.05297
 
 PAO| energy:  -191.54663090093712      penalty:   4.8483887810789339E-004
 PAO|LS| adapt:  T T F
 PAO|LS| adapt: scan_steps:    0.0000000000000000       0.44279209190572721        0.0000000000000000     
 PAO|LS| adapt: energies:   -191.54059454850528       -191.54663090093712        0.0000000000000000     
 PAO| ======================= Iteration:        22 =============================

     Lanczos converged:  F threshold:   0.100E-02
     Est. extremal eigenvalues:    0.472E+01   0.131E+00
     Est. condition number :    0.359E+02

 Order=           3
     NS sqrt iter    1 1.00000000   0.121E+01       0.021     2719.672
     NS sqrt iter    2 1.00000000   0.619E+00       0.034     3371.742
     NS sqrt iter    3 1.00000000   0.198E+00       0.033     3402.683
     NS sqrt iter    4 1.00000000   0.245E-01       0.033     3409.668
     NS sqrt iter    5 1.00000000   0.102E-03       0.033     3399.245
     NS sqrt iter    6 1.00000000   0.223E-10       0.018     2193.280
     Symmetrizing Results
     Final NS sqrt iter    6 1.00000000   0.211E-11

     Est. extremal eigenvalues     -0.83652     2.61082  converged:  T
     TRS4 it   1 1.00000000   0.286E+02       0.007     2150.964   0.100E-11
     TRS4 it   2 1.00000000   0.236E+02       0.013     2257.581   0.100E-11
     TRS4 it   3 1.00000000   0.155E+02       0.013     2260.465   0.100E-11
     TRS4 it   4 1.00000000   0.894E+01       0.013     2253.859   0.100E-11
     TRS4 it   5 1.00000000   0.369E+01       0.013     2244.223   0.100E-11
     TRS4 it   6 1.00000000   0.930E+00       0.013     2241.192   0.100E-11
     TRS4 it   7 1.00000000   0.110E+00       0.013     2251.005   0.100E-11
     TRS4 it   8 1.00000000   0.240E-02       0.013     2251.057   0.100E-11
     TRS4 it   9 1.00000000   0.161E-05       0.013     2243.338   0.100E-11
     TRS4 it  10 1.00000000   0.214E-11       0.013     2233.731   0.100E-11
     Final TRS4 iteration   10 1.00000000   0.214E-11
     Chemical potential (mu):       0.05334
 
 PAO| energy:  -191.54508452096908      penalty:   4.6803483961825907E-004
 PAO|LS| Need extra step
 PAO|LS| adapt:  T T T
 PAO|LS| adapt: scan_steps:    0.0000000000000000       0.44279209190572721       0.88558418381145443     
 PAO|LS| adapt: energies:   -191.54059454850528       -191.54663090093712       -191.54508452096908     
 PAO|LS| adapt: suggested step_size:   0.57388759910576703     
 PAO|LS| adapt: predicted energy  -191.54696323253711     
 PAO| ======================= Iteration:        23 =============================

     Lanczos converged:  T threshold:   0.100E-02
     Est. extremal eigenvalues:    0.473E+01   0.131E+00
     Est. condition number :    0.360E+02

 Order=           3
     NS sqrt iter    1 1.00000000   0.121E+01       0.021     2720.813
     NS sqrt iter    2 1.00000000   0.620E+00       0.033     3399.980
     NS sqrt iter    3 1.00000000   0.198E+00       0.033     3391.012
     NS sqrt iter    4 1.00000000   0.245E-01       0.033     3389.860
     NS sqrt iter    5 1.00000000   0.103E-03       0.033     3408.388
     NS sqrt iter    6 1.00000000   0.231E-10       0.018     2194.958
     Symmetrizing Results
     Final NS sqrt iter    6 1.00000000   0.211E-11

     Est. extremal eigenvalues     -0.83653     2.61306  converged:  T
     TRS4 it   1 1.00000000   0.286E+02       0.007     2164.227   0.100E-11
     TRS4 it   2 1.00000000   0.236E+02       0.013     2231.950   0.100E-11
     TRS4 it   3 1.00000000   0.155E+02       0.013     2247.221   0.100E-11
     TRS4 it   4 1.00000000   0.895E+01       0.013     2238.831   0.100E-11
     TRS4 it   5 1.00000000   0.370E+01       0.013     2247.159   0.100E-11
     TRS4 it   6 1.00000000   0.935E+00       0.013     2266.102   0.100E-11
     TRS4 it   7 1.00000000   0.112E+00       0.013     2230.470   0.100E-11
     TRS4 it   8 1.00000000   0.245E-02       0.013     2240.235   0.100E-11
     TRS4 it   9 1.00000000   0.168E-05       0.013     2257.841   0.100E-11
     TRS4 it  10 1.00000000   0.229E-11       0.013     2232.824   0.100E-11
     Final TRS4 iteration   10 1.00000000   0.229E-11
     Chemical potential (mu):       0.05308
 
 PAO| energy:  -191.54697099926790      penalty:   4.7968777131263661E-004
 PAO|CG| trace_G_new    1.6952014191295252E-002
 PAO|CG| trace_G_prev    2.2056203541332586E-002
 PAO|CG| trace_G_mix    1.1595283807703723E-004
 PAO|CG| trace_D    2.8794568145231205E-002
 PAO|CG| trace_D_Gnew  -4.7930976563005006E-005
 PAO|CG| beta:   0.76332544364074262     
 PAO| norm of gradient:  0.13019990088819289     
 PAO| energy improvement:  -6.3764507626160594E-003
 PAO| step     23                 -191.546970999  0.254E-03  0.574E+00     1.940
 PAO|LS| adapt:  T F F
 PAO|LS| adapt: scan_steps:    0.0000000000000000        0.0000000000000000        0.0000000000000000     
 PAO|LS| adapt: energies:   -191.54697099926790        0.0000000000000000        0.0000000000000000     
 PAO| ======================= Iteration:        24 =============================

     Lanczos converged:  F threshold:   0.100E-02
     Est. extremal eigenvalues:    0.471E+01   0.131E+00
     Est. condition number :    0.359E+02

 Order=           3
     NS sqrt iter    1 1.00000000   0.121E+01       0.021     2719.878
     NS sqrt iter    2 1.00000000   0.618E+00       0.033     3392.473
     NS sqrt iter    3 1.00000000   0.197E+00       0.033     3398.547
     NS sqrt iter    4 1.00000000   0.244E-01       0.033     3389.484
     NS sqrt iter    5 1.00000000   0.102E-03       0.033     3397.223
     NS sqrt iter    6 1.00000000   0.223E-10       0.018     2179.161
     Symmetrizing Results
     Final NS sqrt iter    6 1.00000000   0.210E-11

     Est. extremal eigenvalues     -0.83653     2.60903  converged:  T
     TRS4 it   1 1.00000000   0.286E+02       0.006     2190.823   0.100E-11
     TRS4 it   2 1.00000000   0.236E+02       0.013     2239.960   0.100E-11
     TRS4 it   3 1.00000000   0.155E+02       0.013     2243.011   0.100E-11
     TRS4 it   4 1.00000000   0.893E+01       0.013     2272.576   0.100E-11
     TRS4 it   5 1.00000000   0.368E+01       0.013     2244.134   0.100E-11
     TRS4 it   6 1.00000000   0.927E+00       0.013     2230.743   0.100E-11
     TRS4 it   7 1.00000000   0.110E+00       0.013     2223.260   0.100E-11
     TRS4 it   8 1.00000000   0.238E-02       0.013     2268.539   0.100E-11
     TRS4 it   9 1.00000000   0.158E-05       0.013     2243.808   0.100E-11
     TRS4 it  10 1.00000000   0.205E-11       0.013     2238.357   0.100E-11
     Final TRS4 iteration   10 1.00000000   0.205E-11
     Chemical potential (mu):       0.05345
 
 PAO| energy:  -191.54998261589463      penalty:   4.4238444433739477E-004
 PAO|LS| adapt:  T T F
 PAO|LS| adapt: scan_steps:    0.0000000000000000       0.57388759910576703        0.0000000000000000     
 PAO|LS| adapt: energies:   -191.54697099926790       -191.54998261589463        0.0000000000000000     
 PAO| ======================= Iteration:        25 =============================

     Lanczos converged:  F threshold:   0.100E-02
     Est. extremal eigenvalues:    0.470E+01   0.131E+00
     Est. condition number :    0.358E+02

 Order=           3
     NS sqrt iter    1 1.00000000   0.121E+01       0.021     2727.780
     NS sqrt iter    2 1.00000000   0.617E+00       0.033     3409.962
     NS sqrt iter    3 1.00000000   0.197E+00       0.033     3411.934
     NS sqrt iter    4 1.00000000   0.244E-01       0.033     3392.942
     NS sqrt iter    5 1.00000000   0.102E-03       0.033     3399.122
     NS sqrt iter    6 1.00000000   0.216E-10       0.018     2180.922
     Symmetrizing Results
     Final NS sqrt iter    6 1.00000000   0.208E-11

     Est. extremal eigenvalues     -0.83652     2.60482  converged:  T
     TRS4 it   1 1.00000000   0.286E+02       0.007     2185.966   0.100E-11
     TRS4 it   2 1.00000000   0.235E+02       0.013     2248.227   0.100E-11
     TRS4 it   3 1.00000000   0.154E+02       0.013     2239.481   0.100E-11
     TRS4 it   4 1.00000000   0.890E+01       0.013     2237.884   0.100E-11
     TRS4 it   5 1.00000000   0.366E+01       0.013     2261.904   0.100E-11
     TRS4 it   6 1.00000000   0.918E+00       0.013     2245.710   0.100E-11
     TRS4 it   7 1.00000000   0.108E+00       0.013     2177.547   0.100E-11
     TRS4 it   8 1.00000000   0.231E-02       0.013     2261.352   0.100E-11
     TRS4 it   9 1.00000000   0.149E-05       0.013     2242.606   0.100E-11
     TRS4 it  10 1.00000000   0.180E-11       0.013     2235.542   0.100E-11
     Final TRS4 iteration   10 1.00000000   0.180E-11
     Chemical potential (mu):       0.05383
 
 PAO| energy:  -191.53929207987903      penalty:   4.0922013827942997E-004
 PAO|LS| adapt:  T T T
 PAO|LS| adapt: scan_steps:    0.0000000000000000       0.57388759910576703        1.1477751982115341     
 PAO|LS| adapt: energies:   -191.54697099926790       -191.54998261589463       -191.53929207987903     
 PAO|LS| adapt: suggested step_size:   0.41307941345666527     
 PAO|LS| adapt: predicted energy  -191.55052054052334     
 PAO| ======================= Iteration:        26 =============================

     Lanczos converged:  F threshold:   0.100E-02
     Est. extremal eigenvalues:    0.472E+01   0.131E+00
     Est. condition number :    0.360E+02

 Order=           3
     NS sqrt iter    1 1.00000000   0.121E+01       0.021     2698.724
     NS sqrt iter    2 1.00000000   0.619E+00       0.033     3395.290
     NS sqrt iter    3 1.00000000   0.198E+00       0.033     3398.885
     NS sqrt iter    4 1.00000000   0.244E-01       0.034     3378.972
     NS sqrt iter    5 1.00000000   0.102E-03       0.033     3400.424
     NS sqrt iter    6 1.00000000   0.225E-10       0.018     2196.196
     Symmetrizing Results
     Final NS sqrt iter    6 1.00000000   0.210E-11

     Est. extremal eigenvalues     -0.83653     2.61018  converged:  T
     TRS4 it   1 1.00000000   0.286E+02       0.007     2159.317   0.100E-11
     TRS4 it   2 1.00000000   0.236E+02       0.013     2255.660   0.100E-11
     TRS4 it   3 1.00000000   0.155E+02       0.013     2261.354   0.100E-11
     TRS4 it   4 1.00000000   0.894E+01       0.013     2251.069   0.100E-11
     TRS4 it   5 1.00000000   0.368E+01       0.013     2242.741   0.100E-11
     TRS4 it   6 1.00000000   0.929E+00       0.013     2256.073   0.100E-11
     TRS4 it   7 1.00000000   0.110E+00       0.013     2242.444   0.100E-11
     TRS4 it   8 1.00000000   0.240E-02       0.012     2281.282   0.100E-11
     TRS4 it   9 1.00000000   0.161E-05       0.013     2261.659   0.100E-11
     TRS4 it  10 1.00000000   0.210E-11       0.013     2256.940   0.100E-11
     Final TRS4 iteration   10 1.00000000   0.210E-11
     Chemical potential (mu):       0.05335
 
 PAO| energy:  -191.55050582288627      penalty:   4.5241168422723780E-004
 PAO|CG| trace_G_new    1.2630317842468979E-002
 PAO|CG| trace_G_prev    1.6952014191295252E-002
 PAO|CG| trace_G_mix    2.4551083575533961E-004
 PAO|CG| trace_D    3.3802796211342405E-002
 PAO|CG| trace_D_Gnew  -7.5663777534826357E-005
 PAO|CG| beta:   0.73058026420678412     
 PAO| norm of gradient:  0.11238468686822498     
 PAO| energy improvement:  -3.5348236183665449E-003
 PAO| step     26                 -191.550505823  0.220E-03  0.413E+00     1.495
 PAO|LS| adapt:  T F F
 PAO|LS| adapt: scan_steps:    0.0000000000000000        0.0000000000000000        0.0000000000000000     
 PAO|LS| adapt: energies:   -191.55050582288627        0.0000000000000000        0.0000000000000000     
 PAO| ======================= Iteration:        27 =============================

     Lanczos converged:  F threshold:   0.100E-02
     Est. extremal eigenvalues:    0.471E+01   0.131E+00
     Est. condition number :    0.360E+02

 Order=           3
     NS sqrt iter    1 1.00000000   0.121E+01       0.021     2726.106
     NS sqrt iter    2 1.00000000   0.617E+00       0.033     3413.412
     NS sqrt iter    3 1.00000000   0.197E+00       0.034     3375.894
     NS sqrt iter    4 1.00000000   0.243E-01       0.033     3404.900
     NS sqrt iter    5 1.00000000   0.102E-03       0.033     3389.128
     NS sqrt iter    6 1.00000000   0.225E-10       0.018     2171.009
     Symmetrizing Results
     Final NS sqrt iter    6 1.00000000   0.209E-11

     Est. extremal eigenvalues     -0.83654     2.60731  converged:  T
     TRS4 it   1 1.00000000   0.286E+02       0.007     2170.042   0.100E-11
     TRS4 it   2 1.00000000   0.236E+02       0.013     2252.931   0.100E-11
     TRS4 it   3 1.00000000   0.154E+02       0.013     2274.707   0.100E-11
     TRS4 it   4 1.00000000   0.892E+01       0.013     2264.283   0.100E-11
     TRS4 it   5 1.00000000   0.367E+01       0.013     2254.648   0.100E-11
     TRS4 it   6 1.00000000   0.922E+00       0.013     2237.308   0.100E-11
     TRS4 it   7 1.00000000   0.109E+00       0.013     2213.618   0.100E-11
     TRS4 it   8 1.00000000   0.234E-02       0.013     2267.989   0.100E-11
     TRS4 it   9 1.00000000   0.153E-05       0.013     2248.021   0.100E-11
     TRS4 it  10 1.00000000   0.188E-11       0.013     2241.553   0.100E-11
     Final TRS4 iteration   10 1.00000000   0.188E-11
     Chemical potential (mu):       0.05368
 
 PAO| energy:  -191.55308082474187      penalty:   4.1939843751174170E-004
 PAO|LS| adapt:  T T F
 PAO|LS| adapt: scan_steps:    0.0000000000000000       0.41307941345666527        0.0000000000000000     
 PAO|LS| adapt: energies:   -191.55050582288627       -191.55308082474187        0.0000000000000000     
 PAO| ======================= Iteration:        28 =============================

     Lanczos converged:  F threshold:   0.100E-02
     Est. extremal eigenvalues:    0.469E+01   0.131E+00
     Est. condition number :    0.360E+02

 Order=           3
     NS sqrt iter    1 1.00000000   0.121E+01       0.021     2728.197
     NS sqrt iter    2 1.00000000   0.616E+00       0.033     3421.521
     NS sqrt iter    3 1.00000000   0.196E+00       0.033     3394.186
     NS sqrt iter    4 1.00000000   0.242E-01       0.033     3423.224
     NS sqrt iter    5 1.00000000   0.102E-03       0.033     3399.565
     NS sqrt iter    6 1.00000000   0.225E-10       0.018     2176.090
     Symmetrizing Results
     Final NS sqrt iter    6 1.00000000   0.209E-11

     Est. extremal eigenvalues     -0.83654     2.60431  converged:  T
     TRS4 it   1 1.00000000   0.286E+02       0.007     2153.572   0.100E-11
     TRS4 it   2 1.00000000   0.235E+02       0.013     2222.578   0.100E-11
     TRS4 it   3 1.00000000   0.154E+02       0.013     2246.424   0.100E-11
     TRS4 it   4 1.00000000   0.890E+01       0.013     2264.220   0.100E-11
     TRS4 it   5 1.00000000   0.365E+01       0.013     2248.682   0.100E-11
     TRS4 it   6 1.00000000   0.915E+00       0.013     2227.720   0.100E-11
     TRS4 it   7 1.00000000   0.107E+00       0.013     2249.660   0.100E-11
     TRS4 it   8 1.00000000   0.228E-02       0.013     2261.463   0.100E-11
     TRS4 it   9 1.00000000   0.145E-05       0.013     2260.046   0.100E-11
     TRS4 it  10 1.00000000   0.171E-11       0.013     2263.652   0.100E-11
     Final TRS4 iteration   10 1.00000000   0.171E-11
     Chemical potential (mu):       0.05401
 
 PAO| energy:  -191.55028402317609      penalty:   3.8901876594815807E-004
 PAO|LS| adapt:  T T T
 PAO|LS| adapt: scan_steps:    0.0000000000000000       0.41307941345666527       0.82615882691333054     
 PAO|LS| adapt: energies:   -191.55050582288627       -191.55308082474187       -191.55028402317609     
 PAO|LS| adapt: suggested step_size:   0.40455146790495983     
 PAO|LS| adapt: predicted energy  -191.55308196949503     
 PAO| ======================= Iteration:        29 =============================

     Lanczos converged:  F threshold:   0.100E-02
     Est. extremal eigenvalues:    0.471E+01   0.131E+00
     Est. condition number :    0.360E+02

 Order=           3
     NS sqrt iter    1 1.00000000   0.121E+01       0.021     2727.029
     NS sqrt iter    2 1.00000000   0.617E+00       0.033     3406.828
     NS sqrt iter    3 1.00000000   0.197E+00       0.033     3408.789
     NS sqrt iter    4 1.00000000   0.243E-01       0.033     3396.021
     NS sqrt iter    5 1.00000000   0.102E-03       0.033     3395.502
     NS sqrt iter    6 1.00000000   0.225E-10       0.018     2185.707
     Symmetrizing Results
     Final NS sqrt iter    6 1.00000000   0.209E-11

     Est. extremal eigenvalues     -0.83654     2.60737  converged:  T
     TRS4 it   1 1.00000000   0.286E+02       0.007     2184.299   0.100E-11
     TRS4 it   2 1.00000000   0.236E+02       0.013     2216.329   0.100E-11
     TRS4 it   3 1.00000000   0.154E+02       0.013     2255.082   0.100E-11
     TRS4 it   4 1.00000000   0.892E+01       0.013     2235.088   0.100E-11
     TRS4 it   5 1.00000000   0.367E+01       0.013     2235.634   0.100E-11
     TRS4 it   6 1.00000000   0.922E+00       0.013     2240.212   0.100E-11
     TRS4 it   7 1.00000000   0.109E+00       0.013     2244.504   0.100E-11
     TRS4 it   8 1.00000000   0.234E-02       0.013     2216.038   0.100E-11
     TRS4 it   9 1.00000000   0.153E-05       0.013     2239.456   0.100E-11
[...]
     TRS4 it   4 1.00000000   0.933E+01       0.013     2232.482   0.100E-11
     TRS4 it   5 1.00000000   0.419E+01       0.013     2232.554   0.100E-11
     TRS4 it   6 1.00000000   0.129E+01       0.013     2235.038   0.100E-11
     TRS4 it   7 1.00000000   0.228E+00       0.013     2242.891   0.100E-11
     TRS4 it   8 1.00000000   0.124E-01       0.013     2231.652   0.100E-11
     TRS4 it   9 1.00000000   0.495E-04       0.013     2240.466   0.100E-11
     TRS4 it  10 1.00000000   0.140E-08       0.013     2239.255   0.100E-11
     TRS4 it  11 1.00000000   0.124E-13       0.013     2220.207   0.100E-11
     Final TRS4 iteration   11 1.00000000   0.124E-13
     Chemical potential (mu):       0.02294
 
 PAO| energy:  -191.16850258273314      penalty:   2.6901412826762217E-008
 PAO| Writing restart file.
     Est. extremal eigenvalues     -0.83695     2.68800  converged:  T
     TRS4 it   1 1.00000000   0.292E+02       0.007     2172.447   0.100E-11
     TRS4 it   2 1.00000000   0.243E+02       0.013     2253.707   0.100E-11
     TRS4 it   3 1.00000000   0.157E+02       0.013     2242.610   0.100E-11
     TRS4 it   4 1.00000000   0.933E+01       0.013     2258.323   0.100E-11
     TRS4 it   5 1.00000000   0.419E+01       0.013     2270.778   0.100E-11
     TRS4 it   6 1.00000000   0.129E+01       0.013     2248.721   0.100E-11
     TRS4 it   7 1.00000000   0.228E+00       0.013     2246.634   0.100E-11
     TRS4 it   8 1.00000000   0.124E-01       0.013     2248.684   0.100E-11
     TRS4 it   9 1.00000000   0.495E-04       0.013     2255.840   0.100E-11
     TRS4 it  10 1.00000000   0.140E-08       0.013     2256.817   0.100E-11
     TRS4 it  11 1.00000000   0.124E-13       0.013     2258.305   0.100E-11
     Final TRS4 iteration   11 1.00000000   0.124E-13
     Chemical potential (mu):       0.02294

 SCF     1     -1103.032979999     -1103.032979999    1.767228

*********************************************************
 Using MIXING_FRACTION=0.450 to mix KS matrix:  iscf=  2
 KS_nw=0.450*KS + 0.550*KS_old
*********************************************************
     Est. extremal eigenvalues     -0.83695     2.68800  converged:  T
     TRS4 it   1 1.00000000   0.292E+02       0.007     2146.969   0.100E-11
     TRS4 it   2 1.00000000   0.243E+02       0.013     2232.253   0.100E-11
     TRS4 it   3 1.00000000   0.157E+02       0.013     2248.449   0.100E-11
     TRS4 it   4 1.00000000   0.933E+01       0.013     2273.065   0.100E-11
     TRS4 it   5 1.00000000   0.419E+01       0.013     2232.804   0.100E-11
     TRS4 it   6 1.00000000   0.129E+01       0.013     2240.212   0.100E-11
     TRS4 it   7 1.00000000   0.228E+00       0.013     2243.133   0.100E-11
     TRS4 it   8 1.00000000   0.124E-01       0.013     2234.851   0.100E-11
     TRS4 it   9 1.00000000   0.495E-04       0.013     2238.185   0.100E-11
     TRS4 it  10 1.00000000   0.140E-08       0.013     2257.030   0.100E-11
     TRS4 it  11 1.00000000   0.888E-14       0.013     2232.561   0.100E-11
     Final TRS4 iteration   11 1.00000000   0.888E-14
     Chemical potential (mu):       0.02294

 SCF     2     -1103.032979999        -0.000000000    1.761691


 SCF run converged in     2 steps.

 PAO| Storing density matrix for ASPC guess in slot:           1

 ENERGY| Total FORCE_EVAL ( QS ) energy [a.u.]:            -1103.032979999241888

 -------------------------------------------------------------------------------
 -                                                                             -
 -                                DBCSR STATISTICS                             -
 -                                                                             -
 -------------------------------------------------------------------------------
 COUNTER                                    TOTAL       BLAS       SMM       ACC
 flops     5 x     5 x     4             23116800       0.0%    100.0%      0.0%     
 flops    13 x     5 x     4             29818880       0.0%    100.0%      0.0%     
 flops     5 x    13 x     4             29818880       0.0%    100.0%      0.0%     
 flops    13 x    13 x     4             39370240       0.0%    100.0%      0.0%     
 flops     4 x     4 x     5           6366167040       0.0%    100.0%      0.0%     
 flops     5 x     4 x     5           7861043200       0.0%    100.0%      0.0%     
 flops     4 x     4 x    13           8276017152       0.0%    100.0%      0.0%     
 flops    13 x     4 x     5          10219356160       0.0%    100.0%      0.0%     
 flops     5 x     4 x    13          10219356160       0.0%    100.0%      0.0%     
 flops    13 x     4 x    13          13285163008       0.0%    100.0%      0.0%     
 flops     5 x     4 x     4         395278919680       0.0%    100.0%      0.0%     
 flops    13 x     4 x     4         519293191872       0.0%    100.0%      0.0%     
 flops     4 x     4 x     4       29358135644544       0.0%    100.0%      0.0%     
 flops inhomo. stacks                           0       0.0%      0.0%      0.0%
 flops total                        30.329057E+12       0.0%    100.0%      0.0%
 flops max/rank                    957.645269E+09       0.0%    100.0%      0.0%
 matmuls inhomo. stacks                         0       0.0%      0.0%      0.0%
 matmuls total                       233227607857       0.0%    100.0%      0.0%
 number of processed stacks             238262237       0.0%    100.0%      0.0%
 average stack size                                     0.0     978.9       0.0
 marketing flops                    52.477546E+12
 -------------------------------------------------------------------------------
 # multiplications                          49259
 max memory usage/rank             616.697856E+06
 # max total images/rank                        2
 # max 3D layers                                1
 # MPI messages exchanged                20491744
 MPI messages size (bytes):
  total size                         2.431943E+12
  min size                           0.000000E+00
  max size                         541.696000E+03
  average size                     118.679172E+03
 MPI breakdown and total messages size (bytes):
             size <=      128              873498                     9600
       128 < size <=     8192              336144               1308224128
      8192 < size <=    32768               42038                996340736
     32768 < size <=   131072             8788442             655028318080
    131072 < size <=  4194304            10451622            1774973586432
   4194304 < size <= 16777216                   0                        0
  16777216 < size                               0                        0
 -------------------------------------------------------------------------------

 *** WARNING in dbcsr_mm.F:301 :: Using a non-square number of MPI ranks ***
 *** might lead to poor performance. Used ranks: 32 Suggested: 36 64     ***

 -------------------------------------------------------------------------------
 -                                                                             -
 -                      DBCSR MESSAGE PASSING PERFORMANCE                      -
 -                                                                             -
 -------------------------------------------------------------------------------
 ROUTINE             CALLS      AVE VOLUME [Bytes]
 MP_Bcast               14                     12.
 MP_Allreduce       296677                     37.
 MP_Alltoall        127110                  14552.
 MP_ISend          1648866                  55116.
 MP_IRecv          1612576                  56452.
 -------------------------------------------------------------------------------

 -------------------------------------------------------------------------------
 -                                                                             -
 -                                DBM STATISTICS                               -
 -                                                                             -
 -------------------------------------------------------------------------------
    M  x    N  x    K                                          COUNT     PERCENT
 -------------------------------------------------------------------------------

 -------------------------------------------------------------------------------
 -                                                                             -
 -                                GRID STATISTICS                              -
 -                                                                             -
 -------------------------------------------------------------------------------
 LP    KERNEL             BACKEND                              COUNT     PERCENT
 2     collocate ortho    CPU                               11474246      28.83%
 2     integrate ortho    CPU                               11474246      28.83%
 3     collocate ortho    CPU                                7372834      18.53%
 3     integrate ortho    CPU                                7372834      18.53%
 4     collocate ortho    CPU                                1046402       2.63%
 4     integrate ortho    CPU                                1046402       2.63%
 0     collocate general  CPU                                   6144       0.02%
 -------------------------------------------------------------------------------

 MEMORY| Estimated peak process memory [MiB]                                 589

 -------------------------------------------------------------------------------
 -                                                                             -
 -                         MESSAGE PASSING PERFORMANCE                         -
 -                                                                             -
 -------------------------------------------------------------------------------

 ROUTINE             CALLS      AVE VOLUME [Bytes]
 MP_Group                5
 MP_Bcast           307674                   2151.
 MP_Allreduce       765156                    514.
 MP_Sync                 5
 MP_Alltoall           369                6565890.
 MP_SendRecv          1302                  18832.
 MP_ISendRecv         1302                  18832.
 MP_Wait              3696
 MP_ISend             2166                 108220.
 MP_IRecv             2166                 108236.
 -------------------------------------------------------------------------------


 -------------------------------------------------------------------------------
 -                                                                             -
 -                           R E F E R E N C E S                               -
 -                                                                             -
 -------------------------------------------------------------------------------
 
 CP2K version 2024.3 (Development Version), the CP2K developers group (2024).
 CP2K is freely available from https://www.cp2k.org/ .
 
 T. D. Kuehne, M. Iannuzzi, M. Del Ben, V. V. Rybkin, P. Seewald, F. Stein, T. 
 Laino, R. Z. Khaliullin, O. Schuett, F. Schiffmann, D. Golze, J. Wilhelm, S. 
 Chulkov, M. H. Bani-Hashemian, V. Weber, U. Borstnik, M. Taillefumier, A. S. 
 Jakobovits, A. Lazzaro, H. Pabst, T. Mueller, R. Schade, M. Guidon, S. 
 Andermatt, N. Holmberg, G. K. Schenter, A. Hehn, A. Bussy, F. Belleflamme, G. 
 Tabacchi, A. Gloess, M. Lass, I. Bethune, C. J. Mundy, C. Plessl, M. Watkins, 
 J. VandeVondele, M. Krack, J. Hutter.
 J. Chem. Phys. 152, 194103 (2020).
 CP2K: An electronic structure and molecular dynamics software package - 
 Quickstep: Efficient and accurate electronic structure calculations.
 https://doi.org/10.1063/5.0007045

 O. Schuett, J. VandeVondele.
 J. Chem. Theory Comput. 14, 4168-4175 (2018).
 Machine Learning Adaptive Basis Sets for Efficient Large Scale Density 
 Functional Theory Simulation.
 https://doi.org/10.1021/acs.jctc.8b00378

 O. Schuett, P. Messmer, J. Hutter, J. VandeVondele.
 Electronic Structure Calculations on Graphics Processing Units, 173-190 (2016).
 GPU-Accelerated Sparse Matrix-Matrix Multiplication for Linear Scaling Density 
 Functional Theory.
 https://doi.org/10.1002/9781118670712.ch8

 A. Heinecke, G. Henry, M. Hutchinson, H. Pabst.
 Proceedings of Intl. Supercomputing Conference, 981-991 (2016).
 LIBXSMM: Accelerating Small Matrix Multiplications by Runtime Code Generation.
 https://doi.org/10.1109/SC.2016.83

 J. Hutter, M. Iannuzzi, F. Schiffmann, J. VandeVondele.
 WIREs Comput Mol Sci. 4, 15-25 (2014).
 CP2K: atomistic simulations of condensed matter systems.
 https://doi.org/10.1002/wcms.1159

 U. Borstnik, J. VandeVondele, V. Weber, J. Hutter.
 Parallel Comput. 40, 47-58 (2014).
 Sparse matrix multiplication: The distributed block-compressed sparse row 
 library.
 https://doi.org/10.1016/j.parco.2014.03.012

 A. Marek, V. Blum, R. Johanni, V. Havu, B. Lang, T. Auckenthaler, A. Heinecke, 
 H. Bungartz, H. Lederer.
 J. Phys. Condens. Matter 26, 213201 (2014).
 The ELPA library: scalable parallel eigenvalue solutions for electronic 
 structure theory and computational science.
 https://doi.org/10.1088/0953-8984/26/21/213201

 J. VandeVondele, U. Borstnik, J. Hutter.
 J. Chem. Theory Comput. 8, 3565-3573 (2012).
 Linear Scaling Self-Consistent Field Calculations with Millions of Atoms in the 
 Condensed Phase.
 https://doi.org/10.1021/ct200897x

 J. VandeVondele, J. Hutter.
 J. Chem. Phys. 127, 114105 (2007).
 Gaussian basis sets for accurate calculations on molecular systems in gas and 
 condensed phases.
 https://doi.org/10.1063/1.2770708

 J. VandeVondele, M. Krack, F. Mohamed, M. Parrinello, T. Chassaing, J. Hutter.
 Comput. Phys. Commun. 167, 103-128 (2005).
 QUICKSTEP: Fast and accurate density functional calculations using a mixed 
 Gaussian and plane waves approach.
 https://doi.org/10.1016/j.cpc.2004.12.014

 M. Krack.
 Theor. Chem. Acc. 114, 145-152 (2005).
 Pseudopotentials for H to Kr optimized for gradient-corrected 
 exchange-correlation functionals.
 https://doi.org/10.1007/s00214-005-0655-y

 M. Frigo, S. G. Johnson.
 Proc. IEEE 93, 216-231 (2005).
 The design and implementation of FFTW3.
 https://doi.org/10.1109/JPROC.2004.840301

 A. M. N. Niklasson, C. J. Tymczak, M. Challacombe.
 J. Chem. Phys. 118, 8611-8620 (2003).
 Trace resetting density matrix purification in O(N) self-consistent-field 
 theory.
 https://doi.org/10.1063/1.1559913

 C. Hartwigsen, S. Goedecker, J. Hutter.
 Phys. Rev. B 58, 3641-3662 (1998).
 Relativistic separable dual-space Gaussian pseudopotentials from H to Rn.
 https://doi.org/10.1103/PhysRevB.58.3641

 G. Lippert, J. Hutter, M. Parrinello.
 Mol. Phys. 92, 477-487 (1997).
 A hybrid Gaussian and plane wave density functional scheme.
 https://doi.org/10.1080/002689797170220

 S. Goedecker, M. Teter, J. Hutter.
 Phys. Rev. B 54, 1703-1710 (1996).
 Separable dual-space Gaussian pseudopotentials.
 https://doi.org/10.1103/PhysRevB.54.1703

 J. P. Perdew, K. Burke, M. Ernzerhof.
 Phys. Rev. Lett. 77, 3865-3868 (1996).
 Generalized gradient approximation made simple.
 https://doi.org/10.1103/PhysRevLett.77.3865


 -------------------------------------------------------------------------------
 -                                                                             -
 -                                T I M I N G                                  -
 -                                                                             -
 -------------------------------------------------------------------------------
 SUBROUTINE                       CALLS  ASD         SELF TIME        TOTAL TIME
                                MAXIMUM       AVERAGE  MAXIMUM  AVERAGE  MAXIMUM
 CP2K                                 1  1.0    0.013    0.016  422.694  422.696
 qs_energies                          1  2.0    0.000    0.000  422.532  422.533
 ls_scf                               1  3.0    0.000    0.000  421.453  421.455
 pao_update                           6  4.0    0.006    0.024  395.366  395.367
 pao_calc_energy                    800  5.0    0.003    0.017  353.795  353.797
 dbcsr_multiply_generic           49259  8.4    1.381    1.464  337.423  337.770
 multiply_cannon                  49259  9.4    2.579    2.981  272.041  276.316
 multiply_cannon_loop             49259 10.4    1.839    2.195  261.482  265.426
 ls_scf_init_matrix_S               806  7.0    0.008    0.009  191.691  191.767
 pao_rebuild_S                      800  6.0    0.002    0.003  190.243  190.317
 multiply_cannon_multrec         394072 11.4  174.900  177.112  175.717  177.912
 matrix_sqrt_Newton_Schulz          806  8.0    0.167    0.282  176.984  177.042
 pao_dm_trs4                        800  6.0    0.006    0.007  163.178  163.205
 density_matrix_trs4                813  7.0    0.210    0.362  157.467  157.522
 mp_waitall_1                   3154106 12.6   82.340   90.900   82.340   90.900
 multiply_cannon_metrocomm3      394072 11.4    0.682    0.734   65.270   70.276
 make_m2s                         98518  9.4    0.535    0.712   49.979   51.030
 arnoldi_extremal                  1619  8.5    0.013    0.014   50.186   50.214
 arnoldi_normal_ev                 1619  9.5    0.032    0.053   50.170   50.197
 make_images                      98518 10.4    7.256    7.538   48.634   49.747
 build_subspace                    4950 10.5    0.305    0.328   44.238   44.268
 dbcsr_matrix_vector_mult        151738 11.5    0.652    0.978   41.850   42.172
 pao_calc_AB                       1061  5.8    0.002    0.002   41.125   41.128
 pao_calc_AB_equi                  1061  6.8    0.039    0.099   41.123   41.126
 pao_calc_grad_lnv_wrt_AB           260  7.0    0.019    0.023   40.720   40.759
 dbcsr_matrix_vector_mult_local  151738 12.5   35.721   35.989   35.891   36.158
 make_images_data                 98518 11.4    0.857    1.023   20.995   23.184
 ls_scf_main                          6  4.0    0.000    0.001   22.930   22.931
 ls_scf_dm_to_ks                     13  5.0    0.000    0.000   20.256   20.258
 hybrid_alltoall_any             100126 12.3    0.881    1.628   16.394   19.514
 matrix_qs_to_ls                   1619  7.5    0.016    0.021   16.417   16.494
 mp_sum_l                        201343  9.5    7.925   13.699    7.925   13.699
 calculate_norms                 735888 11.4   11.501   12.558   11.501   12.558
 qs_ks_update_qs_env                 14  6.0    0.000    0.000   12.157   12.159
 rebuild_ks_matrix                   14  7.0    0.000    0.000   12.147   12.149
 qs_ks_build_kohn_sham_matrix        14  8.0    0.002    0.003   12.147   12.149
 make_images_pack                 98518 11.4   10.915   11.245   11.049   11.377
 qs_rho_update_rho_low               14  6.0    0.000    0.000    9.577    9.579
 calculate_rho_elec                  14  7.0    0.005    0.005    9.577    9.579
 dbcsr_multiply_generic_mpsum_f   36189  9.5    0.027    0.031    4.794    9.510
 sum_up_and_integrate                14  9.0    0.000    0.000    9.190    9.192
 integrate_v_rspace                  14 10.0    0.000    0.001    9.177    9.181
 grid_collocate_task_list            14  8.0    8.501    8.620    8.501    8.620
 -------------------------------------------------------------------------------

 The number of warnings for this run is : 1
 
 -------------------------------------------------------------------------------
  **** **** ******  **  PROGRAM ENDED AT                 2024-09-24 04:43:39.764
 ***** ** ***  *** **   PROGRAM RAN ON                                    moritz
 **    ****   ******    PROGRAM RAN BY                                       ole
 ***** **    ** ** **   PROGRAM PROCESS ID                                168736
  **** **  *******  **  PROGRAM STOPPED IN /home/ole/git/pao_ml_equivar/64H2O_MD
                                           /Frame5100
