 DBCSR| CPU Multiplication driver                                           XSMM (U)
 DBCSR| Multrec recursion limit                                              512 (U)
 DBCSR| Multiplication stack size                                           1000 (D)
 DBCSR| Maximum elements for images                                    UNLIMITED (U)
 DBCSR| Multiplicative factor virtual images                                   1 (U)
 DBCSR| Use multiplication densification                                       T (D)
 DBCSR| Multiplication size stacks                                             3 (U)
 DBCSR| Use memory pool for CPU allocation                                     F (U)
 DBCSR| Number of 3D layers                                               SINGLE (U)
 DBCSR| Use MPI memory allocation                                              F (U)
 DBCSR| Use RMA algorithm                                                      F (U)
 DBCSR| Use Communication thread                                               T (U)
 DBCSR| Communication thread load                                             87 (D)
 DBCSR| MPI: My process id                                                     0
 DBCSR| MPI: Number of processes                                              32
 DBCSR| OMP: Current number of threads                                         1
 DBCSR| OMP: Max number of threads                                             1
 DBCSR| Split modifier for TAS multiplication algorithm                  1.0E+00 (U)


  **** **** ******  **  PROGRAM STARTED AT               2024-09-23 17:47:38.898
 ***** ** ***  *** **   PROGRAM STARTED ON                                moritz
 **    ****   ******    PROGRAM STARTED BY                                   ole
 ***** **    ** ** **   PROGRAM PROCESS ID                                159708
  **** **  *******  **  PROGRAM STARTED IN /home/ole/git/pao_ml_equivar/64H2O_MD
                                           /Frame5100

 CP2K| version string:                 CP2K version 2024.3 (Development Version)
 CP2K| source code revision number:                                  git:3f890bb
 CP2K| cp2kflags: omp libint fftw3 libxc libgrpp pexsi elpa parallel scalapack c
 CP2K|            osma quip deepmd xsmm plumed2 spglib libdftd4 sirius libvori l
 CP2K|            libbqb libvdwxc hdf5
 CP2K| is freely available from                            https://www.cp2k.org/
 CP2K| Program compiled at                          Mo 23 Sep 2024 17:17:04 CEST
 CP2K| Program compiled on                                                moritz
 CP2K| Program compiled for                                                local
 CP2K| Data directory path                               /home/ole/git/cp2k/data
 CP2K| Input file name                                             64H2O_ref.inp

 GLOBAL| Force Environment number                                              1
 GLOBAL| Basis set file name                                        BASIS_MOLOPT
 GLOBAL| Potential file name                                      GTH_POTENTIALS
 GLOBAL| MM Potential file name                                     MM_POTENTIAL
 GLOBAL| Coordinate file name                                         coords.xyz
 GLOBAL| Method name                                                        CP2K
 GLOBAL| Project name                                                  64H2O_ref
 GLOBAL| Run type                                                         ENERGY
 GLOBAL| FFT library                                                       FFTW3
 GLOBAL| Diagonalization library                                            ELPA
 GLOBAL| DGEMM library                                                      BLAS
 GLOBAL| Minimum number of eigenvectors for ELPA usage                        16
 GLOBAL| Orthonormality check for eigenvectors                          DISABLED
 GLOBAL| Matrix multiplication library                                     COSMA
 GLOBAL| All-to-all communication in single precision                          F
 GLOBAL| FFTs using library dependent lengths                                  F
 GLOBAL| Grid backend                                                       AUTO
 GLOBAL| Global print level                                                  LOW
 GLOBAL| MPI I/O enabled                                                       T
 GLOBAL| Total number of message passing processes                            32
 GLOBAL| Number of threads for this process                                    1
 GLOBAL| This output is from process                                           0
 GLOBAL| Stack size for threads created by OpenMP (OMP_STACKSIZE)        default
 GLOBAL| CPU model name           AMD Ryzen Threadripper 3970X 32-Core Processor
 GLOBAL| CPUID                                                              1002

 MEMORY| system memory details [Kb]
 MEMORY|                        rank 0           min           max       average
 MEMORY| MemTotal            131752136     131752136     131752136     131752136
 MEMORY| MemFree             117838920     117838920     117838920     117838920
 MEMORY| Buffers                260652        260652        260652        260652
 MEMORY| Cached                7582576       7582576       7582576       7582576
 MEMORY| Slab                   724324        724324        724324        724324
 MEMORY| SReclaimable           284660        284660        284660        284660
 MEMORY| MemLikelyFree       125966808     125966808     125966808     125966808


 GENERATE|  Preliminary Number of Bonds generated:                             0
 GENERATE|  Achieved consistency in connectivity generation.

 *******************************************************************************
 *******************************************************************************
 **                                                                           **
 **     #####                         ##              ##                      **
 **    ##   ##            ##          ##              ##                      **
 **   ##     ##                       ##            ######                    **
 **   ##     ##  ##   ##  ##   #####  ##  ##   ####   ##    #####    #####    **
 **   ##     ##  ##   ##  ##  ##      ## ##   ##      ##   ##   ##  ##   ##   **
 **   ##  ## ##  ##   ##  ##  ##      ####     ###    ##   ######   ######    **
 **    ##  ###   ##   ##  ##  ##      ## ##      ##   ##   ##       ##        **
 **     #######   #####   ##   #####  ##  ##  ####    ##    #####   ##        **
 **           ##                                                    ##        **
 **                                                                           **
 **                                                ... make the atoms dance   **
 **                                                                           **
 **            Copyright (C) by CP2K developers group (2000-2024)             **
 **                      J. Chem. Phys. 152, 194103 (2020)                    **
 **                                                                           **
 *******************************************************************************


 TOTAL NUMBERS AND MAXIMUM NUMBERS

  Total number of            - Atomic kinds:                                   2
                             - Atoms:                                        192
                             - Shell sets:                                   192
                             - Shells:                                       704
                             - Primitive Cartesian functions:               1344
                             - Cartesian basis functions:                   1536
                             - Spherical basis functions:                   1472

  Maximum angular momentum of- Orbital basis functions:                        2
                             - Local part of the GTH pseudopotential:          2
                             - Non-local part of the GTH pseudopotential:      0

 ------------------------------ Linear scaling SCF -----------------------------
 eps_scf:                                                              0.100E-07
 eps_filter:                                                           0.100E-11
 mixing_fraction:                                                      0.450E+00
 max_scf:                                                                     25
 fixed chemical potential (mu)                                                 F
 has unit metric:                                                              F
 Computing inv(S):                                                             T
 Computing sqrt(S):                                                            T
 Computing S preconditioner                                                    F
 S sqrt method:                                                     NEWTONSCHULZ
 S sqrt order:                                                                 3
 Extrapolation order:                                                          1
 S preconditioner type                                                      NONE
 Polarized Atomic Orbitals (PAO)                                               F
 Purification method                                   Trace resetting 4th order
 Cluster type                                                             ATOMIC
 Computing Chebyshev                                                       FALSE
 Using PAO                                                                     F
 -------------------------------------------------------------------------------


     Lanczos converged:  F threshold:   0.100E-02
     Est. extremal eigenvalues:    0.850E+01   0.547E-02
     Est. condition number :    0.155E+04

 Order=           3
     NS sqrt iter    1 1.00000000   0.219E+01       0.065     6216.115
     NS sqrt iter    2 1.00000000   0.116E+01       0.100     7964.431
     NS sqrt iter    3 1.00000000   0.576E+00       0.098     8157.730
     NS sqrt iter    4 1.00000000   0.332E+00       0.099     8067.862
     NS sqrt iter    5 1.00000000   0.225E+00       0.099     8085.771
     NS sqrt iter    6 1.00000000   0.105E+00       0.099     8078.540
     NS sqrt iter    7 1.00000000   0.129E-01       0.098     8119.207
     NS sqrt iter    8 1.00000000   0.657E-04       0.099     8048.944
     NS sqrt iter    9 1.00000000   0.371E-10       0.063     5911.150
     Symmetrizing Results
     Final NS sqrt iter    9 1.00000000   0.743E-11



 Guess for atomic kind: O

 Electronic structure
    Total number of core electrons                                          2.00
    Total number of valence electrons                                       6.00
    Total number of electrons                                               8.00
    Multiplicity                                                   not specified
    S   [  2.00] 2.00
    P      4.00


 *******************************************************************************
                  Iteration          Convergence                     Energy [au]
 *******************************************************************************
                          1        0.708315                     -15.576645311500
                          2        0.608879                     -15.587933561584
                          3        0.102828E-01                 -15.656849565404
                          4        0.113889E-02                 -15.656866888140
                          5        0.434197E-03                 -15.656867072159
                          6        0.263771E-03                 -15.656867091904
                          7        0.478536E-06                 -15.656867103452

 Energy components [Hartree]           Total Energy ::          -15.656867103452
                                        Band Energy ::           -3.000198112285
                                     Kinetic Energy ::           11.759971203220
                                   Potential Energy ::          -27.416838306672
                                      Virial (-V/T) ::            2.331369510426
                                        Core Energy ::          -26.140716385623
                                          XC Energy ::           -3.154051012914
                                     Coulomb Energy ::           13.637900295084
                       Total Pseudopotential Energy ::          -37.935781716540
                       Local Pseudopotential Energy ::          -39.218907440693
                    Nonlocal Pseudopotential Energy ::            1.283125724153
                                        Confinement ::            0.350941276976

 Orbital energies  State     L     Occupation   Energy[a.u.]          Energy[eV]

                       1     0          2.000      -0.864471          -23.523463

                       1     1          4.000      -0.317814           -8.648154


 Total Electron Density at R=0:                                         0.000068

 Guess for atomic kind: H

 Electronic structure
    Total number of core electrons                                          0.00
    Total number of valence electrons                                       1.00
    Total number of electrons                                               1.00
    Multiplicity                                                   not specified
    S      1.00


 *******************************************************************************
                  Iteration          Convergence                     Energy [au]
 *******************************************************************************
                          1        0.437545E-02                  -0.424159432110
                          2        0.531356E-03                  -0.424178438213
                          3        0.259176E-06                  -0.424178722480

 Energy components [Hartree]           Total Energy ::           -0.424178722480
                                        Band Energy ::           -0.199015229016
                                     Kinetic Energy ::            0.464007633961
                                   Potential Energy ::           -0.888186356441
                                      Virial (-V/T) ::            1.914163240935
                                        Core Energy ::           -0.479160803564
                                          XC Energy ::           -0.244352904054
                                     Coulomb Energy ::            0.299334985138
                       Total Pseudopotential Energy ::           -0.962295316385
                       Local Pseudopotential Energy ::           -0.962295316385
                    Nonlocal Pseudopotential Energy ::            0.000000000000
                                        Confinement ::            0.191268788606

 Orbital energies  State     L     Occupation   Energy[a.u.]          Energy[eV]

                       1     0          1.000      -0.199015           -5.415480


 Total Electron Density at R=0:                                         0.242907
 Re-scaling the density matrix to get the right number of electrons
                  # Electrons              Trace(P)               Scaling factor
                          512               512.001                        1.000
 Energy with the initial guess:     -1095.799311905

     Est. extremal eigenvalues     -0.94518     5.21501  converged:  T
     TRS4 it   1 1.00000000   0.566E+02       0.018     5538.456   0.100E-11
     TRS4 it   2 1.00000000   0.538E+02       0.018     5494.360   0.100E-11
     TRS4 it   3 1.00000000   0.337E+02       0.036     5497.413   0.100E-11
     TRS4 it   4 1.00000000   0.177E+02       0.036     5556.503   0.100E-11
     TRS4 it   5 1.00000000   0.107E+02       0.036     5620.549   0.100E-11
     TRS4 it   6 1.00000000   0.484E+01       0.036     5608.244   0.100E-11
     TRS4 it   7 1.00000000   0.144E+01       0.036     5618.330   0.100E-11
     TRS4 it   8 1.00000000   0.216E+00       0.036     5530.714   0.100E-11
     TRS4 it   9 1.00000000   0.917E-02       0.035     5651.842   0.100E-11
     TRS4 it  10 1.00000000   0.247E-04       0.036     5553.430   0.100E-11
     TRS4 it  11 1.00000000   0.595E-10       0.036     5645.648   0.100E-11
     Final TRS4 iteration   11 1.00000000   0.595E-10
     Chemical potential (mu):      -0.10686

 SCF     1     -1097.905850948     -1097.905850948    2.036765

*********************************************************
 Using MIXING_FRACTION=0.450 to mix KS matrix:  iscf=  2
 KS_nw=0.450*KS + 0.550*KS_old
*********************************************************
     Est. extremal eigenvalues     -0.83270     5.30426  converged:  T
     TRS4 it   1 1.00000000   0.558E+02       0.018     5457.265   0.100E-11
     TRS4 it   2 1.00000000   0.540E+02       0.019     5375.467   0.100E-11
     TRS4 it   3 1.00000000   0.349E+02       0.036     5612.890   0.100E-11
     TRS4 it   4 1.00000000   0.184E+02       0.036     5541.423   0.100E-11
     TRS4 it   5 1.00000000   0.118E+02       0.036     5582.300   0.100E-11
     TRS4 it   6 1.00000000   0.619E+01       0.035     5725.869   0.100E-11
     TRS4 it   7 1.00000000   0.247E+01       0.036     5598.294   0.100E-11
     TRS4 it   8 1.00000000   0.679E+00       0.036     5532.366   0.100E-11
     TRS4 it   9 1.00000000   0.103E+00       0.036     5572.649   0.100E-11
     TRS4 it  10 1.00000000   0.586E-02       0.036     5570.939   0.100E-11
     TRS4 it  11 1.00000000   0.145E-04       0.036     5606.402   0.100E-11
     TRS4 it  12 1.00000000   0.232E-09       0.036     5525.089   0.100E-11
     Final TRS4 iteration   12 1.00000000   0.232E-09
     Chemical potential (mu):      -0.01707

 SCF     2     -1102.957372515        -5.051521567    2.096898

*********************************************************
 Using MIXING_FRACTION=0.450 to mix KS matrix:  iscf=  3
 KS_nw=0.450*KS + 0.550*KS_old
*********************************************************
     Est. extremal eigenvalues     -0.84386     5.29732  converged:  F
     TRS4 it   1 1.00000000   0.559E+02       0.018     5588.674   0.100E-11
     TRS4 it   2 1.00000000   0.540E+02       0.019     5300.755   0.100E-11
     TRS4 it   3 1.00000000   0.348E+02       0.036     5638.033   0.100E-11
     TRS4 it   4 1.00000000   0.183E+02       0.036     5638.404   0.100E-11
     TRS4 it   5 1.00000000   0.117E+02       0.036     5601.185   0.100E-11
     TRS4 it   6 1.00000000   0.600E+01       0.037     5493.706   0.100E-11
     TRS4 it   7 1.00000000   0.231E+01       0.036     5521.376   0.100E-11
     TRS4 it   8 1.00000000   0.596E+00       0.036     5499.074   0.100E-11
     TRS4 it   9 1.00000000   0.791E-01       0.036     5561.066   0.100E-11
     TRS4 it  10 1.00000000   0.318E-02       0.036     5586.312   0.100E-11
     TRS4 it  11 1.00000000   0.319E-05       0.036     5539.291   0.100E-11
     TRS4 it  12 1.00000000   0.580E-11       0.036     5546.968   0.100E-11
     Final TRS4 iteration   12 1.00000000   0.580E-11
     Chemical potential (mu):      -0.02702

 SCF     3     -1103.117031807        -0.159659292    2.098827

*********************************************************
 Using MIXING_FRACTION=0.450 to mix KS matrix:  iscf=  4
 KS_nw=0.450*KS + 0.550*KS_old
*********************************************************
     Est. extremal eigenvalues     -0.83882     5.30238  converged:  F
     TRS4 it   1 1.00000000   0.559E+02       0.018     5471.412   0.100E-11
     TRS4 it   2 1.00000000   0.540E+02       0.018     5426.779   0.100E-11
     TRS4 it   3 1.00000000   0.348E+02       0.037     5482.942   0.100E-11
     TRS4 it   4 1.00000000   0.184E+02       0.036     5620.985   0.100E-11
     TRS4 it   5 1.00000000   0.118E+02       0.036     5503.212   0.100E-11
     TRS4 it   6 1.00000000   0.608E+01       0.036     5614.612   0.100E-11
     TRS4 it   7 1.00000000   0.237E+01       0.036     5638.087   0.100E-11
     TRS4 it   8 1.00000000   0.631E+00       0.036     5594.767   0.100E-11
     TRS4 it   9 1.00000000   0.898E-01       0.036     5565.862   0.100E-11
     TRS4 it  10 1.00000000   0.436E-02       0.036     5621.492   0.100E-11
     TRS4 it  11 1.00000000   0.815E-05       0.036     5569.498   0.100E-11
     TRS4 it  12 1.00000000   0.680E-10       0.035     5751.191   0.100E-11
     Final TRS4 iteration   12 1.00000000   0.680E-10
     Chemical potential (mu):      -0.02015

 SCF     4     -1103.124971667        -0.007939860    2.098596

*********************************************************
 Using MIXING_FRACTION=0.450 to mix KS matrix:  iscf=  5
 KS_nw=0.450*KS + 0.550*KS_old
*********************************************************
     Est. extremal eigenvalues     -0.83817     5.30341  converged:  F
     TRS4 it   1 1.00000000   0.559E+02       0.018     5462.070   0.100E-11
     TRS4 it   2 1.00000000   0.540E+02       0.019     5347.130   0.100E-11
     TRS4 it   3 1.00000000   0.348E+02       0.036     5574.033   0.100E-11
     TRS4 it   4 1.00000000   0.184E+02       0.036     5542.310   0.100E-11
     TRS4 it   5 1.00000000   0.118E+02       0.036     5615.243   0.100E-11
     TRS4 it   6 1.00000000   0.608E+01       0.035     5660.727   0.100E-11
     TRS4 it   7 1.00000000   0.237E+01       0.036     5638.893   0.100E-11
     TRS4 it   8 1.00000000   0.631E+00       0.036     5608.094   0.100E-11
     TRS4 it   9 1.00000000   0.900E-01       0.035     5656.042   0.100E-11
     TRS4 it  10 1.00000000   0.438E-02       0.036     5647.048   0.100E-11
     TRS4 it  11 1.00000000   0.829E-05       0.036     5605.028   0.100E-11
     TRS4 it  12 1.00000000   0.684E-10       0.036     5600.172   0.100E-11
     Final TRS4 iteration   12 1.00000000   0.684E-10
     Chemical potential (mu):      -0.01940

 SCF     5     -1103.125588696        -0.000617029    2.095558

*********************************************************
 Using MIXING_FRACTION=0.450 to mix KS matrix:  iscf=  6
 KS_nw=0.450*KS + 0.550*KS_old
*********************************************************
     Est. extremal eigenvalues     -0.83744     5.30413  converged:  F
     TRS4 it   1 1.00000000   0.559E+02       0.019     5282.267   0.100E-11
     TRS4 it   2 1.00000000   0.540E+02       0.018     5426.934   0.100E-11
     TRS4 it   3 1.00000000   0.348E+02       0.036     5544.420   0.100E-11
     TRS4 it   4 1.00000000   0.184E+02       0.036     5604.792   0.100E-11
     TRS4 it   5 1.00000000   0.118E+02       0.036     5566.865   0.100E-11
     TRS4 it   6 1.00000000   0.608E+01       0.036     5587.802   0.100E-11
     TRS4 it   7 1.00000000   0.238E+01       0.036     5638.690   0.100E-11
     TRS4 it   8 1.00000000   0.636E+00       0.036     5601.936   0.100E-11
     TRS4 it   9 1.00000000   0.914E-01       0.035     5694.912   0.100E-11
     TRS4 it  10 1.00000000   0.456E-02       0.036     5608.989   0.100E-11
     TRS4 it  11 1.00000000   0.939E-05       0.036     5607.146   0.100E-11
     TRS4 it  12 1.00000000   0.947E-10       0.035     5664.916   0.100E-11
     Final TRS4 iteration   12 1.00000000   0.947E-10
     Chemical potential (mu):      -0.01833

 SCF     6     -1103.125680521        -0.000091825    2.096248

*********************************************************
 Using MIXING_FRACTION=0.450 to mix KS matrix:  iscf=  7
 KS_nw=0.450*KS + 0.550*KS_old
*********************************************************
     Est. extremal eigenvalues     -0.83708     5.30449  converged:  F
     TRS4 it   1 1.00000000   0.559E+02       0.018     5462.013   0.100E-11
     TRS4 it   2 1.00000000   0.540E+02       0.018     5522.550   0.100E-11
     TRS4 it   3 1.00000000   0.348E+02       0.036     5601.997   0.100E-11
     TRS4 it   4 1.00000000   0.184E+02       0.036     5558.627   0.100E-11
     TRS4 it   5 1.00000000   0.118E+02       0.037     5470.545   0.100E-11
     TRS4 it   6 1.00000000   0.609E+01       0.036     5550.115   0.100E-11
     TRS4 it   7 1.00000000   0.238E+01       0.036     5552.065   0.100E-11
     TRS4 it   8 1.00000000   0.637E+00       0.035     5652.236   0.100E-11
     TRS4 it   9 1.00000000   0.917E-01       0.036     5625.210   0.100E-11
     TRS4 it  10 1.00000000   0.460E-02       0.036     5591.923   0.100E-11
     TRS4 it  11 1.00000000   0.967E-05       0.035     5678.377   0.100E-11
     TRS4 it  12 1.00000000   0.102E-09       0.036     5561.530   0.100E-11
     Final TRS4 iteration   12 1.00000000   0.102E-09
     Chemical potential (mu):      -0.01795

 SCF     7     -1103.125700240        -0.000019719    2.096478

*********************************************************
 Using MIXING_FRACTION=0.450 to mix KS matrix:  iscf=  8
 KS_nw=0.450*KS + 0.550*KS_old
*********************************************************
     Est. extremal eigenvalues     -0.83689     5.30466  converged:  F
     TRS4 it   1 1.00000000   0.559E+02       0.019     5343.240   0.100E-11
     TRS4 it   2 1.00000000   0.540E+02       0.019     5351.754   0.100E-11
     TRS4 it   3 1.00000000   0.348E+02       0.036     5599.389   0.100E-11
     TRS4 it   4 1.00000000   0.184E+02       0.036     5625.106   0.100E-11
     TRS4 it   5 1.00000000   0.118E+02       0.035     5672.035   0.100E-11
     TRS4 it   6 1.00000000   0.609E+01       0.036     5576.510   0.100E-11
     TRS4 it   7 1.00000000   0.238E+01       0.036     5579.163   0.100E-11
     TRS4 it   8 1.00000000   0.637E+00       0.036     5579.042   0.100E-11
     TRS4 it   9 1.00000000   0.920E-01       0.036     5541.067   0.100E-11
     TRS4 it  10 1.00000000   0.464E-02       0.036     5600.821   0.100E-11
     TRS4 it  11 1.00000000   0.990E-05       0.036     5634.955   0.100E-11
     TRS4 it  12 1.00000000   0.108E-09       0.035     5657.895   0.100E-11
     Final TRS4 iteration   12 1.00000000   0.108E-09
     Chemical potential (mu):      -0.01770

 SCF     8     -1103.125705059        -0.000004819    2.096839


 SCF run converged in     8 steps.

 Writing restart DM 64H2O_ref_LS_DM_SPIN_1_RESTART.dm with checksum:       0.61383643E+04

 ENERGY| Total FORCE_EVAL ( QS ) energy [a.u.]:            -1103.125705059005895

 -------------------------------------------------------------------------------
 -                                                                             -
 -                                DBCSR STATISTICS                             -
 -                                                                             -
 -------------------------------------------------------------------------------
 COUNTER                                    TOTAL       BLAS       SMM       ACC
 flops     5 x     5 x     5          79342671750       0.0%    100.0%      0.0%     
 flops    13 x     5 x     5         102745878950       0.0%    100.0%      0.0%     
 flops     5 x    13 x     5         102748940450       0.0%    100.0%      0.0%     
 flops     5 x     5 x    13         103264246800       0.0%    100.0%      0.0%     
 flops    13 x     5 x    13         133731773630       0.0%    100.0%      0.0%     
 flops     5 x    13 x    13         133764160790       0.0%    100.0%      0.0%     
 flops    13 x    13 x     5         134905400890       0.0%    100.0%      0.0%     
 flops    13 x    13 x    13         175633162796       0.0%    100.0%      0.0%     
 flops inhomo. stacks                           0       0.0%      0.0%      0.0%
 flops total                       966.136236E+09       0.0%    100.0%      0.0%
 flops max/rank                     30.995460E+09       0.0%    100.0%      0.0%
 matmuls inhomo. stacks                         0       0.0%      0.0%      0.0%
 matmuls total                         1070463068       0.0%    100.0%      0.0%
 number of processed stacks               1515505       0.0%    100.0%      0.0%
 average stack size                                     0.0     706.3       0.0
 marketing flops                     1.569237E+12
 -------------------------------------------------------------------------------
 # multiplications                            246
 max memory usage/rank             620.949504E+06
 # max total images/rank                        2
 # max 3D layers                                1
 # MPI messages exchanged                  102336
 MPI messages size (bytes):
  total size                        42.345308E+09
  min size                           0.000000E+00
  max size                         541.696000E+03
  average size                     413.787031E+03
 MPI breakdown and total messages size (bytes):
             size <=      128                 312                        0
       128 < size <=     8192                  42                   279312
      8192 < size <=    32768                  62                   841968
     32768 < size <=   131072                   0                        0
    131072 < size <=  4194304              101920              42344185920
   4194304 < size <= 16777216                   0                        0
  16777216 < size                               0                        0
 -------------------------------------------------------------------------------

 *** WARNING in dbcsr_mm.F:301 :: Using a non-square number of MPI ranks ***
 *** might lead to poor performance. Used ranks: 32 Suggested: 36 64     ***

 -------------------------------------------------------------------------------
 -                                                                             -
 -                      DBCSR MESSAGE PASSING PERFORMANCE                      -
 -                                                                             -
 -------------------------------------------------------------------------------
 ROUTINE             CALLS      AVE VOLUME [Bytes]
 MP_Bcast                9                     12.
 MP_Allreduce         1762                     34.
 MP_Alltoall           546                  34827.
 MP_ISend             8604                 170676.
 MP_IRecv             8238                 178876.
 -------------------------------------------------------------------------------

 -------------------------------------------------------------------------------
 -                                                                             -
 -                                DBM STATISTICS                               -
 -                                                                             -
 -------------------------------------------------------------------------------
    M  x    N  x    K                                          COUNT     PERCENT
 -------------------------------------------------------------------------------

 -------------------------------------------------------------------------------
 -                                                                             -
 -                                GRID STATISTICS                              -
 -                                                                             -
 -------------------------------------------------------------------------------
 LP    KERNEL             BACKEND                              COUNT     PERCENT
 2     collocate ortho    CPU                                7376301      28.83%
 2     integrate ortho    CPU                                7376301      28.83%
 3     collocate ortho    CPU                                4739679      18.53%
 3     integrate ortho    CPU                                4739679      18.53%
 4     collocate ortho    CPU                                 672687       2.63%
 4     integrate ortho    CPU                                 672687       2.63%
 0     collocate general  CPU                                   6144       0.02%
 -------------------------------------------------------------------------------

 MEMORY| Estimated peak process memory [MiB]                                 593

 -------------------------------------------------------------------------------
 -                                                                             -
 -                         MESSAGE PASSING PERFORMANCE                         -
 -                                                                             -
 -------------------------------------------------------------------------------

 ROUTINE             CALLS      AVE VOLUME [Bytes]
 MP_Group                5
 MP_Bcast             2723                 143376.
 MP_Allreduce         7237                    939.
 MP_Sync                 5
 MP_Alltoall           244                8297738.
 MP_SendRecv           837                  18832.
 MP_ISendRecv          837                  18832.
 MP_Wait              2391
 MP_ISend             1406                 108579.
 MP_IRecv             1406                 108603.
 -------------------------------------------------------------------------------


 -------------------------------------------------------------------------------
 -                                                                             -
 -                           R E F E R E N C E S                               -
 -                                                                             -
 -------------------------------------------------------------------------------
 
 CP2K version 2024.3 (Development Version), the CP2K developers group (2024).
 CP2K is freely available from https://www.cp2k.org/ .
 
 T. D. Kuehne, M. Iannuzzi, M. Del Ben, V. V. Rybkin, P. Seewald, F. Stein, T. 
 Laino, R. Z. Khaliullin, O. Schuett, F. Schiffmann, D. Golze, J. Wilhelm, S. 
 Chulkov, M. H. Bani-Hashemian, V. Weber, U. Borstnik, M. Taillefumier, A. S. 
 Jakobovits, A. Lazzaro, H. Pabst, T. Mueller, R. Schade, M. Guidon, S. 
 Andermatt, N. Holmberg, G. K. Schenter, A. Hehn, A. Bussy, F. Belleflamme, G. 
 Tabacchi, A. Gloess, M. Lass, I. Bethune, C. J. Mundy, C. Plessl, M. Watkins, 
 J. VandeVondele, M. Krack, J. Hutter.
 J. Chem. Phys. 152, 194103 (2020).
 CP2K: An electronic structure and molecular dynamics software package - 
 Quickstep: Efficient and accurate electronic structure calculations.
 https://doi.org/10.1063/5.0007045

 O. Schuett, P. Messmer, J. Hutter, J. VandeVondele.
 Electronic Structure Calculations on Graphics Processing Units, 173-190 (2016).
 GPU-Accelerated Sparse Matrix-Matrix Multiplication for Linear Scaling Density 
 Functional Theory.
 https://doi.org/10.1002/9781118670712.ch8

 A. Heinecke, G. Henry, M. Hutchinson, H. Pabst.
 Proceedings of Intl. Supercomputing Conference, 981-991 (2016).
 LIBXSMM: Accelerating Small Matrix Multiplications by Runtime Code Generation.
 https://doi.org/10.1109/SC.2016.83

 J. Hutter, M. Iannuzzi, F. Schiffmann, J. VandeVondele.
 WIREs Comput Mol Sci. 4, 15-25 (2014).
 CP2K: atomistic simulations of condensed matter systems.
 https://doi.org/10.1002/wcms.1159

 U. Borstnik, J. VandeVondele, V. Weber, J. Hutter.
 Parallel Comput. 40, 47-58 (2014).
 Sparse matrix multiplication: The distributed block-compressed sparse row 
 library.
 https://doi.org/10.1016/j.parco.2014.03.012

 A. Marek, V. Blum, R. Johanni, V. Havu, B. Lang, T. Auckenthaler, A. Heinecke, 
 H. Bungartz, H. Lederer.
 J. Phys. Condens. Matter 26, 213201 (2014).
 The ELPA library: scalable parallel eigenvalue solutions for electronic 
 structure theory and computational science.
 https://doi.org/10.1088/0953-8984/26/21/213201

 J. VandeVondele, U. Borstnik, J. Hutter.
 J. Chem. Theory Comput. 8, 3565-3573 (2012).
 Linear Scaling Self-Consistent Field Calculations with Millions of Atoms in the 
 Condensed Phase.
 https://doi.org/10.1021/ct200897x

 J. VandeVondele, J. Hutter.
 J. Chem. Phys. 127, 114105 (2007).
 Gaussian basis sets for accurate calculations on molecular systems in gas and 
 condensed phases.
 https://doi.org/10.1063/1.2770708

 J. VandeVondele, M. Krack, F. Mohamed, M. Parrinello, T. Chassaing, J. Hutter.
 Comput. Phys. Commun. 167, 103-128 (2005).
 QUICKSTEP: Fast and accurate density functional calculations using a mixed 
 Gaussian and plane waves approach.
 https://doi.org/10.1016/j.cpc.2004.12.014

 M. Krack.
 Theor. Chem. Acc. 114, 145-152 (2005).
 Pseudopotentials for H to Kr optimized for gradient-corrected 
 exchange-correlation functionals.
 https://doi.org/10.1007/s00214-005-0655-y

 M. Frigo, S. G. Johnson.
 Proc. IEEE 93, 216-231 (2005).
 The design and implementation of FFTW3.
 https://doi.org/10.1109/JPROC.2004.840301

 A. M. N. Niklasson, C. J. Tymczak, M. Challacombe.
 J. Chem. Phys. 118, 8611-8620 (2003).
 Trace resetting density matrix purification in O(N) self-consistent-field 
 theory.
 https://doi.org/10.1063/1.1559913

 C. Hartwigsen, S. Goedecker, J. Hutter.
 Phys. Rev. B 58, 3641-3662 (1998).
 Relativistic separable dual-space Gaussian pseudopotentials from H to Rn.
 https://doi.org/10.1103/PhysRevB.58.3641

 G. Lippert, J. Hutter, M. Parrinello.
 Mol. Phys. 92, 477-487 (1997).
 A hybrid Gaussian and plane wave density functional scheme.
 https://doi.org/10.1080/002689797170220

 S. Goedecker, M. Teter, J. Hutter.
 Phys. Rev. B 54, 1703-1710 (1996).
 Separable dual-space Gaussian pseudopotentials.
 https://doi.org/10.1103/PhysRevB.54.1703

 J. P. Perdew, K. Burke, M. Ernzerhof.
 Phys. Rev. Lett. 77, 3865-3868 (1996).
 Generalized gradient approximation made simple.
 https://doi.org/10.1103/PhysRevLett.77.3865


 -------------------------------------------------------------------------------
 -                                                                             -
 -                                T I M I N G                                  -
 -                                                                             -
 -------------------------------------------------------------------------------
 SUBROUTINE                       CALLS  ASD         SELF TIME        TOTAL TIME
                                MAXIMUM       AVERAGE  MAXIMUM  AVERAGE  MAXIMUM
 CP2K                                 1  1.0    0.013    0.016   20.545   20.545
 qs_energies                          1  2.0    0.000    0.000   20.380   20.380
 ls_scf                               1  3.0    0.000    0.000   19.257   19.258
 ls_scf_main                          1  4.0    0.000    0.000   16.716   16.717
 ls_scf_dm_to_ks                      8  5.0    0.000    0.000   12.410   12.416
 qs_ks_update_qs_env                  9  6.1    0.000    0.000    7.834    7.838
 rebuild_ks_matrix                    9  7.1    0.000    0.000    7.827    7.832
 qs_ks_build_kohn_sham_matrix         9  8.1    0.002    0.002    7.827    7.831
 qs_rho_update_rho_low                9  6.1    0.000    0.000    6.127    6.131
 calculate_rho_elec                   9  7.1    0.003    0.003    6.127    6.131
 sum_up_and_integrate                 9  9.1    0.000    0.000    5.926    5.931
 integrate_v_rspace                   9 10.1    0.000    0.000    5.918    5.923
 grid_collocate_task_list             9  8.1    5.436    5.538    5.436    5.538
 grid_integrate_task_list             9 11.1    5.202    5.318    5.202    5.318
 dbcsr_multiply_generic             246  6.2    0.012    0.013    4.622    4.627
 density_matrix_trs4                  8  5.0    0.004    0.006    4.299    4.302
 multiply_cannon                    246  7.2    0.018    0.022    3.761    3.846
 multiply_cannon_loop               246  8.2    0.019    0.022    3.686    3.749
 ls_scf_init_scf                      1  4.0    0.000    0.000    2.478    2.478
 multiply_cannon_multrec           1968  9.2    2.103    2.142    2.109    2.149
 mp_waitall_1                     16729 10.5    1.715    1.796    1.715    1.796
 fft_wrap_pw1pw2                    172 11.3    0.003    0.003    1.760    1.789
 fft_wrap_pw1pw2_200                100 12.8    0.103    0.109    1.689    1.719
 qs_vxc_create                        9  9.1    0.000    0.000    1.553    1.581
 xc_vxc_pw_create                     9 10.1    0.013    0.018    1.552    1.581
 ls_scf_initial_guess                 1  5.0    0.000    0.000    1.555    1.555
 ls_scf_qs_atomic_guess               1  6.0    0.000    0.000    1.555    1.555
 multiply_cannon_metrocomm3        1968  9.2    0.005    0.006    1.337    1.414
 fft3d_ps                           172 13.3    0.717    0.788    1.320    1.366
 xc_pw_derive                        54 12.1    0.001    0.001    1.101    1.180
 qs_energies_init_hamiltonians        1  3.0    0.000    0.000    1.122    1.122
 build_core_hamiltonian_matrix        1  4.0    0.000    0.000    0.714    0.931
 ls_scf_init_matrix_S                 1  5.0    0.000    0.000    0.923    0.924
 matrix_sqrt_Newton_Schulz            1  6.0    0.001    0.001    0.899    0.899
 xc_rho_set_and_dset_create           9 11.1    0.020    0.028    0.784    0.802
 xc_pw_divergence                     9 11.1    0.000    0.000    0.736    0.774
 density_rs2pw                        9  8.1    0.000    0.000    0.657    0.724
 make_m2s                           492  7.2    0.005    0.007    0.682    0.694
 make_images                        492  8.2    0.039    0.040    0.672    0.684
 mp_waitany                        1406 12.5    0.576    0.674    0.576    0.674
 build_core_ppl                       1  5.0    0.489    0.650    0.489    0.650
 transfer_rs2pw                      46  9.0    0.001    0.001    0.512    0.609
 mp_alltoall_z22v                   172 15.3    0.427    0.601    0.427    0.601
 potential_pw2rs                      9 11.1    0.000    0.001    0.598    0.599
 transfer_rs2pw_200                  10  9.8    0.037    0.052    0.408    0.508
 arnoldi_extremal                     9  6.1    0.000    0.000    0.489    0.490
 arnoldi_normal_ev                    9  7.1    0.000    0.001    0.488    0.489
 qs_env_update_s_mstruct              1  4.0    0.000    0.000    0.389    0.467
 build_subspace                      43  8.1    0.003    0.004    0.432    0.433
 -------------------------------------------------------------------------------

 The number of warnings for this run is : 1
 
 -------------------------------------------------------------------------------
  **** **** ******  **  PROGRAM ENDED AT                 2024-09-23 17:48:00.064
 ***** ** ***  *** **   PROGRAM RAN ON                                    moritz
 **    ****   ******    PROGRAM RAN BY                                       ole
 ***** **    ** ** **   PROGRAM PROCESS ID                                159708
  **** **  *******  **  PROGRAM STOPPED IN /home/ole/git/pao_ml_equivar/64H2O_MD
                                           /Frame5100
