     192
 i =     5100, time =     7650.000, E =     -1100.0571786551
  O         5.6495431799       -3.2005314422        3.5452802930
  H         5.9597368511       -4.0952407214        3.3778474280
  H         6.0725248860       -2.9078971272        4.3547724867
  O        -5.2519935903        1.9971756858        5.2383599650
  H        -4.8776196659        1.5490046414        4.4622477080
  H        -4.6343538649        1.8082604871        5.9243412417
  O         6.5730143219        4.7184300173        6.2197684665
  H         5.6678911373        4.2891565809        6.3268389252
  H         7.0629075700        3.9888978117        5.8255915581
  O        -2.8140518536        0.2584713929       -3.4719178577
  H        -2.3292703236        0.6338524425       -2.7132033952
  H        -2.2669371850       -0.4834640343       -3.7684785017
  O        -3.9821008633        5.6356728394        3.9061080521
  H        -4.8075525630        6.0986638452        3.8981135805
  H        -3.5050473215        6.0443753821        3.1547361501
  O         7.5947991556       -0.3522218625        3.9014156107
  H         7.7242077821       -0.8315672540        4.7433133667
  H         7.0790238112       -0.8989677573        3.3000157949
  O         4.6755133343       -5.8424880407        0.5058314600
  H         4.4477816614       -4.9703692778        0.1452460354
  H         3.9324532803       -6.4044020013        0.4973295042
  O        -0.5255055710       -2.6400815001       -1.6274145514
  H        -1.2712278261       -3.2509071075       -1.8799456338
  H        -0.7981029144       -2.0146038655       -0.9240184071
  O         3.0898835672       -2.7025630177        3.8747158210
  H         4.0248562853       -2.9658428935        3.8471167038
  H         2.8485947261       -2.6394168692        2.9117487762
  O         4.0881546735        3.4393134529        6.0185205219
  H         4.2351798273        2.4666257697        6.1433079892
  H         3.6123175909        3.7380981691        6.8146279927
  O         4.9337607671       -3.3067682995       -4.8360982883
  H         4.6961267442       -2.5566428939       -4.2578595591
  H         4.1611799812       -4.0125700890       -4.8541378932
  O         2.4992062333       -2.2811158408        1.1224480002
  H         1.9080355992       -3.0601087286        0.7350693024
  H         3.3292247663       -2.2862018734        0.5605693267
  O         2.8582938223       -5.0351255399       -4.5778793648
  H         2.9717545675       -5.9385952560       -4.2795962012
  H         2.2425503721       -5.1071575248       -5.3649826587
  O         5.1002945034        4.4152761406       -2.4637206386
  H         5.4945587235        3.5540900885       -2.7472674907
  H         5.8115692218        5.0922330699       -2.3598127087
  O         2.7073845431       -0.1524619441        4.9189976928
  H         2.9032146213       -1.0602452634        4.6577708289
  H         2.5325681596        0.3566226189        4.1346586061
  O        -0.9594982996        2.5603782355        6.7330382511
  H        -1.0265718455        2.0659841219        5.8923488211
  H        -1.8232335180        2.4141311353        7.1636684156
  O        -1.0241083132       -3.3298287134        2.8922101324
  H        -0.4623125697       -3.4995015350        2.1294236316
  H        -0.5173886302       -3.8490793970        3.5996036062
  O        -2.6144027133        3.1563541854        3.0458183853
  H        -2.1074156055        2.4435362925        3.4819337133
  H        -3.0646061536        3.6301611377        3.7452749581
  O         1.1208422054       -0.7847787087       -5.2542444287
  H         1.6367763661       -0.5694444916       -6.0360211664
  H         1.7101852259       -0.4350550969       -4.5506585759
  O        -1.1294157979       -0.5726857297        0.3063729070
  H        -1.6763326937       -0.5430550144        1.0699297194
  H        -0.1775280452       -0.3098806165        0.5099289967
  O        -3.1915465214        3.5980068743       -2.5193381047
  H        -3.6204286052        4.4054583244       -2.2817283239
  H        -3.0880900351        2.9568659145       -1.7900093359
  O         5.9284890017        6.5330036178        2.9784191416
  H         5.6711948325        6.5619315881        2.0269348076
  H         5.0887562287        6.2542990373        3.3229138404
  O         5.3576901213       -0.5583880437       -3.8371497689
  H         5.2365435437       -0.4882847252       -4.8313509352
  H         6.2342789919       -0.9878428440       -3.6799801262
  O        -4.8539876147        5.7830006153       -2.5345850965
  H        -4.7553759606        6.2897373456       -1.7170144493
  H        -5.3655113629        6.3471114569       -3.1760401964
  O         7.3007434019        0.8342775827       -0.9145546303
  H         7.9056977429        1.2826038908       -0.3166549859
  H         7.1899013522        1.4665530093       -1.6300747242
  O         1.4618178088        0.0992121788        0.9665793425
  H         1.6050240982        0.4848824774        0.1459470639
  H         1.8662459986       -0.8345380149        1.0380822828
  O        -5.1571670427       -4.9146504511       -0.2645390275
  H        -4.6797464364       -5.0119506309        0.5925567018
  H        -5.9761095672       -5.4762317151       -0.0871945018
  O        -3.8685719824        3.0335465367        0.3331976755
  H        -4.6073973179        3.3589149218        0.9684654351
  H        -3.1230633932        2.8340680133        0.9380173323
  O         4.9969346288        0.1707491237       -6.2178471051
  H         5.6737820088        0.5227954179       -6.8650582776
  H         4.2199650363        0.1297732020       -6.7201404308
  O         4.6043212477       -2.8674439262       -0.3009653468
  H         5.5984126409       -2.6398585182       -0.1591628872
  H         4.2431898713       -2.9133954030       -1.2383341370
  O         1.6637734699        1.7790079273       -1.4078219254
  H         2.2678817482        2.4227479820       -1.0078203837
  H         1.0600326996        2.1936892996       -2.0499850497
  O        -2.2316400691       -0.8733295735        2.7204179723
  H        -1.9921328349       -1.7865328328        2.8640118561
  H        -3.1228875514       -0.7636381867        3.0856035968
  O         1.7368075251       -8.2801766649        2.0200283782
  H         2.0858550010       -8.2598874504        1.1355031105
  H         2.3798174430       -7.7969494420        2.5680622154
  O         3.0126590028       -2.9929631685       -2.4431000649
  H         2.6746333682       -3.6920408414       -2.9902475671
  H         2.6225502740       -2.2134121319       -2.7856708923
  O        -6.0638796296        3.6628038773        1.5722087233
  H        -6.5813451763        2.8440089369        1.5698043313
  H        -6.0810263795        4.0024814463        2.4638185846
  O         2.0889638528       -5.1024226156       -7.1014715730
  H         1.0682695124       -5.0224779313       -7.2334862477
  H         2.4722609214       -4.3464769672       -7.5836717343
  O         0.5169301166        3.1924328352       -3.4276893464
  H         0.2618992168        2.7221874855       -4.2622767478
  H        -0.2529365834        3.8097358810       -3.3327388237
  O        -2.9515609758       -5.3536039353        1.7304865268
  H        -2.2658158456       -4.9275735231        2.2680136802
  H        -2.4840312449       -6.0876930860        1.3223320754
  O         3.3354408574        5.3851064406        3.9392690544
  H         2.7118182554        5.9666488802        4.4319687462
  H         3.5347217911        4.5407615620        4.4245988125
  O        -3.6457359844        2.2227537361       -4.7560211358
  H        -3.2756085439        1.4532727349       -4.3722659246
  H        -3.5986712584        2.8329387746       -3.9863604268
  O         1.5176381876        1.6182190994        3.1696736540
  H         1.4384346393        2.5308215982        2.7610675238
  H         1.5217084419        1.1361279911        2.3127757055
  O        -7.6116237145        1.6943222595        1.7694784466
  H        -8.5328234520        1.6705973206        1.9464644848
  H        -7.3714626355        0.7092721552        1.8412176496
  O        -1.1307028636        1.2628618974        4.3209601790
  H        -0.2756830930        1.4003849535        3.9523220994
  H        -1.4074752210        0.4517766619        3.8244094485
  O        -1.7543972790        5.0384269616        0.1007321980
  H        -1.4205664820        5.1360655060        0.9840389152
  H        -2.3681215234        4.3083639212        0.1584852744
  O        -0.9976099192       -1.6655569455       -4.2181191828
  H        -0.5797570607       -2.0757971872       -3.4465225192
  H        -0.2730367858       -1.2842253056       -4.7588876953
  O        -6.2883870459        1.9957905554       -3.3648044228
  H        -5.7077449674        2.0700239012       -4.1286665671
  H        -6.6826838922        1.1583558013       -3.6008931974
  O         7.4289063171       -1.9868345465       -0.4001538239
  H         7.6251553692       -2.6053748820       -1.1690717243
  H         7.4868523634       -1.1153103217       -0.7888480658
  O        -1.7110463052        1.6172304467       -1.1650659237
  H        -0.8414827948        1.9107163418       -1.3240711830
  H        -1.5398946869        0.8693677465       -0.5912489671
  O         0.8698753174        5.7321786975       -0.9057330986
  H         0.7799482025        6.4156851801       -1.5564886832
  H        -0.0213255323        5.3734844994       -0.8192622061
  O         7.0508550217       -2.4599871919        5.8394562621
  H         7.7683387630       -2.8069749216        6.4304532984
  H         6.3399258310       -2.6287201946        6.4804218889
  O        -1.1830170100       -6.7289224487       -3.6219783637
  H        -1.5540064620       -6.9631554664       -4.5118897724
  H        -1.9153240307       -6.4515578244       -3.0708525425
  O        -4.7124640924       -1.6437542624       -3.1525144313
  H        -4.3482099701       -2.3417131293       -3.7911668061
  H        -4.0436081826       -0.9471163173       -3.3016291866
  O         3.0972244333        4.1373362853       -0.7021903297
  H         2.4305668851        4.8121910191       -0.9682236350
  H         3.8055136957        4.1895234150       -1.3874122748
  O        -3.4599249212       -4.0074688131       -4.9355800939
  H        -2.6640231548       -4.5508120999       -4.9514559618
  H        -4.2082513221       -4.6080869314       -5.0491426336
  O        -0.9239119906        5.3714159515        2.8749603132
  H        -1.4824279880        4.5542485829        2.9360027944
  H        -0.0449995500        4.9916800743        2.6674816144
  O        -0.7140046694       -4.3034733384       -4.9931988349
  H        -0.6483729026       -4.9369872394       -4.2434098542
  H        -0.7230294667       -3.3802706241       -4.7146374486
  O        -6.3885959218       -1.0705806898        1.7552603811
  H        -5.9787338345       -1.4142762660        0.9207052988
  H        -6.6747505222       -1.8687262863        2.2283315116
  O         3.0002692167        4.3529481881       -4.2833903427
  H         3.7444889998        4.4031675759       -3.6143409028
  H         2.1829753686        4.1107513927       -3.7680521293
  O         2.6655831076       -0.2133244818       -3.1191977021
  H         2.3003468913        0.3538137349       -2.3640588181
  H         3.5598751947        0.1207109111       -3.2030777068
  O        -2.0789096245        5.4566780614        6.2933228521
  H        -1.8369400806        4.5309791996        6.1525219408
  H        -2.7105921575        5.6804339937        5.5932606139
  O         0.5126450259       -3.8482508553        0.6276920916
  H         0.4846430910       -4.8222280883        0.4950799876
  H         0.0224828991       -3.4733406594       -0.1352175967
  O         6.8027136407        6.7656115500        7.5433208734
  H         6.0411958004        7.2431407123        7.3263800598
  H         6.7628316035        5.9174675384        6.9810460144
  O        -0.6781041504       -5.0333054014        4.8145340352
  H        -0.8060092829       -5.9646145713        4.5960576849
  H        -0.9991222855       -4.8767308060        5.7645028277
  O        -2.5513701305       -4.5555671231       -2.1303234914
  H        -3.1542463902       -4.4871331158       -1.3490604091
  H        -3.1356056705       -4.3797904500       -2.9473573394
