       6
 i =      925, time =      185.000, E =       -34.4449911087
  O         2.9252060340        4.6188963372        3.2369310228
  H         2.6390451504        3.7255137931        3.2630028135
  H         2.9825268007        4.9044698051        2.2977784595
  O         5.4171674269        4.4400613489        4.9589668992
  H         5.9790651156        3.6192154505        4.8677456784
  H         4.5692296439        4.2388209143        4.4719867409