 DBCSR| CPU Multiplication driver                                           XSMM
 DBCSR| Multrec recursion limit                                              512
 DBCSR| Multiplication stack size                                           1000
 DBCSR| Maximum elements for images                                    UNLIMITED
 DBCSR| Multiplicative factor virtual images                                   1
 DBCSR| Use multiplication densification                                       T
 DBCSR| Multiplication size stacks                                             3


  **** **** ******  **  PROGRAM STARTED AT               2019-02-14 01:19:21.496
 ***** ** ***  *** **   PROGRAM STARTED ON                                  otto
 **    ****   ******    PROGRAM STARTED BY                                   ole
 ***** **    ** ** **   PROGRAM PROCESS ID                                  6101
  **** **  *******  **  PROGRAM STARTED IN /home/ole/git/pao_ml_equivar/2H2O_MD/
                                           frame_0425

 CP2K| version string:                    CP2K version 7.0 (Development Version)
 CP2K| source code revision number:                                git:8bf305913
 CP2K| cp2kflags: libint fftw3 libxc xsmm libderiv_max_am1=5 libint_max_am=6    
 CP2K| is freely available from                            https://www.cp2k.org/
 CP2K| Program compiled at                           So Jan 13 00:02:37 CET 2019
 CP2K| Program compiled on                                                  otto
 CP2K| Program compiled for                                                local
 CP2K| Data directory path                               /home/ole/git/cp2k/data
 CP2K| Input file name                                            2H2O_pao44.inp

 GLOBAL| Force Environment number                                              1
 GLOBAL| Basis set file name                                        BASIS_MOLOPT
 GLOBAL| Potential file name                                      GTH_POTENTIALS
 GLOBAL| MM Potential file name                                     MM_POTENTIAL
 GLOBAL| Coordinate file name                                         coords.xyz
 GLOBAL| Method name                                                        CP2K
 GLOBAL| Project name                                                 2H2O_pao44
 GLOBAL| Preferred FFT library                                             FFTW3
 GLOBAL| Preferred diagonalization lib.                                       SL
 GLOBAL| Run type                                                         ENERGY
 GLOBAL| All-to-all communication in single precision                          F
 GLOBAL| FFTs using library dependent lengths                                  F
 GLOBAL| Global print level                                                  LOW
 GLOBAL| MPI I/O enabled                                                       T
 GLOBAL| Total number of message passing processes                             1
 GLOBAL| Number of threads for this process                                    1
 GLOBAL| This output is from process                                           0
 GLOBAL| CPU model name :  Intel(R) Core(TM) i5-3320M CPU @ 2.60GHz

 MEMORY| system memory details [Kb]
 MEMORY|                        rank 0           min           max       average
 MEMORY| MemTotal              7860772       7860772       7860772       7860772
 MEMORY| MemFree               2056696       2056696       2056696       2056696
 MEMORY| Buffers                282008        282008        282008        282008
 MEMORY| Cached                1993648       1993648       1993648       1993648
 MEMORY| Slab                   256800        256800        256800        256800
 MEMORY| SReclaimable           134432        134432        134432        134432
 MEMORY| MemLikelyFree         4466784       4466784       4466784       4466784


 GENERATE|  Preliminary Number of Bonds generated:                             0
 GENERATE|  Achieved consistency in connectivity generation.

 *******************************************************************************
 *******************************************************************************
 **                                                                           **
 **     #####                         ##              ##                      **
 **    ##   ##            ##          ##              ##                      **
 **   ##     ##                       ##            ######                    **
 **   ##     ##  ##   ##  ##   #####  ##  ##   ####   ##    #####    #####    **
 **   ##     ##  ##   ##  ##  ##      ## ##   ##      ##   ##   ##  ##   ##   **
 **   ##  ## ##  ##   ##  ##  ##      ####     ###    ##   ######   ######    **
 **    ##  ###   ##   ##  ##  ##      ## ##      ##   ##   ##       ##        **
 **     #######   #####   ##   #####  ##  ##  ####    ##    #####   ##        **
 **           ##                                                    ##        **
 **                                                                           **
 **                                                ... make the atoms dance   **
 **                                                                           **
 **            Copyright (C) by CP2K developers group (2000 - 2018)           **
 **                                                                           **
 *******************************************************************************


 TOTAL NUMBERS AND MAXIMUM NUMBERS

  Total number of            - Atomic kinds:                                   2
                             - Atoms:                                          6
                             - Shell sets:                                     6
                             - Shells:                                        22
                             - Primitive Cartesian functions:                 42
                             - Cartesian basis functions:                     48
                             - Spherical basis functions:                     46

  Maximum angular momentum of- Orbital basis functions:                        2
                             - Local part of the GTH pseudopotential:          2
                             - Non-local part of the GTH pseudopotential:      0

 ------------------------------ Linear scaling SCF -----------------------------
 eps_scf:                                       0.100E-07
 eps_filter:                                    0.100E-07
 mixing_fraction:                               0.450E+00
 max_scf:                                              25
 fixed chemical potential (mu)                          F
 has unit metric:                                       F
 Computing inv(S):                                      T
 Computing sqrt(S):                                     T
 Computing s preconditioner                             F
 sign sqrt order:                                       3
 Extrapolation order:                                   1
 Use single precision matrices                          F
 S preconditioner type                               NONE
 Polarized Atomic Orbitals (PAO)                        T
 Purification method                      Trace resetting 4th order
 Cluster type                                      ATOMIC
 Computing Chebyshev                                FALSE
 Using PAO                                              T
 -------------------------------------------------------------------------------

 
 PAO|                                  EPS_PAO                           0.5E-06
 PAO|                                  MIXING                            0.5E+00
 PAO|                                  MAX_PAO                              1000
 PAO|                                  MAX_CYCLES                           1000
 PAO|                                  PARAMETERIZATION                   DIRECT
 PAO|                                  PRECONDITION                            F
 PAO|                                  REGULARIZATION                    0.0E+00
 PAO|                                  EPS_PGF                           0.1E-09
 PAO|                                  PENALTY_DISTANCE                  0.1E+00
 PAO|                                  PENALTY_STRENGTH                  0.5E-02
 PAO|                                  LINPOT_PRECONDITION_DELTA         0.0E+00
 PAO|                                  LINPOT_INITGUESS_DELT             0.0E+00
 PAO|                                  LINPOT_REGULARIZATION_DELTA       0.0E+00
 PAO|                                  LINPOT_REGULARIZATION_STRENGTH    0.0E+00
 PAO|                                  OPTIMIZER                              CG
 PAO|                                  CG_INIT_STEPS                           2
 PAO|                                  CG_RESET_LIMIT                    0.1E+00
 PAO|                                  CHECK_UNITARY_TOL                -0.1E+01
 PAO|                                  CHECK_GRADIENT_TOL               -0.1E+01
 PAO|                                  NUM_GRADIENT_ORDER                      2
 PAO|                                  NUM_GRADIENT_EPS                  0.1E-07
 PAO|                                  PRINT%RESTART%WRITE_CYCLES            100
 PAO|                                  RESTART_FILE 
 PAO|                                  PREOPT_DM_FILE 2H2O_ref_LS_DM_SPIN_1_RESTART.dm
 PAO|                                  MACHINE_LEARNING%METHOD        GAUSSIAN_P
 PAO|                                  MACHINE_LEARNING%PRIOR               ZERO
 PAO|                                  MACHINE_LEARNING%DESCRIPTOR     POTENTIAL
 PAO|                                  MACHINE_LEARNING%TOLERANCE        0.1E-01
 PAO|                                  MACHINE_LEARNING%GP_NOISE_VAR     0.1E+00
 PAO|                                  MACHINE_LEARNING%GP_SCALE         0.5E-01
 

 Calculating atomic Fock matrix for atomic kind: O

 Electronic structure
    Total number of core electrons                                          2.00
    Total number of valence electrons                                       6.00
    Total number of electrons                                               8.00
    Multiplicity                                                   not specified
    S   [  2.00] 2.00
    P      4.00


 *******************************************************************************
                  Iteration          Convergence                     Energy [au]
 *******************************************************************************
                          1        0.708315                     -15.576645311500
                          2        0.608879                     -15.587933561584
                          3        0.102828E-01                 -15.656849565404
                          4        0.113889E-02                 -15.656866888140
                          5        0.434197E-03                 -15.656867072159
                          6        0.263771E-03                 -15.656867091904
                          7        0.478536E-06                 -15.656867103452

 Energy components [Hartree]           Total Energy ::          -15.656867103452
                                        Band Energy ::           -3.000198112285
                                     Kinetic Energy ::           11.759971203220
                                   Potential Energy ::          -27.416838306672
                                      Virial (-V/T) ::            2.331369510426
                                        Core Energy ::          -26.140716385623
                                          XC Energy ::           -3.154051012914
                                     Coulomb Energy ::           13.637900295084
                       Total Pseudopotential Energy ::          -37.935781716540
                       Local Pseudopotential Energy ::          -39.218907440693
                    Nonlocal Pseudopotential Energy ::            1.283125724153
                                        Confinement ::            0.350941276976

 Orbital energies  State     L     Occupation   Energy[a.u.]          Energy[eV]

                       1     0          2.000      -0.864471          -23.523463

                       1     1          4.000      -0.317814           -8.648154


 Total Electron Density at R=0:                                         0.000068

 Calculating atomic Fock matrix for atomic kind: H

 Electronic structure
    Total number of core electrons                                          0.00
    Total number of valence electrons                                       1.00
    Total number of electrons                                               1.00
    Multiplicity                                                   not specified
    S      1.00


 *******************************************************************************
                  Iteration          Convergence                     Energy [au]
 *******************************************************************************
                          1        0.437545E-02                  -0.424159432110
                          2        0.531356E-03                  -0.424178438213
                          3        0.259176E-06                  -0.424178722480

 Energy components [Hartree]           Total Energy ::           -0.424178722480
                                        Band Energy ::           -0.199015229016
                                     Kinetic Energy ::            0.464007633961
                                   Potential Energy ::           -0.888186356441
                                      Virial (-V/T) ::            1.914163240935
                                        Core Energy ::           -0.479160803564
                                          XC Energy ::           -0.244352904054
                                     Coulomb Energy ::            0.299334985138
                       Total Pseudopotential Energy ::           -0.962295316385
                       Local Pseudopotential Energy ::           -0.962295316385
                    Nonlocal Pseudopotential Energy ::            0.000000000000
                                        Confinement ::            0.191268788606

 Orbital energies  State     L     Occupation   Energy[a.u.]          Energy[eV]

                       1     0          1.000      -0.199015           -5.415480


 Total Electron Density at R=0:                                         0.242907
 PAO| Made initial guess for matrix_X with norm:   4.8989794855663558     

     Lanczos converged:  T threshold:   0.100E-02
     Est. extremal eigenvalues:    0.335E+01   0.121E+00
     Est. condition number :    0.277E+02
     NS sqrt iter    1 1.00000000   0.819E+00       0.001       60.795
     NS sqrt iter    2 1.00000000   0.433E+00       0.001      110.592
     NS sqrt iter    3 1.00000000   0.162E+00       0.002       53.106
     NS sqrt iter    4 1.00000000   0.176E-01       0.002       72.588
     NS sqrt iter    5 1.00000000   0.338E-04       0.001       60.085
     Final NS sqrt iter    5 1.00000000   0.177E-08

 PAO| Read restart DM 2H2O_ref_LS_DM_SPIN_1_RESTART.dm with checksum:    54.418661838238528     
 PAO| Quickstep energy from restart density:  -34.448186291188080     
 PAO| ======================= Iteration:         1 =============================

     Lanczos converged:  T threshold:   0.100E-02
     Est. extremal eigenvalues:    0.335E+01   0.121E+00
     Est. condition number :    0.277E+02
     NS sqrt iter    1 1.00000000   0.819E+00       0.001       45.825
     NS sqrt iter    2 1.00000000   0.433E+00       0.001      110.592
     NS sqrt iter    3 1.00000000   0.162E+00       0.001      110.592
     NS sqrt iter    4 1.00000000   0.176E-01       0.001      110.592
     NS sqrt iter    5 1.00000000   0.338E-04       0.001       84.992
     Final NS sqrt iter    5 1.00000000   0.177E-08

     Est. extremal eigenvalues     -0.90871     1.75204  converged:  T
     TRS4 it   1 1.00000000   0.854E+00       0.000       16.128   0.100E-07
     TRS4 it   2 1.00000000   0.665E+00       0.001       32.256   0.100E-07
     TRS4 it   3 1.00000000   0.489E+00       0.001       32.256   0.100E-07
     TRS4 it   4 1.00000000   0.308E+00       0.001       32.256   0.100E-07
     TRS4 it   5 1.00000000   0.154E+00       0.001       28.081   0.100E-07
     TRS4 it   6 1.00000000   0.484E-01       0.001       32.256   0.100E-07
     TRS4 it   7 1.00000000   0.675E-02       0.001       32.256   0.100E-07
     TRS4 it   8 1.00000000   0.183E-03       0.001       32.256   0.100E-07
     TRS4 it   9 1.00000000   0.147E-06       0.001       32.256   0.100E-07
     TRS4 it  10 1.00000000   0.971E-13       0.001       32.256   0.100E-07
     Final TRS4 iteration   10 1.00000000   0.971E-13
     Chemical potential (mu):      -0.07022
 
 PAO| energy:  -7.5218779716160231      penalty:   6.2862353384799379E-033
 PAO|CG| warming up with steepest descent
 PAO|CG| beta:    0.0000000000000000     
 PAO| norm of gradient:  0.76939410800415475     
 PAO|LS| adapt:  T F F
 PAO|LS| adapt: scan_steps:    0.0000000000000000        0.0000000000000000        0.0000000000000000     
 PAO|LS| adapt: energies:   -7.5218779716160231        0.0000000000000000        0.0000000000000000     
 PAO| ======================= Iteration:         2 =============================

     Lanczos converged:  T threshold:   0.100E-02
     Est. extremal eigenvalues:    0.327E+01   0.135E+00
     Est. condition number :    0.242E+02
     NS sqrt iter    1 1.00000000   0.803E+00       0.001       61.383
     NS sqrt iter    2 1.00000000   0.417E+00       0.001      110.592
     NS sqrt iter    3 1.00000000   0.144E+00       0.001      100.720
     NS sqrt iter    4 1.00000000   0.119E-01       0.001      109.300
     NS sqrt iter    5 1.00000000   0.992E-05       0.001       82.944
     Final NS sqrt iter    5 1.00000000   0.153E-09

     Est. extremal eigenvalues     -0.91210     1.69675  converged:  T
     TRS4 it   1 1.00000000   0.847E+00       0.000       16.128   0.100E-07
     TRS4 it   2 1.00000000   0.645E+00       0.001       32.256   0.100E-07
     TRS4 it   3 1.00000000   0.470E+00       0.001       32.256   0.100E-07
     TRS4 it   4 1.00000000   0.285E+00       0.001       32.256   0.100E-07
     TRS4 it   5 1.00000000   0.133E+00       0.001       32.256   0.100E-07
     TRS4 it   6 1.00000000   0.364E-01       0.001       32.256   0.100E-07
     TRS4 it   7 1.00000000   0.390E-02       0.001       32.256   0.100E-07
     TRS4 it   8 1.00000000   0.613E-04       0.001       32.256   0.100E-07
     TRS4 it   9 1.00000000   0.166E-07       0.001       32.256   0.100E-07
     Final TRS4 iteration    9 1.00000000   0.166E-07
     Chemical potential (mu):      -0.05900
 
 PAO| energy:  -7.5754037176560889      penalty:   2.1194331746263327E-008
 PAO|LS| adapt:  T T F
 PAO|LS| adapt: scan_steps:    0.0000000000000000       0.10000000000000001        0.0000000000000000     
 PAO|LS| adapt: energies:   -7.5218779716160231       -7.5754037176560889        0.0000000000000000     
 PAO| ======================= Iteration:         3 =============================

     Lanczos converged:  T threshold:   0.100E-02
     Est. extremal eigenvalues:    0.318E+01   0.149E+00
     Est. condition number :    0.213E+02
     NS sqrt iter    1 1.00000000   0.787E+00       0.002       39.923
     NS sqrt iter    2 1.00000000   0.401E+00       0.002       65.442
     NS sqrt iter    3 1.00000000   0.128E+00       0.002       65.665
     NS sqrt iter    4 1.00000000   0.807E-02       0.002       66.558
     NS sqrt iter    5 1.00000000   0.290E-05       0.002       51.562
     Final NS sqrt iter    5 1.00000000   0.130E-10

     Est. extremal eigenvalues     -0.91527     1.65369  converged:  T
     TRS4 it   1 1.00000000   0.841E+00       0.000       16.128   0.100E-07
     TRS4 it   2 1.00000000   0.629E+00       0.001       32.256   0.100E-07
     TRS4 it   3 1.00000000   0.451E+00       0.001       32.256   0.100E-07
     TRS4 it   4 1.00000000   0.263E+00       0.001       32.256   0.100E-07
     TRS4 it   5 1.00000000   0.113E+00       0.001       32.256   0.100E-07
     TRS4 it   6 1.00000000   0.264E-01       0.001       32.256   0.100E-07
     TRS4 it   7 1.00000000   0.207E-02       0.001       32.256   0.100E-07
     TRS4 it   8 1.00000000   0.173E-04       0.001       32.256   0.100E-07
     TRS4 it   9 1.00000000   0.133E-08       0.001       32.256   0.100E-07
     Final TRS4 iteration    9 1.00000000   0.133E-08
     Chemical potential (mu):      -0.04687
 
 PAO| energy:  -7.6169644744730949      penalty:   3.3910930363662571E-007
 PAO|LS| adapt:  T T F
 PAO|LS| adapt: scan_steps:    0.0000000000000000       0.20000000000000001        0.0000000000000000     
 PAO|LS| adapt: energies:   -7.5218779716160231       -7.6169644744730949        0.0000000000000000     
 PAO| ======================= Iteration:         4 =============================

     Lanczos converged:  T threshold:   0.100E-02
     Est. extremal eigenvalues:    0.299E+01   0.171E+00
     Est. condition number :    0.174E+02
     NS sqrt iter    1 1.00000000   0.751E+00       0.001       64.512
     NS sqrt iter    2 1.00000000   0.368E+00       0.001      110.592
     NS sqrt iter    3 1.00000000   0.994E-01       0.001      110.592
     NS sqrt iter    4 1.00000000   0.377E-02       0.001      110.592
     NS sqrt iter    5 1.00000000   0.308E-06       0.001       82.176
     Final NS sqrt iter    5 1.00000000   0.227E-09

     Est. extremal eigenvalues     -0.92024     1.59694  converged:  T
     TRS4 it   1 1.00000000   0.836E+00       0.000       16.128   0.100E-07
     TRS4 it   2 1.00000000   0.602E+00       0.001       32.256   0.100E-07
     TRS4 it   3 1.00000000   0.417E+00       0.001       32.256   0.100E-07
     TRS4 it   4 1.00000000   0.222E+00       0.001       32.256   0.100E-07
     TRS4 it   5 1.00000000   0.798E-01       0.001       32.256   0.100E-07
     TRS4 it   6 1.00000000   0.130E-01       0.001       32.256   0.100E-07
     TRS4 it   7 1.00000000   0.478E-03       0.001       32.256   0.100E-07
     TRS4 it   8 1.00000000   0.911E-06       0.001       32.256   0.100E-07
     TRS4 it   9 1.00000000   0.369E-11       0.001       32.256   0.100E-07
     Final TRS4 iteration    9 1.00000000   0.369E-11
     Chemical potential (mu):      -0.02009
 
 PAO| energy:  -7.6626851426243769      penalty:   5.4257488237574145E-006
 PAO|LS| Need extra step
 PAO|LS| adapt:  T T F
 PAO|LS| adapt: scan_steps:    0.0000000000000000       0.40000000000000002        0.0000000000000000     
 PAO|LS| adapt: energies:   -7.5218779716160231       -7.6626851426243769        0.0000000000000000     
 PAO| ======================= Iteration:         5 =============================

     Lanczos converged:  T threshold:   0.100E-02
     Est. extremal eigenvalues:    0.264E+01   0.199E+00
     Est. condition number :    0.133E+02
     NS sqrt iter    1 1.00000000   0.686E+00       0.001       64.512
     NS sqrt iter    2 1.00000000   0.306E+00       0.001       99.978
     NS sqrt iter    3 1.00000000   0.602E-01       0.001       89.695
     NS sqrt iter    4 1.00000000   0.968E-03       0.001      110.592
     NS sqrt iter    5 1.00000000   0.410E-08       0.001       36.864
     Final NS sqrt iter    5 1.00000000   0.251E-08

     Est. extremal eigenvalues     -0.92166     1.55164  converged:  T
     TRS4 it   1 1.00000000   0.837E+00       0.000       16.128   0.100E-07
     TRS4 it   2 1.00000000   0.571E+00       0.001       32.256   0.100E-07
     TRS4 it   3 1.00000000   0.368E+00       0.001       32.256   0.100E-07
     TRS4 it   4 1.00000000   0.165E+00       0.001       32.256   0.100E-07
     TRS4 it   5 1.00000000   0.414E-01       0.001       32.256   0.100E-07
     TRS4 it   6 1.00000000   0.320E-02       0.001       32.256   0.100E-07
     TRS4 it   7 1.00000000   0.250E-04       0.001       32.256   0.100E-07
     TRS4 it   8 1.00000000   0.200E-08       0.001       32.256   0.100E-07
     Final TRS4 iteration    8 1.00000000   0.200E-08
     Chemical potential (mu):       0.02729
 
 PAO| energy:  -7.6107184808861419      penalty:   8.6811980904688102E-005
 PAO|LS| Need extra step
 PAO|LS| adapt:  T T T
 PAO|LS| adapt: scan_steps:    0.0000000000000000       0.40000000000000002       0.80000000000000004     
 PAO|LS| adapt: energies:   -7.5218779716160231       -7.6626851426243769       -7.6107184808861419     
 PAO|LS| adapt: suggested step_size:   0.49217071425550196     
 PAO|LS| adapt: predicted energy  -7.6678029508707821     
 PAO| ======================= Iteration:         6 =============================

     Lanczos converged:  T threshold:   0.100E-02
     Est. extremal eigenvalues:    0.290E+01   0.179E+00
     Est. condition number :    0.162E+02
     NS sqrt iter    1 1.00000000   0.735E+00       0.001       64.318
     NS sqrt iter    2 1.00000000   0.352E+00       0.001      110.592
     NS sqrt iter    3 1.00000000   0.883E-01       0.001      106.906
     NS sqrt iter    4 1.00000000   0.271E-02       0.001      102.278
     NS sqrt iter    5 1.00000000   0.124E-06       0.001       55.079
     Final NS sqrt iter    5 1.00000000   0.966E-09

     Est. extremal eigenvalues     -0.92167     1.58059  converged:  T
     TRS4 it   1 1.00000000   0.835E+00       0.000       16.128   0.100E-07
     TRS4 it   2 1.00000000   0.593E+00       0.001       32.256   0.100E-07
     TRS4 it   3 1.00000000   0.404E+00       0.001       32.256   0.100E-07
     TRS4 it   4 1.00000000   0.206E+00       0.001       32.256   0.100E-07
     TRS4 it   5 1.00000000   0.679E-01       0.001       32.256   0.100E-07
     TRS4 it   6 1.00000000   0.920E-02       0.001       32.256   0.100E-07
     TRS4 it   7 1.00000000   0.231E-03       0.001       32.256   0.100E-07
     TRS4 it   8 1.00000000   0.206E-06       0.001       32.256   0.100E-07
     TRS4 it   9 1.00000000   0.188E-12       0.001       32.256   0.100E-07
     Final TRS4 iteration    9 1.00000000   0.188E-12
     Chemical potential (mu):      -0.00701
 
 PAO| energy:  -7.6670919736493452      penalty:   1.2436059520381426E-005
 PAO|CG| warming up with steepest descent
 PAO|CG| beta:    0.0000000000000000     
 PAO| norm of gradient:  0.40143837064210525     
 PAO| energy improvement: -0.14521400203332213     
 PAO| step      6                   -7.667091974  0.251E-01  0.492E+00     0.095
 PAO|LS| adapt:  T F F
 PAO|LS| adapt: scan_steps:    0.0000000000000000        0.0000000000000000        0.0000000000000000     
 PAO|LS| adapt: energies:   -7.6670919736493452        0.0000000000000000        0.0000000000000000     
 PAO| ======================= Iteration:         7 =============================

     Lanczos converged:  T threshold:   0.100E-02
     Est. extremal eigenvalues:    0.282E+01   0.193E+00
     Est. condition number :    0.146E+02
     NS sqrt iter    1 1.00000000   0.717E+00       0.001       49.332
     NS sqrt iter    2 1.00000000   0.332E+00       0.001      110.592
     NS sqrt iter    3 1.00000000   0.736E-01       0.001      110.592
     NS sqrt iter    4 1.00000000   0.161E-02       0.001      110.592
     NS sqrt iter    5 1.00000000   0.288E-07       0.001       62.976
     Final NS sqrt iter    5 1.00000000   0.595E-09

     Est. extremal eigenvalues     -0.92331     1.57772  converged:  T
     TRS4 it   1 1.00000000   0.837E+00       0.000       16.128   0.100E-07
     TRS4 it   2 1.00000000   0.594E+00       0.001       32.256   0.100E-07
     TRS4 it   3 1.00000000   0.406E+00       0.001       32.256   0.100E-07
     TRS4 it   4 1.00000000   0.209E+00       0.001       32.256   0.100E-07
     TRS4 it   5 1.00000000   0.691E-01       0.001       32.256   0.100E-07
     TRS4 it   6 1.00000000   0.923E-02       0.001       32.256   0.100E-07
     TRS4 it   7 1.00000000   0.219E-03       0.001       32.256   0.100E-07
     TRS4 it   8 1.00000000   0.177E-06       0.001       32.256   0.100E-07
     TRS4 it   9 1.00000000   0.138E-12       0.001       32.256   0.100E-07
     Final TRS4 iteration    9 1.00000000   0.138E-12
     Chemical potential (mu):      -0.00476
 
 PAO| energy:  -7.6617192957832030      penalty:   1.8282002947898966E-005
 PAO|LS| adapt:  T F T
 PAO|LS| adapt: scan_steps:    0.0000000000000000        0.0000000000000000       0.49217071425550196     
 PAO|LS| adapt: energies:   -7.6670919736493452        0.0000000000000000       -7.6617192957832030     
 PAO| ======================= Iteration:         8 =============================

     Lanczos converged:  T threshold:   0.100E-02
     Est. extremal eigenvalues:    0.286E+01   0.186E+00
     Est. condition number :    0.154E+02
     NS sqrt iter    1 1.00000000   0.726E+00       0.001       64.512
     NS sqrt iter    2 1.00000000   0.342E+00       0.001      109.879
     NS sqrt iter    3 1.00000000   0.808E-01       0.001      110.592
     NS sqrt iter    4 1.00000000   0.210E-02       0.001      110.592
     NS sqrt iter    5 1.00000000   0.608E-07       0.001       71.808
     Final NS sqrt iter    5 1.00000000   0.438E-09

     Est. extremal eigenvalues     -0.92340     1.57860  converged:  T
     TRS4 it   1 1.00000000   0.836E+00       0.001       16.128   0.100E-07
     TRS4 it   2 1.00000000   0.593E+00       0.001       32.256   0.100E-07
     TRS4 it   3 1.00000000   0.404E+00       0.001       32.256   0.100E-07
     TRS4 it   4 1.00000000   0.207E+00       0.001       32.256   0.100E-07
     TRS4 it   5 1.00000000   0.684E-01       0.001       32.256   0.100E-07
     TRS4 it   6 1.00000000   0.929E-02       0.001       32.256   0.100E-07
     TRS4 it   7 1.00000000   0.232E-03       0.001       32.256   0.100E-07
     TRS4 it   8 1.00000000   0.204E-06       0.001       32.256   0.100E-07
     TRS4 it   9 1.00000000   0.184E-12       0.001       32.256   0.100E-07
     Final TRS4 iteration    9 1.00000000   0.184E-12
     Chemical potential (mu):      -0.00629
 
 PAO| energy:  -7.6853619961256499      penalty:   1.3386602395251039E-005
 PAO|LS| adapt:  T T T
 PAO|LS| adapt: scan_steps:    0.0000000000000000       0.24608535712775098       0.49217071425550196     
 PAO|LS| adapt: energies:   -7.6670919736493452       -7.6853619961256499       -7.6617192957832030     
 PAO|LS| adapt: suggested step_size:   0.23031285104243338     
 PAO|LS| adapt: predicted energy  -7.6854480847447846     
 PAO| ======================= Iteration:         9 =============================

     Lanczos converged:  T threshold:   0.100E-02
     Est. extremal eigenvalues:    0.286E+01   0.186E+00
     Est. condition number :    0.154E+02
     NS sqrt iter    1 1.00000000   0.727E+00       0.002       35.444
     NS sqrt iter    2 1.00000000   0.343E+00       0.002       47.864
     NS sqrt iter    3 1.00000000   0.812E-01       0.001      108.656
     NS sqrt iter    4 1.00000000   0.213E-02       0.001      110.592
     NS sqrt iter    5 1.00000000   0.637E-07       0.001       72.320
     Final NS sqrt iter    5 1.00000000   0.497E-09

     Est. extremal eigenvalues     -0.92335     1.57869  converged:  T
     TRS4 it   1 1.00000000   0.835E+00       0.000       16.128   0.100E-07
     TRS4 it   2 1.00000000   0.593E+00       0.001       32.256   0.100E-07
     TRS4 it   3 1.00000000   0.404E+00       0.001       32.256   0.100E-07
     TRS4 it   4 1.00000000   0.207E+00       0.001       32.256   0.100E-07
     TRS4 it   5 1.00000000   0.684E-01       0.001       32.256   0.100E-07
     TRS4 it   6 1.00000000   0.929E-02       0.001       32.256   0.100E-07
     TRS4 it   7 1.00000000   0.232E-03       0.001       32.256   0.100E-07
     TRS4 it   8 1.00000000   0.205E-06       0.001       32.256   0.100E-07
     TRS4 it   9 1.00000000   0.188E-12       0.001       32.256   0.100E-07
     Final TRS4 iteration    9 1.00000000   0.188E-12
     Chemical potential (mu):      -0.00636
 
 PAO| energy:  -7.6854692787947751      penalty:   1.3239905311718909E-005
 PAO|CG| trace_G_new    3.5111781039557172E-002
 PAO|CG| trace_G_prev   0.16115276542378823     
 PAO|CG| trace_G_mix   -1.3016901858779717E-003
 PAO|CG| trace_D   0.16115276542378823     
 PAO|CG| trace_D_Gnew   1.3016901858779717E-003
 PAO|CG| beta:   0.22595622935590062     
 PAO| norm of gradient:  0.18738137858271073     
 PAO| energy improvement:  -1.8377305145429901E-002
 PAO| step      9                   -7.685469279  0.117E-01  0.230E+00     0.056
 PAO|LS| adapt:  T F F
 PAO|LS| adapt: scan_steps:    0.0000000000000000        0.0000000000000000        0.0000000000000000     
 PAO|LS| adapt: energies:   -7.6854692787947751        0.0000000000000000        0.0000000000000000     
 PAO| ======================= Iteration:        10 =============================

     Lanczos converged:  T threshold:   0.100E-02
     Est. extremal eigenvalues:    0.282E+01   0.192E+00
     Est. condition number :    0.147E+02
     NS sqrt iter    1 1.00000000   0.719E+00       0.001       58.522
     NS sqrt iter    2 1.00000000   0.335E+00       0.001       91.425
     NS sqrt iter    3 1.00000000   0.758E-01       0.001      110.592
     NS sqrt iter    4 1.00000000   0.174E-02       0.001      110.592
     NS sqrt iter    5 1.00000000   0.345E-07       0.001       64.512
     Final NS sqrt iter    5 1.00000000   0.666E-09

     Est. extremal eigenvalues     -0.92422     1.57967  converged:  T
     TRS4 it   1 1.00000000   0.836E+00       0.001       16.128   0.100E-07
     TRS4 it   2 1.00000000   0.593E+00       0.001       31.911   0.100E-07
     TRS4 it   3 1.00000000   0.403E+00       0.002       19.161   0.100E-07
     TRS4 it   4 1.00000000   0.205E+00       0.001       22.797   0.100E-07
     TRS4 it   5 1.00000000   0.669E-01       0.001       26.075   0.100E-07
     TRS4 it   6 1.00000000   0.882E-02       0.001       31.155   0.100E-07
     TRS4 it   7 1.00000000   0.206E-03       0.001       32.256   0.100E-07
     TRS4 it   8 1.00000000   0.158E-06       0.001       32.256   0.100E-07
     TRS4 it   9 1.00000000   0.110E-12       0.001       32.256   0.100E-07
     Final TRS4 iteration    9 1.00000000   0.110E-12
     Chemical potential (mu):      -0.00335
 
 PAO| energy:  -7.6901236273722411      penalty:   1.3714782170596642E-005
 PAO|LS| adapt:  T T F
 PAO|LS| adapt: scan_steps:    0.0000000000000000       0.23031285104243338        0.0000000000000000     
 PAO|LS| adapt: energies:   -7.6854692787947751       -7.6901236273722411        0.0000000000000000     
 PAO| ======================= Iteration:        11 =============================

     Lanczos converged:  T threshold:   0.100E-02
     Est. extremal eigenvalues:    0.279E+01   0.198E+00
     Est. condition number :    0.141E+02
     NS sqrt iter    1 1.00000000   0.710E+00       0.001       64.512
     NS sqrt iter    2 1.00000000   0.326E+00       0.001      110.592
     NS sqrt iter    3 1.00000000   0.706E-01       0.001      110.592
     NS sqrt iter    4 1.00000000   0.142E-02       0.001       88.974
     NS sqrt iter    5 1.00000000   0.176E-07       0.001       48.413
     Final NS sqrt iter    5 1.00000000   0.589E-08

     Est. extremal eigenvalues     -0.92406     1.58245  converged:  T
     TRS4 it   1 1.00000000   0.837E+00       0.000       16.128   0.100E-07
     TRS4 it   2 1.00000000   0.593E+00       0.001       32.256   0.100E-07
     TRS4 it   3 1.00000000   0.403E+00       0.001       32.256   0.100E-07
     TRS4 it   4 1.00000000   0.204E+00       0.001       32.256   0.100E-07
     TRS4 it   5 1.00000000   0.656E-01       0.001       32.256   0.100E-07
     TRS4 it   6 1.00000000   0.840E-02       0.001       32.256   0.100E-07
     TRS4 it   7 1.00000000   0.183E-03       0.001       32.256   0.100E-07
     TRS4 it   8 1.00000000   0.122E-06       0.001       32.256   0.100E-07
     TRS4 it   9 1.00000000   0.653E-13       0.001       32.256   0.100E-07
     Final TRS4 iteration    9 1.00000000   0.653E-13
     Chemical potential (mu):      -0.00023
 
 PAO| energy:  -7.6882978394317467      penalty:   1.4803728449498600E-005
 PAO|LS| adapt:  T T T
 PAO|LS| adapt: scan_steps:    0.0000000000000000       0.23031285104243338       0.46062570208486675     
 PAO|LS| adapt: energies:   -7.6854692787947751       -7.6901236273722411       -7.6882978394317467     
 PAO|LS| adapt: suggested step_size:   0.28057829397266770     
 PAO|LS| adapt: predicted energy  -7.6902779596778732     
 PAO| ======================= Iteration:        12 =============================

     Lanczos converged:  T threshold:   0.100E-02
     Est. extremal eigenvalues:    0.282E+01   0.193E+00
     Est. condition number :    0.146E+02
     NS sqrt iter    1 1.00000000   0.717E+00       0.001       63.541
     NS sqrt iter    2 1.00000000   0.333E+00       0.001      110.592
     NS sqrt iter    3 1.00000000   0.747E-01       0.001      110.592
     NS sqrt iter    4 1.00000000   0.167E-02       0.001      110.592
     NS sqrt iter    5 1.00000000   0.301E-07       0.001       59.859
     Final NS sqrt iter    5 1.00000000   0.614E-09

     Est. extremal eigenvalues     -0.92427     1.58013  converged:  T
     TRS4 it   1 1.00000000   0.836E+00       0.000       16.128   0.100E-07
     TRS4 it   2 1.00000000   0.593E+00       0.001       32.256   0.100E-07
     TRS4 it   3 1.00000000   0.403E+00       0.001       32.256   0.100E-07
     TRS4 it   4 1.00000000   0.205E+00       0.001       32.256   0.100E-07
     TRS4 it   5 1.00000000   0.666E-01       0.001       32.256   0.100E-07
     TRS4 it   6 1.00000000   0.872E-02       0.001       32.256   0.100E-07
     TRS4 it   7 1.00000000   0.200E-03       0.001       32.256   0.100E-07
     TRS4 it   8 1.00000000   0.149E-06       0.001       32.256   0.100E-07
     TRS4 it   9 1.00000000   0.985E-13       0.001       32.256   0.100E-07
     Final TRS4 iteration    9 1.00000000   0.985E-13
     Chemical potential (mu):      -0.00268
 
 PAO| energy:  -7.6902647021980490      penalty:   1.3894343810381089E-005
 PAO|CG| trace_G_new    1.1187022253449214E-002
 PAO|CG| trace_G_prev    3.5111781039557172E-002
 PAO|CG| trace_G_mix   -4.1110525270332218E-004
 PAO|CG| trace_D    4.2751381683034946E-002
 PAO|CG| trace_D_Gnew   2.3832243577521042E-004
 PAO|CG| beta:   0.33032011372724179     
 PAO| norm of gradient:  0.10576872058150848     
 PAO| energy improvement:  -4.7954234032738796E-003
 PAO| step     12                   -7.690264702  0.661E-02  0.281E+00     0.058
 PAO|LS| adapt:  T F F
 PAO|LS| adapt: scan_steps:    0.0000000000000000        0.0000000000000000        0.0000000000000000     
 PAO|LS| adapt: energies:   -7.6902647021980490        0.0000000000000000        0.0000000000000000     
 PAO| ======================= Iteration:        13 =============================

     Lanczos converged:  T threshold:   0.100E-02
     Est. extremal eigenvalues:    0.278E+01   0.198E+00
     Est. condition number :    0.141E+02
     NS sqrt iter    1 1.00000000   0.710E+00       0.002       32.150
     NS sqrt iter    2 1.00000000   0.326E+00       0.001       80.800
     NS sqrt iter    3 1.00000000   0.706E-01       0.001      110.592
     NS sqrt iter    4 1.00000000   0.141E-02       0.001      110.592
     NS sqrt iter    5 1.00000000   0.174E-07       0.001       51.840
     Final NS sqrt iter    5 1.00000000   0.587E-08

     Est. extremal eigenvalues     -0.92478     1.57528  converged:  T
     TRS4 it   1 1.00000000   0.836E+00       0.000       16.128   0.100E-07
     TRS4 it   2 1.00000000   0.590E+00       0.001       32.256   0.100E-07
     TRS4 it   3 1.00000000   0.399E+00       0.001       32.256   0.100E-07
     TRS4 it   4 1.00000000   0.200E+00       0.001       32.256   0.100E-07
     TRS4 it   5 1.00000000   0.632E-01       0.001       32.256   0.100E-07
     TRS4 it   6 1.00000000   0.779E-02       0.001       32.256   0.100E-07
     TRS4 it   7 1.00000000   0.158E-03       0.001       32.256   0.100E-07
     TRS4 it   8 1.00000000   0.911E-07       0.001       32.256   0.100E-07
     TRS4 it   9 1.00000000   0.367E-13       0.001       32.256   0.100E-07
     Final TRS4 iteration    9 1.00000000   0.367E-13
     Chemical potential (mu):       0.00151
 
 PAO| energy:  -7.6922205034409545      penalty:   1.4115262285182027E-005
 PAO|LS| adapt:  T T F
 PAO|LS| adapt: scan_steps:    0.0000000000000000       0.28057829397266770        0.0000000000000000     
 PAO|LS| adapt: energies:   -7.6902647021980490       -7.6922205034409545        0.0000000000000000     
 PAO| ======================= Iteration:        14 =============================

     Lanczos converged:  T threshold:   0.100E-02
     Est. extremal eigenvalues:    0.275E+01   0.202E+00
     Est. condition number :    0.136E+02
     NS sqrt iter    1 1.00000000   0.703E+00       0.001       61.144
     NS sqrt iter    2 1.00000000   0.319E+00       0.001      110.592
     NS sqrt iter    3 1.00000000   0.667E-01       0.001      110.592
     NS sqrt iter    4 1.00000000   0.119E-02       0.001      110.592
     NS sqrt iter    5 1.00000000   0.878E-08       0.001       41.216
     Final NS sqrt iter    5 1.00000000   0.549E-08

     Est. extremal eigenvalues     -0.92483     1.57084  converged:  T
     TRS4 it   1 1.00000000   0.836E+00       0.000       16.128   0.100E-07
     TRS4 it   2 1.00000000   0.588E+00       0.001       32.256   0.100E-07
     TRS4 it   3 1.00000000   0.395E+00       0.001       32.256   0.100E-07
     TRS4 it   4 1.00000000   0.195E+00       0.001       32.256   0.100E-07
     TRS4 it   5 1.00000000   0.599E-01       0.001       32.256   0.100E-07
     TRS4 it   6 1.00000000   0.697E-02       0.001       32.256   0.100E-07
     TRS4 it   7 1.00000000   0.125E-03       0.001       32.256   0.100E-07
     TRS4 it   8 1.00000000   0.559E-07       0.001       32.256   0.100E-07
     Final TRS4 iteration    8 1.00000000   0.559E-07
     Chemical potential (mu):       0.00404
 
 PAO| energy:  -7.6918935934714705      penalty:   1.4726814636949744E-005
 PAO|LS| adapt:  T T T
 PAO|LS| adapt: scan_steps:    0.0000000000000000       0.28057829397266770       0.56115658794533541     
 PAO|LS| adapt: energies:   -7.6902647021980490       -7.6922205034409545       -7.6918935934714705     
 PAO|LS| adapt: suggested step_size:   0.38068546742566495     
 PAO|LS| adapt: predicted energy  -7.6923657959535490     
 PAO| ======================= Iteration:        15 =============================

     Lanczos converged:  T threshold:   0.100E-02
     Est. extremal eigenvalues:    0.277E+01   0.199E+00
     Est. condition number :    0.139E+02
     NS sqrt iter    1 1.00000000   0.707E+00       0.001       64.512
     NS sqrt iter    2 1.00000000   0.323E+00       0.001       89.036
     NS sqrt iter    3 1.00000000   0.692E-01       0.002       52.610
     NS sqrt iter    4 1.00000000   0.133E-02       0.002       49.125
     NS sqrt iter    5 1.00000000   0.141E-07       0.001       47.872
     Final NS sqrt iter    5 1.00000000   0.613E-08

     Est. extremal eigenvalues     -0.92485     1.57365  converged:  T
     TRS4 it   1 1.00000000   0.836E+00       0.000       16.128   0.100E-07
     TRS4 it   2 1.00000000   0.589E+00       0.001       32.256   0.100E-07
     TRS4 it   3 1.00000000   0.397E+00       0.001       32.256   0.100E-07
     TRS4 it   4 1.00000000   0.198E+00       0.001       32.256   0.100E-07
     TRS4 it   5 1.00000000   0.620E-01       0.001       32.256   0.100E-07
     TRS4 it   6 1.00000000   0.749E-02       0.001       32.256   0.100E-07
     TRS4 it   7 1.00000000   0.145E-03       0.001       32.256   0.100E-07
     TRS4 it   8 1.00000000   0.765E-07       0.001       32.256   0.100E-07
     Final TRS4 iteration    8 1.00000000   0.765E-07
     Chemical potential (mu):       0.00163
 
 PAO| energy:  -7.6923626350926968      penalty:   1.4285791736875843E-005
 PAO|CG| trace_G_new    2.2379994603568703E-003
 PAO|CG| trace_G_prev    1.1187022253449214E-002
 PAO|CG| trace_G_mix    9.0567547035326354E-005
 PAO|CG| trace_D    1.5694239012136686E-002
 PAO|CG| trace_D_Gnew   2.1622069553930036E-005
 PAO|CG| beta:   0.19195741857574669     
 PAO| norm of gradient:   4.7307498986491246E-002
 PAO| energy improvement:  -2.0979328946477693E-003
 PAO| step     15                   -7.692362635  0.296E-02  0.381E+00     0.055
 PAO|LS| adapt:  T F F
 PAO|LS| adapt: scan_steps:    0.0000000000000000        0.0000000000000000        0.0000000000000000     
 PAO|LS| adapt: energies:   -7.6923626350926968        0.0000000000000000        0.0000000000000000     
 PAO| ======================= Iteration:        16 =============================

     Lanczos converged:  T threshold:   0.100E-02
     Est. extremal eigenvalues:    0.276E+01   0.200E+00
     Est. condition number :    0.138E+02
     NS sqrt iter    1 1.00000000   0.705E+00       0.001       64.512
     NS sqrt iter    2 1.00000000   0.322E+00       0.001      110.592
     NS sqrt iter    3 1.00000000   0.686E-01       0.001      107.295
     NS sqrt iter    4 1.00000000   0.129E-02       0.001      110.592
     NS sqrt iter    5 1.00000000   0.126E-07       0.001       46.263
     Final NS sqrt iter    5 1.00000000   0.567E-08

     Est. extremal eigenvalues     -0.92488     1.57286  converged:  T
     TRS4 it   1 1.00000000   0.836E+00       0.000       16.128   0.100E-07
     TRS4 it   2 1.00000000   0.588E+00       0.001       32.256   0.100E-07
     TRS4 it   3 1.00000000   0.396E+00       0.001       32.256   0.100E-07
     TRS4 it   4 1.00000000   0.196E+00       0.001       32.256   0.100E-07
     TRS4 it   5 1.00000000   0.608E-01       0.001       32.256   0.100E-07
     TRS4 it   6 1.00000000   0.722E-02       0.001       32.256   0.100E-07
     TRS4 it   7 1.00000000   0.136E-03       0.001       32.256   0.100E-07
     TRS4 it   8 1.00000000   0.677E-07       0.001       32.256   0.100E-07
     Final TRS4 iteration    8 1.00000000   0.677E-07
     Chemical potential (mu):       0.00255
 
 PAO| energy:  -7.6924616523312785      penalty:   1.4034213060205243E-005
 PAO|LS| adapt:  T T F
 PAO|LS| adapt: scan_steps:    0.0000000000000000       0.38068546742566495        0.0000000000000000     
 PAO|LS| adapt: energies:   -7.6923626350926968       -7.6924616523312785        0.0000000000000000     
 PAO| ======================= Iteration:        17 =============================

     Lanczos converged:  T threshold:   0.100E-02
     Est. extremal eigenvalues:    0.275E+01   0.201E+00
     Est. condition number :    0.137E+02
     NS sqrt iter    1 1.00000000   0.703E+00       0.001       64.384
     NS sqrt iter    2 1.00000000   0.321E+00       0.001      110.592
     NS sqrt iter    3 1.00000000   0.679E-01       0.001      110.592
     NS sqrt iter    4 1.00000000   0.125E-02       0.001      110.592
     NS sqrt iter    5 1.00000000   0.106E-07       0.001       44.288
     Final NS sqrt iter    5 1.00000000   0.572E-08

     Est. extremal eigenvalues     -0.92481     1.57215  converged:  T
     TRS4 it   1 1.00000000   0.836E+00       0.000       16.128   0.100E-07
     TRS4 it   2 1.00000000   0.588E+00       0.001       32.256   0.100E-07
     TRS4 it   3 1.00000000   0.394E+00       0.001       32.256   0.100E-07
     TRS4 it   4 1.00000000   0.195E+00       0.001       32.256   0.100E-07
     TRS4 it   5 1.00000000   0.597E-01       0.001       32.256   0.100E-07
     TRS4 it   6 1.00000000   0.697E-02       0.001       32.256   0.100E-07
     TRS4 it   7 1.00000000   0.127E-03       0.001       32.256   0.100E-07
     TRS4 it   8 1.00000000   0.599E-07       0.001       32.256   0.100E-07
     Final TRS4 iteration    8 1.00000000   0.599E-07
     Chemical potential (mu):       0.00345
 
 PAO| energy:  -7.6910510541228652      penalty:   1.3882302097715130E-005
 PAO|LS| adapt:  T T T
 PAO|LS| adapt: scan_steps:    0.0000000000000000       0.38068546742566495       0.76137093485132989     
 PAO|LS| adapt: energies:   -7.6923626350926968       -7.6924616523312785       -7.6910510541228652     
 PAO|LS| adapt: suggested step_size:   0.21531228726881935     
 PAO|LS| adapt: predicted energy  -7.6926040929644088     
 PAO| ======================= Iteration:        18 =============================

     Lanczos converged:  T threshold:   0.100E-02
     Est. extremal eigenvalues:    0.276E+01   0.200E+00
     Est. condition number :    0.138E+02
     NS sqrt iter    1 1.00000000   0.706E+00       0.001       51.784
     NS sqrt iter    2 1.00000000   0.323E+00       0.001      109.626
     NS sqrt iter    3 1.00000000   0.688E-01       0.001      110.592
     NS sqrt iter    4 1.00000000   0.131E-02       0.001      110.592
     NS sqrt iter    5 1.00000000   0.132E-07       0.001       47.360
     Final NS sqrt iter    5 1.00000000   0.593E-08

     Est. extremal eigenvalues     -0.92488     1.57320  converged:  T
     TRS4 it   1 1.00000000   0.836E+00       0.000       16.128   0.100E-07
     TRS4 it   2 1.00000000   0.589E+00       0.001       32.256   0.100E-07
     TRS4 it   3 1.00000000   0.397E+00       0.001       32.256   0.100E-07
     TRS4 it   4 1.00000000   0.197E+00       0.001       32.256   0.100E-07
     TRS4 it   5 1.00000000   0.613E-01       0.001       32.256   0.100E-07
     TRS4 it   6 1.00000000   0.734E-02       0.001       32.256   0.100E-07
     TRS4 it   7 1.00000000   0.140E-03       0.001       32.256   0.100E-07
     TRS4 it   8 1.00000000   0.714E-07       0.001       32.256   0.100E-07
     Final TRS4 iteration    8 1.00000000   0.714E-07
     Chemical potential (mu):       0.00215
 
 PAO| energy:  -7.6926035058335032      penalty:   1.4131435736953363E-005
 PAO|CG| trace_G_new    6.8971820559619521E-004
 PAO|CG| trace_G_prev    2.2379994603568703E-003
 PAO|CG| trace_G_mix    1.5173065464267882E-006
 PAO|CG| trace_D    2.8079942617539578E-003
 PAO|CG| trace_D_Gnew  -1.9882190929115642E-006
 PAO|CG| beta:   0.30750717828145863     
 PAO| norm of gradient:   2.6262486660561964E-002
 PAO| energy improvement:  -2.4087074080636484E-004
 PAO| step     18                   -7.692603506  0.164E-02  0.215E+00     0.052
 PAO|LS| adapt:  T F F
 PAO|LS| adapt: scan_steps:    0.0000000000000000        0.0000000000000000        0.0000000000000000     
 PAO|LS| adapt: energies:   -7.6926035058335032        0.0000000000000000        0.0000000000000000     
 PAO| ======================= Iteration:        19 =============================

     Lanczos converged:  T threshold:   0.100E-02
     Est. extremal eigenvalues:    0.276E+01   0.200E+00
     Est. condition number :    0.138E+02
     NS sqrt iter    1 1.00000000   0.706E+00       0.001       64.512
     NS sqrt iter    2 1.00000000   0.323E+00       0.001      108.305
     NS sqrt iter    3 1.00000000   0.690E-01       0.001       98.792
     NS sqrt iter    4 1.00000000   0.131E-02       0.001      105.082
     NS sqrt iter    5 1.00000000   0.132E-07       0.001       47.488
     Final NS sqrt iter    5 1.00000000   0.594E-08

     Est. extremal eigenvalues     -0.92489     1.57346  converged:  T
     TRS4 it   1 1.00000000   0.836E+00       0.000       16.128   0.100E-07
     TRS4 it   2 1.00000000   0.589E+00       0.001       32.256   0.100E-07
     TRS4 it   3 1.00000000   0.396E+00       0.001       32.256   0.100E-07
     TRS4 it   4 1.00000000   0.197E+00       0.001       32.256   0.100E-07
     TRS4 it   5 1.00000000   0.612E-01       0.001       32.256   0.100E-07
     TRS4 it   6 1.00000000   0.732E-02       0.001       32.256   0.100E-07
     TRS4 it   7 1.00000000   0.140E-03       0.001       32.256   0.100E-07
     TRS4 it   8 1.00000000   0.716E-07       0.001       32.256   0.100E-07
     Final TRS4 iteration    8 1.00000000   0.716E-07
     Chemical potential (mu):       0.00213
 
 PAO| energy:  -7.6927157391547984      penalty:   1.3846568346943470E-005
 PAO|LS| adapt:  T T F
 PAO|LS| adapt: scan_steps:    0.0000000000000000       0.21531228726881935        0.0000000000000000     
 PAO|LS| adapt: energies:   -7.6926035058335032       -7.6927157391547984        0.0000000000000000     
 PAO| ======================= Iteration:        20 =============================

     Lanczos converged:  T threshold:   0.100E-02
     Est. extremal eigenvalues:    0.276E+01   0.200E+00
     Est. condition number :    0.138E+02
     NS sqrt iter    1 1.00000000   0.706E+00       0.001       62.352
     NS sqrt iter    2 1.00000000   0.323E+00       0.001      110.412
     NS sqrt iter    3 1.00000000   0.691E-01       0.001      110.592
     NS sqrt iter    4 1.00000000   0.132E-02       0.001      110.592
     NS sqrt iter    5 1.00000000   0.132E-07       0.001       47.488
     Final NS sqrt iter    5 1.00000000   0.599E-08

     Est. extremal eigenvalues     -0.92489     1.57373  converged:  T
     TRS4 it   1 1.00000000   0.836E+00       0.001       16.128   0.100E-07
     TRS4 it   2 1.00000000   0.589E+00       0.001       32.256   0.100E-07
     TRS4 it   3 1.00000000   0.396E+00       0.001       32.256   0.100E-07
     TRS4 it   4 1.00000000   0.197E+00       0.001       32.256   0.100E-07
     TRS4 it   5 1.00000000   0.611E-01       0.001       32.256   0.100E-07
     TRS4 it   6 1.00000000   0.730E-02       0.001       32.256   0.100E-07
     TRS4 it   7 1.00000000   0.140E-03       0.001       32.256   0.100E-07
     TRS4 it   8 1.00000000   0.719E-07       0.001       32.256   0.100E-07
     Final TRS4 iteration    8 1.00000000   0.719E-07
     Chemical potential (mu):       0.00210
 
 PAO| energy:  -7.6927546986414876      penalty:   1.3573505129066030E-005
 PAO|LS| adapt:  T T F
 PAO|LS| adapt: scan_steps:    0.0000000000000000       0.43062457453763869        0.0000000000000000     
 PAO|LS| adapt: energies:   -7.6926035058335032       -7.6927546986414876        0.0000000000000000     
 PAO| ======================= Iteration:        21 =============================

     Lanczos converged:  T threshold:   0.100E-02
     Est. extremal eigenvalues:    0.276E+01   0.199E+00
     Est. condition number :    0.138E+02
     NS sqrt iter    1 1.00000000   0.705E+00       0.001       64.512
     NS sqrt iter    2 1.00000000   0.323E+00       0.001      110.592
     NS sqrt iter    3 1.00000000   0.695E-01       0.001      110.592
     NS sqrt iter    4 1.00000000   0.133E-02       0.001       99.318
     NS sqrt iter    5 1.00000000   0.134E-07       0.001       42.287
     Final NS sqrt iter    5 1.00000000   0.603E-08

     Est. extremal eigenvalues     -0.92489     1.57426  converged:  T
     TRS4 it   1 1.00000000   0.836E+00       0.000       16.128   0.100E-07
     TRS4 it   2 1.00000000   0.589E+00       0.001       32.256   0.100E-07
     TRS4 it   3 1.00000000   0.396E+00       0.001       32.256   0.100E-07
     TRS4 it   4 1.00000000   0.196E+00       0.001       32.256   0.100E-07
     TRS4 it   5 1.00000000   0.608E-01       0.001       32.256   0.100E-07
     TRS4 it   6 1.00000000   0.726E-02       0.001       31.912   0.100E-07
     TRS4 it   7 1.00000000   0.139E-03       0.001       32.256   0.100E-07
     TRS4 it   8 1.00000000   0.725E-07       0.001       32.256   0.100E-07
     Final TRS4 iteration    8 1.00000000   0.725E-07
     Chemical potential (mu):       0.00202
 
 PAO| energy:  -7.6926100906157364      penalty:   1.3062272369683127E-005
 PAO|LS| Need extra step
 PAO|LS| adapt:  T T T
 PAO|LS| adapt: scan_steps:    0.0000000000000000       0.43062457453763869       0.86124914907527739     
 PAO|LS| adapt: energies:   -7.6926035058335032       -7.6927546986414876       -7.6926100906157364     
 PAO|LS| adapt: suggested step_size:   0.43541761215657870     
 PAO|LS| adapt: predicted energy  -7.6927547169643553     
 PAO| ======================= Iteration:        22 =============================

     Lanczos converged:  T threshold:   0.100E-02
     Est. extremal eigenvalues:    0.276E+01   0.200E+00
     Est. condition number :    0.138E+02
     NS sqrt iter    1 1.00000000   0.706E+00       0.001       63.465
     NS sqrt iter    2 1.00000000   0.323E+00       0.001      110.592
     NS sqrt iter    3 1.00000000   0.692E-01       0.001      110.592
     NS sqrt iter    4 1.00000000   0.132E-02       0.001      110.592
     NS sqrt iter    5 1.00000000   0.132E-07       0.001       47.488
     Final NS sqrt iter    5 1.00000000   0.599E-08

     Est. extremal eigenvalues     -0.92489     1.57373  converged:  T
     TRS4 it   1 1.00000000   0.836E+00       0.000       16.128   0.100E-07
     TRS4 it   2 1.00000000   0.589E+00       0.001       32.256   0.100E-07
     TRS4 it   3 1.00000000   0.396E+00       0.001       32.256   0.100E-07
     TRS4 it   4 1.00000000   0.197E+00       0.001       32.256   0.100E-07
     TRS4 it   5 1.00000000   0.611E-01       0.001       32.256   0.100E-07
     TRS4 it   6 1.00000000   0.730E-02       0.001       32.256   0.100E-07
     TRS4 it   7 1.00000000   0.140E-03       0.001       32.256   0.100E-07
     TRS4 it   8 1.00000000   0.719E-07       0.001       32.256   0.100E-07
     Final TRS4 iteration    8 1.00000000   0.719E-07
     Chemical potential (mu):       0.00209
 
 PAO| energy:  -7.6927547270332113      penalty:   1.3567559549866071E-005
 PAO|CG| trace_G_new    2.1824197930709802E-004
 PAO|CG| trace_G_prev    6.8971820559619521E-004
 PAO|CG| trace_G_mix    3.9397246745533193E-006
 PAO|CG| trace_D    9.5646679273247537E-004
 PAO|CG| trace_D_Gnew  -2.1048710099948285E-006
 PAO|CG| beta:   0.31070987092083641     
 PAO| norm of gradient:   1.4773015240874087E-002
 PAO| energy improvement:  -1.5122119970811809E-004
 PAO| step     22                   -7.692754727  0.923E-03  0.435E+00     0.069
 PAO|LS| adapt:  T F F
 PAO|LS| adapt: scan_steps:    0.0000000000000000        0.0000000000000000        0.0000000000000000     
 PAO|LS| adapt: energies:   -7.6927547270332113        0.0000000000000000        0.0000000000000000     
 PAO| ======================= Iteration:        23 =============================

     Lanczos converged:  T threshold:   0.100E-02
     Est. extremal eigenvalues:    0.276E+01   0.200E+00
     Est. condition number :    0.138E+02
     NS sqrt iter    1 1.00000000   0.705E+00       0.001       64.512
     NS sqrt iter    2 1.00000000   0.323E+00       0.001      110.592
     NS sqrt iter    3 1.00000000   0.692E-01       0.001      110.592
     NS sqrt iter    4 1.00000000   0.132E-02       0.001      110.592
     NS sqrt iter    5 1.00000000   0.132E-07       0.001       47.488
     Final NS sqrt iter    5 1.00000000   0.601E-08

     Est. extremal eigenvalues     -0.92489     1.57402  converged:  T
     TRS4 it   1 1.00000000   0.836E+00       0.001       16.128   0.100E-07
     TRS4 it   2 1.00000000   0.589E+00       0.001       32.256   0.100E-07
     TRS4 it   3 1.00000000   0.396E+00       0.001       29.727   0.100E-07
     TRS4 it   4 1.00000000   0.197E+00       0.001       32.256   0.100E-07
     TRS4 it   5 1.00000000   0.611E-01       0.001       32.256   0.100E-07
     TRS4 it   6 1.00000000   0.732E-02       0.001       32.256   0.100E-07
     TRS4 it   7 1.00000000   0.140E-03       0.001       32.256   0.100E-07
     TRS4 it   8 1.00000000   0.728E-07       0.001       32.256   0.100E-07
     Final TRS4 iteration    8 1.00000000   0.728E-07
     Chemical potential (mu):       0.00204
 
 PAO| energy:  -7.6928039401472663      penalty:   1.2931258132689262E-005
 PAO|LS| adapt:  T T F
 PAO|LS| adapt: scan_steps:    0.0000000000000000       0.43541761215657870        0.0000000000000000     
 PAO|LS| adapt: energies:   -7.6927547270332113       -7.6928039401472663        0.0000000000000000     
 PAO| ======================= Iteration:        24 =============================

     Lanczos converged:  T threshold:   0.100E-02
     Est. extremal eigenvalues:    0.276E+01   0.200E+00
     Est. condition number :    0.138E+02
     NS sqrt iter    1 1.00000000   0.705E+00       0.001       56.410
     NS sqrt iter    2 1.00000000   0.323E+00       0.001       79.184
     NS sqrt iter    3 1.00000000   0.692E-01       0.001      110.592
     NS sqrt iter    4 1.00000000   0.132E-02       0.001      110.592
     NS sqrt iter    5 1.00000000   0.132E-07       0.001       47.488
     Final NS sqrt iter    5 1.00000000   0.603E-08

     Est. extremal eigenvalues     -0.92489     1.57431  converged:  T
     TRS4 it   1 1.00000000   0.836E+00       0.001       16.128   0.100E-07
     TRS4 it   2 1.00000000   0.589E+00       0.001       22.620   0.100E-07
     TRS4 it   3 1.00000000   0.397E+00       0.001       29.082   0.100E-07
     TRS4 it   4 1.00000000   0.197E+00       0.001       32.256   0.100E-07
     TRS4 it   5 1.00000000   0.612E-01       0.001       32.256   0.100E-07
     TRS4 it   6 1.00000000   0.734E-02       0.001       32.256   0.100E-07
     TRS4 it   7 1.00000000   0.141E-03       0.001       32.256   0.100E-07
     TRS4 it   8 1.00000000   0.736E-07       0.001       32.256   0.100E-07
     Final TRS4 iteration    8 1.00000000   0.736E-07
     Chemical potential (mu):       0.00198
 
 PAO| energy:  -7.6927602955915697      penalty:   1.2320695242968365E-005
 PAO|LS| adapt:  T T T
 PAO|LS| adapt: scan_steps:    0.0000000000000000       0.43541761215657870       0.87083522431315741     
 PAO|LS| adapt: energies:   -7.6927547270332113       -7.6928039401472663       -7.6927602955915697     
 PAO|LS| adapt: suggested step_size:   0.44847333706366233     
 PAO|LS| adapt: predicted energy  -7.6928039818897016     
 PAO| ======================= Iteration:        25 =============================

     Lanczos converged:  T threshold:   0.100E-02
     Est. extremal eigenvalues:    0.276E+01   0.200E+00
     Est. condition number :    0.138E+02
     NS sqrt iter    1 1.00000000   0.705E+00       0.001       64.512
     NS sqrt iter    2 1.00000000   0.323E+00       0.001      110.592
     NS sqrt iter    3 1.00000000   0.692E-01       0.001      110.592
     NS sqrt iter    4 1.00000000   0.132E-02       0.001      110.592
     NS sqrt iter    5 1.00000000   0.132E-07       0.001       47.488
     Final NS sqrt iter    5 1.00000000   0.601E-08

     Est. extremal eigenvalues     -0.92489     1.57403  converged:  T
     TRS4 it   1 1.00000000   0.836E+00       0.000       16.128   0.100E-07
     TRS4 it   2 1.00000000   0.589E+00       0.001       32.256   0.100E-07
     TRS4 it   3 1.00000000   0.396E+00       0.001       32.256   0.100E-07
     TRS4 it   4 1.00000000   0.197E+00       0.001       32.256   0.100E-07
     TRS4 it   5 1.00000000   0.611E-01       0.001       32.256   0.100E-07
     TRS4 it   6 1.00000000   0.732E-02       0.001       32.256   0.100E-07
     TRS4 it   7 1.00000000   0.140E-03       0.001       32.256   0.100E-07
     TRS4 it   8 1.00000000   0.728E-07       0.001       32.256   0.100E-07
     Final TRS4 iteration    8 1.00000000   0.728E-07
     Chemical potential (mu):       0.00204
 
 PAO| energy:  -7.6928039868780571      penalty:   1.2912579027996506E-005
 PAO|CG| trace_G_new    6.4363884445972982E-005
 PAO|CG| trace_G_prev    2.1824197930709802E-004
 PAO|CG| trace_G_mix    7.0371277409725007E-007
 PAO|CG| trace_D    3.1188788860494500E-004
 PAO|CG| trace_D_Gnew  -3.8287843621530676E-007
 PAO|CG| beta:   0.29169535519239709     
 PAO| norm of gradient:   8.0227105423275099E-003
 PAO| energy improvement:  -4.9259844845828127E-005
 PAO| step     25                   -7.692803987  0.501E-03  0.448E+00     0.054
 PAO|LS| adapt:  T F F
 PAO|LS| adapt: scan_steps:    0.0000000000000000        0.0000000000000000        0.0000000000000000     
 PAO|LS| adapt: energies:   -7.6928039868780571        0.0000000000000000        0.0000000000000000     
 PAO| ======================= Iteration:        26 =============================

     Lanczos converged:  T threshold:   0.100E-02
     Est. extremal eigenvalues:    0.276E+01   0.200E+00
     Est. condition number :    0.138E+02
     NS sqrt iter    1 1.00000000   0.705E+00       0.001       64.512
     NS sqrt iter    2 1.00000000   0.323E+00       0.001      110.592
     NS sqrt iter    3 1.00000000   0.690E-01       0.001      110.592
     NS sqrt iter    4 1.00000000   0.131E-02       0.001       90.225
     NS sqrt iter    5 1.00000000   0.131E-07       0.002       30.101
     Final NS sqrt iter    5 1.00000000   0.600E-08

     Est. extremal eigenvalues     -0.92489     1.57385  converged:  T
     TRS4 it   1 1.00000000   0.836E+00       0.000       16.128   0.100E-07
     TRS4 it   2 1.00000000   0.589E+00       0.001       32.256   0.100E-07
     TRS4 it   3 1.00000000   0.396E+00       0.001       32.256   0.100E-07
     TRS4 it   4 1.00000000   0.197E+00       0.001       32.256   0.100E-07
     TRS4 it   5 1.00000000   0.610E-01       0.001       32.256   0.100E-07
     TRS4 it   6 1.00000000   0.728E-02       0.001       32.256   0.100E-07
     TRS4 it   7 1.00000000   0.139E-03       0.001       32.256   0.100E-07
     TRS4 it   8 1.00000000   0.710E-07       0.001       32.256   0.100E-07
     Final TRS4 iteration    8 1.00000000   0.710E-07
     Chemical potential (mu):       0.00224
 
 PAO| energy:  -7.6928105779276459      penalty:   1.2263478700356823E-005
 PAO|LS| adapt:  T T F
 PAO|LS| adapt: scan_steps:    0.0000000000000000       0.44847333706366233        0.0000000000000000     
 PAO|LS| adapt: energies:   -7.6928039868780571       -7.6928105779276459        0.0000000000000000     
 PAO| ======================= Iteration:        27 =============================

     Lanczos converged:  T threshold:   0.100E-02
     Est. extremal eigenvalues:    0.276E+01   0.200E+00
     Est. condition number :    0.138E+02
     NS sqrt iter    1 1.00000000   0.705E+00       0.001       64.512
     NS sqrt iter    2 1.00000000   0.323E+00       0.001       98.214
     NS sqrt iter    3 1.00000000   0.689E-01       0.001       87.514
     NS sqrt iter    4 1.00000000   0.130E-02       0.001      110.592
     NS sqrt iter    5 1.00000000   0.130E-07       0.001       47.360
     Final NS sqrt iter    5 1.00000000   0.596E-08

     Est. extremal eigenvalues     -0.92489     1.57366  converged:  T
     TRS4 it   1 1.00000000   0.836E+00       0.000       16.128   0.100E-07
     TRS4 it   2 1.00000000   0.589E+00       0.001       32.256   0.100E-07
     TRS4 it   3 1.00000000   0.396E+00       0.001       32.256   0.100E-07
     TRS4 it   4 1.00000000   0.197E+00       0.001       32.256   0.100E-07
     TRS4 it   5 1.00000000   0.609E-01       0.001       32.256   0.100E-07
     TRS4 it   6 1.00000000   0.724E-02       0.001       32.256   0.100E-07
     TRS4 it   7 1.00000000   0.137E-03       0.001       32.256   0.100E-07
     TRS4 it   8 1.00000000   0.693E-07       0.001       32.256   0.100E-07
     Final TRS4 iteration    8 1.00000000   0.693E-07
     Chemical potential (mu):       0.00245
 
 PAO| energy:  -7.6927724875520562      penalty:   1.1634189734800827E-005
 PAO|LS| adapt:  T T T
 PAO|LS| adapt: scan_steps:    0.0000000000000000       0.44847333706366233       0.89694667412732465     
 PAO|LS| adapt: energies:   -7.6928039868780571       -7.6928105779276459       -7.6927724875520562     
 PAO|LS| adapt: suggested step_size:   0.29039189952606598     
 PAO|LS| adapt: predicted energy  -7.6928133537106902     
 PAO| ======================= Iteration:        28 =============================

     Lanczos converged:  T threshold:   0.100E-02
     Est. extremal eigenvalues:    0.276E+01   0.200E+00
     Est. condition number :    0.138E+02
     NS sqrt iter    1 1.00000000   0.705E+00       0.001       64.512
     NS sqrt iter    2 1.00000000   0.323E+00       0.001      110.592
     NS sqrt iter    3 1.00000000   0.691E-01       0.001      110.592
     NS sqrt iter    4 1.00000000   0.131E-02       0.001      100.187
     NS sqrt iter    5 1.00000000   0.131E-07       0.001       37.064
     Final NS sqrt iter    5 1.00000000   0.599E-08

     Est. extremal eigenvalues     -0.92489     1.57391  converged:  T
     TRS4 it   1 1.00000000   0.836E+00       0.000       16.128   0.100E-07
     TRS4 it   2 1.00000000   0.589E+00       0.001       32.256   0.100E-07
     TRS4 it   3 1.00000000   0.396E+00       0.001       32.256   0.100E-07
     TRS4 it   4 1.00000000   0.197E+00       0.001       32.256   0.100E-07
     TRS4 it   5 1.00000000   0.611E-01       0.001       32.256   0.100E-07
     TRS4 it   6 1.00000000   0.729E-02       0.001       32.256   0.100E-07
     TRS4 it   7 1.00000000   0.139E-03       0.001       32.256   0.100E-07
     TRS4 it   8 1.00000000   0.716E-07       0.001       32.256   0.100E-07
     Final TRS4 iteration    8 1.00000000   0.716E-07
     Chemical potential (mu):       0.00217
 
 PAO| energy:  -7.6928133542481509      penalty:   1.2490006144617473E-005
 PAO|CG| trace_G_new    3.9621183485062802E-005
 PAO|CG| trace_G_prev    6.4363884445972982E-005
 PAO|CG| trace_G_mix    3.6958362517127348E-008
 PAO|CG| trace_D    9.1124601273636380E-005
 PAO|CG| trace_D_Gnew  -2.3326820583245437E-008
 PAO|CG| beta:   0.61500677691031302     
 PAO| norm of gradient:   6.2945360023644956E-003
 PAO| energy improvement:  -9.3673700938268212E-006
 PAO| step     28                   -7.692813354  0.393E-03  0.290E+00     0.054
 PAO|LS| adapt:  T F F
 PAO|LS| adapt: scan_steps:    0.0000000000000000        0.0000000000000000        0.0000000000000000     
 PAO|LS| adapt: energies:   -7.6928133542481509        0.0000000000000000        0.0000000000000000     
 PAO| ======================= Iteration:        29 =============================

     Lanczos converged:  T threshold:   0.100E-02
     Est. extremal eigenvalues:    0.276E+01   0.200E+00
     Est. condition number :    0.138E+02
     NS sqrt iter    1 1.00000000   0.705E+00       0.001       49.553
     NS sqrt iter    2 1.00000000   0.323E+00       0.001       94.821
     NS sqrt iter    3 1.00000000   0.690E-01       0.001      110.592
     NS sqrt iter    4 1.00000000   0.131E-02       0.001      104.480
     NS sqrt iter    5 1.00000000   0.131E-07       0.001       47.360
     Final NS sqrt iter    5 1.00000000   0.600E-08

     Est. extremal eigenvalues     -0.92490     1.57407  converged:  T
     TRS4 it   1 1.00000000   0.836E+00       0.000       16.128   0.100E-07
     TRS4 it   2 1.00000000   0.589E+00       0.001       32.256   0.100E-07
     TRS4 it   3 1.00000000   0.396E+00       0.001       32.256   0.100E-07
     TRS4 it   4 1.00000000   0.197E+00       0.001       32.256   0.100E-07
     TRS4 it   5 1.00000000   0.609E-01       0.001       32.256   0.100E-07
     TRS4 it   6 1.00000000   0.727E-02       0.001       32.256   0.100E-07
     TRS4 it   7 1.00000000   0.138E-03       0.001       32.256   0.100E-07
     TRS4 it   8 1.00000000   0.703E-07       0.001       32.256   0.100E-07
     Final TRS4 iteration    8 1.00000000   0.703E-07
     Chemical potential (mu):       0.00235
 
 PAO| energy:  -7.6928231681154404      penalty:   1.1944007891899336E-005
 PAO|LS| adapt:  T T F
 PAO|LS| adapt: scan_steps:    0.0000000000000000       0.29039189952606598        0.0000000000000000     
 PAO|LS| adapt: energies:   -7.6928133542481509       -7.6928231681154404        0.0000000000000000     
 PAO| ======================= Iteration:        30 =============================

     Lanczos converged:  T threshold:   0.100E-02
     Est. extremal eigenvalues:    0.276E+01   0.200E+00
     Est. condition number :    0.138E+02
     NS sqrt iter    1 1.00000000   0.705E+00       0.001       54.966
     NS sqrt iter    2 1.00000000   0.322E+00       0.001      110.592
     NS sqrt iter    3 1.00000000   0.689E-01       0.001      110.592
     NS sqrt iter    4 1.00000000   0.130E-02       0.001      110.592
     NS sqrt iter    5 1.00000000   0.131E-07       0.001       47.360
     Final NS sqrt iter    5 1.00000000   0.599E-08

     Est. extremal eigenvalues     -0.92490     1.57423  converged:  T
     TRS4 it   1 1.00000000   0.837E+00       0.000       16.128   0.100E-07
     TRS4 it   2 1.00000000   0.589E+00       0.001       32.256   0.100E-07
     TRS4 it   3 1.00000000   0.396E+00       0.001       32.256   0.100E-07
     TRS4 it   4 1.00000000   0.197E+00       0.001       32.256   0.100E-07
     TRS4 it   5 1.00000000   0.608E-01       0.001       32.256   0.100E-07
     TRS4 it   6 1.00000000   0.724E-02       0.001       32.256   0.100E-07
     TRS4 it   7 1.00000000   0.137E-03       0.001       32.256   0.100E-07
     TRS4 it   8 1.00000000   0.691E-07       0.001       32.256   0.100E-07
     Final TRS4 iteration    8 1.00000000   0.691E-07
     Chemical potential (mu):       0.00253
 
 PAO| energy:  -7.6928296067832695      penalty:   1.1411681630530092E-005
 PAO|LS| adapt:  T T F
 PAO|LS| adapt: scan_steps:    0.0000000000000000       0.58078379905213195        0.0000000000000000     
 PAO|LS| adapt: energies:   -7.6928133542481509       -7.6928296067832695        0.0000000000000000     
 PAO| ======================= Iteration:        31 =============================

     Lanczos converged:  T threshold:   0.100E-02
     Est. extremal eigenvalues:    0.276E+01   0.199E+00
     Est. condition number :    0.138E+02
     NS sqrt iter    1 1.00000000   0.704E+00       0.001       64.512
     NS sqrt iter    2 1.00000000   0.322E+00       0.001      108.938
     NS sqrt iter    3 1.00000000   0.687E-01       0.002       64.176
     NS sqrt iter    4 1.00000000   0.130E-02       0.003       41.930
     NS sqrt iter    5 1.00000000   0.131E-07       0.001       43.695
     Final NS sqrt iter    5 1.00000000   0.563E-08

     Est. extremal eigenvalues     -0.92491     1.57455  converged:  T
     TRS4 it   1 1.00000000   0.837E+00       0.000       16.128   0.100E-07
     TRS4 it   2 1.00000000   0.589E+00       0.001       32.256   0.100E-07
     TRS4 it   3 1.00000000   0.396E+00       0.001       32.256   0.100E-07
     TRS4 it   4 1.00000000   0.196E+00       0.001       32.256   0.100E-07
     TRS4 it   5 1.00000000   0.606E-01       0.001       32.256   0.100E-07
     TRS4 it   6 1.00000000   0.718E-02       0.001       32.256   0.100E-07
     TRS4 it   7 1.00000000   0.135E-03       0.001       32.256   0.100E-07
     TRS4 it   8 1.00000000   0.666E-07       0.001       32.256   0.100E-07
     Final TRS4 iteration    8 1.00000000   0.666E-07
     Chemical potential (mu):       0.00288
 
 PAO| energy:  -7.6928323523347446      penalty:   1.0387647417722938E-005
 PAO|LS| Need extra step
 PAO|LS| adapt:  T T F
 PAO|LS| adapt: scan_steps:    0.0000000000000000        1.1615675981042639        0.0000000000000000     
 PAO|LS| adapt: energies:   -7.6928133542481509       -7.6928323523347446        0.0000000000000000     
 PAO| ======================= Iteration:        32 =============================

     Lanczos converged:  T threshold:   0.100E-02
     Est. extremal eigenvalues:    0.275E+01   0.199E+00
     Est. condition number :    0.138E+02
     NS sqrt iter    1 1.00000000   0.702E+00       0.001       47.271
     NS sqrt iter    2 1.00000000   0.321E+00       0.001      110.592
     NS sqrt iter    3 1.00000000   0.682E-01       0.001      110.592
     NS sqrt iter    4 1.00000000   0.129E-02       0.001      110.592
     NS sqrt iter    5 1.00000000   0.128E-07       0.001       46.080
     Final NS sqrt iter    5 1.00000000   0.605E-08

     Est. extremal eigenvalues     -0.92492     1.57516  converged:  T
     TRS4 it   1 1.00000000   0.838E+00       0.000       16.128   0.100E-07
     TRS4 it   2 1.00000000   0.589E+00       0.001       32.256   0.100E-07
     TRS4 it   3 1.00000000   0.396E+00       0.001       32.256   0.100E-07
     TRS4 it   4 1.00000000   0.196E+00       0.001       32.256   0.100E-07
     TRS4 it   5 1.00000000   0.602E-01       0.001       32.256   0.100E-07
     TRS4 it   6 1.00000000   0.707E-02       0.001       32.256   0.100E-07
     TRS4 it   7 1.00000000   0.130E-03       0.001       32.256   0.100E-07
     TRS4 it   8 1.00000000   0.619E-07       0.001       32.256   0.100E-07
     Final TRS4 iteration    8 1.00000000   0.619E-07
     Chemical potential (mu):       0.00360
 
 PAO| energy:  -7.6927973800501883      penalty:   8.4993047327441073E-006
 PAO|LS| Need extra step
 PAO|LS| adapt:  T T T
 PAO|LS| adapt: scan_steps:    0.0000000000000000        1.1615675981042639        2.3231351962085278     
 PAO|LS| adapt: energies:   -7.6928133542481509       -7.6928323523347446       -7.6927973800501883     
 PAO|LS| adapt: suggested step_size:   0.98966669800180673     
 PAO|LS| adapt: predicted energy  -7.6928329433418927     
 PAO| ======================= Iteration:        33 =============================

     Lanczos converged:  T threshold:   0.100E-02
     Est. extremal eigenvalues:    0.276E+01   0.199E+00
     Est. condition number :    0.138E+02
     NS sqrt iter    1 1.00000000   0.704E+00       0.001       59.248
     NS sqrt iter    2 1.00000000   0.322E+00       0.001       74.938
     NS sqrt iter    3 1.00000000   0.687E-01       0.002       71.088
     NS sqrt iter    4 1.00000000   0.130E-02       0.001      110.592
     NS sqrt iter    5 1.00000000   0.131E-07       0.001       47.360
     Final NS sqrt iter    5 1.00000000   0.599E-08

     Est. extremal eigenvalues     -0.92491     1.57446  converged:  T
     TRS4 it   1 1.00000000   0.837E+00       0.000       16.128   0.100E-07
     TRS4 it   2 1.00000000   0.589E+00       0.001       32.256   0.100E-07
     TRS4 it   3 1.00000000   0.396E+00       0.001       32.256   0.100E-07
     TRS4 it   4 1.00000000   0.196E+00       0.001       32.256   0.100E-07
     TRS4 it   5 1.00000000   0.607E-01       0.001       32.256   0.100E-07
     TRS4 it   6 1.00000000   0.720E-02       0.001       32.256   0.100E-07
     TRS4 it   7 1.00000000   0.135E-03       0.001       32.256   0.100E-07
     TRS4 it   8 1.00000000   0.673E-07       0.001       32.256   0.100E-07
     Final TRS4 iteration    8 1.00000000   0.673E-07
     Chemical potential (mu):       0.00278
 
 PAO| energy:  -7.6928329464664857      penalty:   1.0685132445318237E-005
 PAO|CG| trace_G_new    1.0097698591542496E-004
 PAO|CG| trace_G_prev    3.9621183485062802E-005
 PAO|CG| trace_G_mix    6.7534927941177220E-008
 PAO|CG| trace_D    7.4116237689651578E-005
 PAO|CG| trace_D_Gnew   1.8429115095150976E-008
 PAO|CG| beta:    2.5468560530385642     
 PAO| norm of gradient:   1.0048730562385725E-002
 PAO| energy improvement:  -1.9592218334807399E-005
 PAO| step     33                   -7.692832946  0.628E-03  0.990E+00     0.086
 PAO|LS| adapt:  T F F
 PAO|LS| adapt: scan_steps:    0.0000000000000000        0.0000000000000000        0.0000000000000000     
 PAO|LS| adapt: energies:   -7.6928329464664857        0.0000000000000000        0.0000000000000000     
 PAO| ======================= Iteration:        34 =============================

     Lanczos converged:  T threshold:   0.100E-02
     Est. extremal eigenvalues:    0.275E+01   0.198E+00
     Est. condition number :    0.139E+02
     NS sqrt iter    1 1.00000000   0.701E+00       0.001       60.352
     NS sqrt iter    2 1.00000000   0.320E+00       0.001      110.592
     NS sqrt iter    3 1.00000000   0.679E-01       0.001      110.592
     NS sqrt iter    4 1.00000000   0.128E-02       0.001      110.592
     NS sqrt iter    5 1.00000000   0.131E-07       0.001       46.208
     Final NS sqrt iter    5 1.00000000   0.592E-08

     Est. extremal eigenvalues     -0.92493     1.57529  converged:  T
     TRS4 it   1 1.00000000   0.838E+00       0.000       16.128   0.100E-07
     TRS4 it   2 1.00000000   0.589E+00       0.001       32.256   0.100E-07
[...]
     Est. condition number :    0.116E+02
     NS sqrt iter    1 1.00000000   0.627E+00       0.001       64.082
     NS sqrt iter    2 1.00000000   0.262E+00       0.001      110.592
     NS sqrt iter    3 1.00000000   0.408E-01       0.001      110.592
     NS sqrt iter    4 1.00000000   0.397E-03       0.001       86.645
     NS sqrt iter    5 1.00000000   0.587E-09       0.001       36.864
     Final NS sqrt iter    5 1.00000000   0.944E-10

     Est. extremal eigenvalues     -0.92502     1.50082  converged:  T
     TRS4 it   1 1.00000000   0.841E+00       0.001       16.128   0.100E-07
     TRS4 it   2 1.00000000   0.603E+00       0.001       32.256   0.100E-07
     TRS4 it   3 1.00000000   0.433E+00       0.001       32.256   0.100E-07
     TRS4 it   4 1.00000000   0.262E+00       0.001       32.256   0.100E-07
     TRS4 it   5 1.00000000   0.125E+00       0.001       32.256   0.100E-07
     TRS4 it   6 1.00000000   0.371E-01       0.001       32.256   0.100E-07
     TRS4 it   7 1.00000000   0.464E-02       0.001       32.256   0.100E-07
     TRS4 it   8 1.00000000   0.922E-04       0.001       32.256   0.100E-07
     TRS4 it   9 1.00000000   0.380E-07       0.001       32.256   0.100E-07
     Final TRS4 iteration    9 1.00000000   0.380E-07
     Chemical potential (mu):      -0.07827
 
 PAO| energy:  -7.6937617236978433      penalty:   1.5328162669542376E-011
 PAO|LS| Need extra step
 PAO|LS| adapt:  T T T
 PAO|LS| adapt: scan_steps:    0.0000000000000000       0.26273175275878419       0.52546350551756837     
 PAO|LS| adapt: energies:   -7.6937617236893630       -7.6937617236978433       -7.6937617236461362     
 PAO|LS| adapt: suggested step_size:   0.16838443721966173     
 PAO|LS| adapt: predicted energy  -7.6937617237017228     
 PAO| ======================= Iteration:      1000 =============================

     Lanczos converged:  T threshold:   0.100E-02
     Est. extremal eigenvalues:    0.246E+01   0.213E+00
     Est. condition number :    0.116E+02
     NS sqrt iter    1 1.00000000   0.627E+00       0.001       47.702
     NS sqrt iter    2 1.00000000   0.262E+00       0.001      108.688
     NS sqrt iter    3 1.00000000   0.408E-01       0.001      110.592
     NS sqrt iter    4 1.00000000   0.397E-03       0.001      109.824
     NS sqrt iter    5 1.00000000   0.587E-09       0.001       36.864
     Final NS sqrt iter    5 1.00000000   0.944E-10

     Est. extremal eigenvalues     -0.92502     1.50082  converged:  T
     TRS4 it   1 1.00000000   0.841E+00       0.000       16.128   0.100E-07
     TRS4 it   2 1.00000000   0.603E+00       0.001       32.256   0.100E-07
     TRS4 it   3 1.00000000   0.433E+00       0.001       32.256   0.100E-07
     TRS4 it   4 1.00000000   0.262E+00       0.001       32.256   0.100E-07
     TRS4 it   5 1.00000000   0.125E+00       0.001       32.256   0.100E-07
     TRS4 it   6 1.00000000   0.371E-01       0.001       32.256   0.100E-07
     TRS4 it   7 1.00000000   0.464E-02       0.001       32.256   0.100E-07
     TRS4 it   8 1.00000000   0.922E-04       0.001       32.256   0.100E-07
     TRS4 it   9 1.00000000   0.380E-07       0.001       32.256   0.100E-07
     Final TRS4 iteration    9 1.00000000   0.380E-07
     Chemical potential (mu):      -0.07827
 
 PAO| energy:  -7.6937617237017228      penalty:   1.5314447838333271E-011
 PAO|CG| trace_G_new    1.6766304076670395E-010
 PAO|CG| trace_G_prev    2.7897460926563632E-010
 PAO|CG| trace_G_mix    1.2636191344507006E-010
 PAO|CG| trace_D    1.9636255912936114E-010
 PAO|CG| trace_D_Gnew  -3.5083245539903922E-011
 PAO|CG| beta:   0.14804618753783233     
 PAO| norm of gradient:   1.2948476387849804E-005
 PAO| energy improvement:  -1.2359890888546943E-011
 PAO| step   1000                   -7.693761724  0.809E-06  0.168E+00     0.075

 *** WARNING in pao_main.F:279 :: PAO not converged! ***

 PAO| Writing restart file.
     Est. extremal eigenvalues     -0.92502     1.50082  converged:  T
     TRS4 it   1 1.00000000   0.841E+00       0.000       16.128   0.100E-07
     TRS4 it   2 1.00000000   0.603E+00       0.001       32.256   0.100E-07
     TRS4 it   3 1.00000000   0.433E+00       0.001       32.256   0.100E-07
     TRS4 it   4 1.00000000   0.262E+00       0.001       32.256   0.100E-07
     TRS4 it   5 1.00000000   0.125E+00       0.001       32.256   0.100E-07
     TRS4 it   6 1.00000000   0.371E-01       0.001       32.256   0.100E-07
     TRS4 it   7 1.00000000   0.464E-02       0.001       32.256   0.100E-07
     TRS4 it   8 1.00000000   0.922E-04       0.001       32.256   0.100E-07
     TRS4 it   9 1.00000000   0.380E-07       0.001       32.256   0.100E-07
     Final TRS4 iteration    9 1.00000000   0.380E-07
     Chemical potential (mu):      -0.07827

 SCF     1       -34.447630456       -34.447630456    2.297365

*********************************************************
 Using MIXING_FRACTION=0.450 to mix KS matrix:  iscf=  2
 KS_nw=0.450*KS + 0.550*KS_old
*********************************************************
     Est. extremal eigenvalues     -0.92482     1.50077  converged:  T
     TRS4 it   1 1.00000000   0.841E+00       0.000       16.128   0.100E-07
     TRS4 it   2 1.00000000   0.603E+00       0.001       32.256   0.100E-07
     TRS4 it   3 1.00000000   0.433E+00       0.001       32.256   0.100E-07
     TRS4 it   4 1.00000000   0.262E+00       0.001       32.256   0.100E-07
     TRS4 it   5 1.00000000   0.125E+00       0.001       32.256   0.100E-07
     TRS4 it   6 1.00000000   0.371E-01       0.001       32.256   0.100E-07
     TRS4 it   7 1.00000000   0.464E-02       0.001       32.256   0.100E-07
     TRS4 it   8 1.00000000   0.920E-04       0.001       32.256   0.100E-07
     TRS4 it   9 1.00000000   0.377E-07       0.001       32.256   0.100E-07
     Final TRS4 iteration    9 1.00000000   0.377E-07
     Chemical potential (mu):      -0.07822

 SCF     2       -34.447630767        -0.000000312    2.305631

*********************************************************
 Using MIXING_FRACTION=0.450 to mix KS matrix:  iscf=  3
 KS_nw=0.450*KS + 0.550*KS_old
*********************************************************
     Est. extremal eigenvalues     -0.92480     1.50072  converged:  T
     TRS4 it   1 1.00000000   0.841E+00       0.000       16.128   0.100E-07
     TRS4 it   2 1.00000000   0.603E+00       0.001       32.256   0.100E-07
     TRS4 it   3 1.00000000   0.433E+00       0.001       32.256   0.100E-07
     TRS4 it   4 1.00000000   0.262E+00       0.001       32.256   0.100E-07
     TRS4 it   5 1.00000000   0.125E+00       0.001       32.256   0.100E-07
     TRS4 it   6 1.00000000   0.371E-01       0.001       32.256   0.100E-07
     TRS4 it   7 1.00000000   0.463E-02       0.001       32.256   0.100E-07
     TRS4 it   8 1.00000000   0.917E-04       0.001       32.256   0.100E-07
     TRS4 it   9 1.00000000   0.375E-07       0.001       32.256   0.100E-07
     Final TRS4 iteration    9 1.00000000   0.375E-07
     Chemical potential (mu):      -0.07824

 SCF     3       -34.447630787        -0.000000019    2.298082

 PAO| Storing density matrix for ASPC guess in slot:           1

 ENERGY| Total FORCE_EVAL ( QS ) energy (a.u.):              -34.447630786716132


 -------------------------------------------------------------------------------
 -                                                                             -
 -                                DBCSR STATISTICS                             -
 -                                                                             -
 -------------------------------------------------------------------------------
 COUNTER                                    TOTAL       BLAS       SMM       ACC
 flops     5 x     5 x     4                 8000       0.0%    100.0%      0.0%
 flops    13 x     5 x     4                 8320       0.0%    100.0%      0.0%
 flops     5 x    13 x     4                 8320       0.0%    100.0%      0.0%
 flops    13 x    13 x     4                16224       0.0%    100.0%      0.0%
 flops     4 x     4 x     5              7695360       0.0%    100.0%      0.0%
 flops     5 x     4 x     5              9398400       0.0%    100.0%      0.0%
 flops     4 x     4 x    13             10003968       0.0%    100.0%      0.0%
 flops    13 x     4 x     5             12217920       0.0%    100.0%      0.0%
 flops     5 x     4 x    13             12217920       0.0%    100.0%      0.0%
 flops     5 x     4 x     4             15517920       0.0%    100.0%      0.0%
 flops    13 x     4 x    13             15883296       0.0%    100.0%      0.0%
 flops    13 x     4 x     4             20846592       0.0%    100.0%      0.0%
 flops     4 x     4 x     4            974101376       0.0%    100.0%      0.0%
 flops inhomo. stacks                           0       0.0%      0.0%      0.0%
 flops total                         1.077924E+09       0.0%    100.0%      0.0%
 flops max/rank                      1.077924E+09       0.0%    100.0%      0.0%
 matmuls inhomo. stacks                         0       0.0%      0.0%      0.0%
 matmuls total                            7935226       0.0%    100.0%      0.0%
 number of processed stacks                 63639       0.0%    100.0%      0.0%
 average stack size                                     0.0     124.7       0.0
 marketing flops                     1.755749E+09
 -------------------------------------------------------------------------------
 # multiplications                          52942
 max memory usage/rank             320.991232E+06
 # max total images/rank                        1
 # max 3D layers                                1
 # MPI messages exchanged                       0
 MPI messages size (bytes):
  total size                         0.000000E+00
  min size                           0.000000E+00
  max size                           0.000000E+00
  average size                       0.000000E+00
 MPI breakdown and total messages size (bytes):
             size <=      128                   0                        0
       128 < size <=     8192                   0                        0
      8192 < size <=    32768                   0                        0
     32768 < size <=   131072                   0                        0
    131072 < size <=  4194304                   0                        0
   4194304 < size <= 16777216                   0                        0
  16777216 < size                               0                        0
 -------------------------------------------------------------------------------

 MEMORY| Estimated peak process memory [MiB]                                 307

 -------------------------------------------------------------------------------
 -                                                                             -
 -                           R E F E R E N C E S                               -
 -                                                                             -
 -------------------------------------------------------------------------------
 
 CP2K version 7.0 (Development Version), the CP2K developers group (2018).
 CP2K is freely available from https://www.cp2k.org/ .

 Schuett, O; VandeVondele, J. 
 Journal of Chemical Theory and Computation, 14, (2018). 
 Machine Learning Adaptive Basis Sets for Efficient Large Scale Density Functional Theory Simulation.
 https://dx.doi.org/10.1021/acs.jctc.8b00378


 Schuett, Ole; Messmer, Peter; Hutter, Juerg; VandeVondele, Joost. 
 Electronic Structure Calculations on Graphics Processing Units, John Wiley & Sons, Ltd, 173-190 (2016). 
 GPU-Accelerated Sparse Matrix-Matrix Multiplication for Linear Scaling Density Functional Theory.
 https://dx.doi.org/10.1002/9781118670712.ch8


 Borstnik, U; VandeVondele, J; Weber, V; Hutter, J. 
 PARALLEL COMPUTING, 40 (5-6), 47-58 (2014). 
 Sparse matrix multiplication: The distributed block-compressed sparse
 row library.
 https://dx.doi.org/10.1016/j.parco.2014.03.012


 Hutter, J; Iannuzzi, M; Schiffmann, F; VandeVondele, J. 
 WILEY INTERDISCIPLINARY REVIEWS-COMPUTATIONAL MOLECULAR SCIENCE, 4 (1), 15-25 (2014). 
 CP2K: atomistic simulations of condensed matter systems.
 https://dx.doi.org/10.1002/wcms.1159


 VandeVondele, J; Borstnik, U; Hutter, J. 
 JOURNAL OF CHEMICAL THEORY AND COMPUTATION, 8 (10), 3565-3573 (2012). 
 Linear Scaling Self-Consistent Field Calculations with Millions of Atoms
 in the Condensed Phase.
 https://dx.doi.org/10.1021/ct200897x


 VandeVondele, J; Hutter, J. 
 JOURNAL OF CHEMICAL PHYSICS, 127 (11), 114105 (2007). 
 Gaussian basis sets for accurate calculations on molecular systems in
 gas and condensed phases.
 https://dx.doi.org/10.1063/1.2770708


 Krack, M. 
 THEORETICAL CHEMISTRY ACCOUNTS, 114 (1-3), 145-152 (2005). 
 Pseudopotentials for H to Kr optimized for gradient-corrected
 exchange-correlation functionals.
 https://dx.doi.org/10.1007/s00214-005-0655-y


 VandeVondele, J; Krack, M; Mohamed, F; Parrinello, M; Chassaing, T;
 Hutter, J. COMPUTER PHYSICS COMMUNICATIONS, 167 (2), 103-128 (2005). 
 QUICKSTEP: Fast and accurate density functional calculations using a
 mixed Gaussian and plane waves approach.
 https://dx.doi.org/10.1016/j.cpc.2004.12.014


 Frigo, M; Johnson, SG. 
 PROCEEDINGS OF THE IEEE, 93 (2), 216-231 (2005). 
 The design and implementation of FFTW3.
 https://dx.doi.org/10.1109/JPROC.2004.840301


 Niklasson, AMN; Tymczak, CJ; Challacombe, M. 
 JOURNAL OF CHEMICAL PHYSICS, 118 (19), 8611-8620 (2003). 
 Trace resetting density matrix purification in O(N)
 self-consistent-field theory.
 https://dx.doi.org/10.1063/1.1559913


 Hartwigsen, C; Goedecker, S; Hutter, J. 
 PHYSICAL REVIEW B, 58 (7), 3641-3662 (1998). 
 Relativistic separable dual-space Gaussian pseudopotentials from H to Rn.
 https://dx.doi.org/10.1103/PhysRevB.58.3641


 Lippert, G; Hutter, J; Parrinello, M. 
 MOLECULAR PHYSICS, 92 (3), 477-487 (1997). 
 A hybrid Gaussian and plane wave density functional scheme.
 https://dx.doi.org/10.1080/002689797170220


 Perdew, JP; Burke, K; Ernzerhof, M. 
 PHYSICAL REVIEW LETTERS, 77 (18), 3865-3868 (1996). 
 Generalized gradient approximation made simple.
 https://dx.doi.org/10.1103/PhysRevLett.77.3865


 Goedecker, S; Teter, M; Hutter, J. 
 PHYSICAL REVIEW B, 54 (3), 1703-1710 (1996). 
 Separable dual-space Gaussian pseudopotentials.
 https://dx.doi.org/10.1103/PhysRevB.54.1703


 -------------------------------------------------------------------------------
 -                                                                             -
 -                                T I M I N G                                  -
 -                                                                             -
 -------------------------------------------------------------------------------
 SUBROUTINE                       CALLS  ASD         SELF TIME        TOTAL TIME
                                MAXIMUM       AVERAGE  MAXIMUM  AVERAGE  MAXIMUM
 CP2K                                 1  1.0    0.028    0.028   28.709   28.709
 qs_energies                          1  2.0    0.000    0.000   28.270   28.270
 ls_scf                               1  3.0    0.000    0.000   28.146   28.146
 pao_update                           1  4.0    0.028    0.028   18.882   18.882
 pao_calc_energy                   1000  5.0    0.011    0.011   17.103   17.103
 dbcsr_multiply_generic           52942  8.4    1.052    1.052   13.560   13.560
 pao_dm_trs4                       1000  6.0    0.011    0.011    8.857    8.857
 density_matrix_trs4               1003  7.0    0.528    0.528    8.331    8.331
 pao_rebuild_S                     1000  6.0    0.008    0.008    8.137    8.137
 ls_scf_init_matrix_S              1001  7.0    0.010    0.010    8.135    8.135
 matrix_sqrt_Newton_Schulz         1001  8.0    0.371    0.371    7.294    7.294
 ls_scf_main                          1  4.0    0.000    0.000    6.901    6.901
 ls_scf_dm_to_ks                      3  5.0    0.000    0.000    6.874    6.874
 qs_ks_update_qs_env                  4  6.0    0.000    0.000    6.593    6.593
 rebuild_ks_matrix                    4  7.0    0.000    0.000    6.593    6.593
 qs_ks_build_kohn_sham_matrix         4  8.0    0.001    0.001    6.593    6.593
 multiply_cannon                  52942  9.4    2.459    2.459    5.293    5.293
 make_m2s                        105884  9.4    0.355    0.355    4.939    4.939
 make_images                     105884 10.4    1.279    1.279    4.378    4.378
 qs_vxc_create                        4  9.0    0.000    0.000    3.810    3.810
 xc_vxc_pw_create                     4 10.0    0.077    0.077    3.809    3.809
 xc_rho_set_and_dset_create           4 11.0    0.026    0.026    2.660    2.660
 qs_rho_update_rho                    4  6.0    0.000    0.000    2.616    2.616
 calculate_rho_elec                   4  7.0    2.038    2.038    2.616    2.616
 pw_transfer                         77 10.6    0.007    0.007    2.604    2.604
 fft_wrap_pw1pw2                     69 11.6    0.001    0.001    2.538    2.538
 fft_wrap_pw1pw2_200                 45 12.7    0.263    0.263    2.424    2.424
 pao_guess_initial_P                  1  4.0    0.000    0.000    2.337    2.337
 pao_read_preopt_dm                   1  5.0    0.000    0.000    2.337    2.337
 sum_up_and_integrate                 4  9.0    0.013    0.013    2.293    2.293
 integrate_v_rspace                   4 10.0    1.974    1.974    2.280    2.280
 arnoldi_extremal                  2004  8.5    0.015    0.015    2.258    2.258
 arnoldi_normal_ev                 2004  9.5    0.032    0.032    2.243    2.243
 pao_calc_AB                       1312  5.8    0.003    0.003    1.740    1.740
 pao_calc_AB_direct                1312  6.8    0.062    0.062    1.737    1.737
 xc_functional_eval                   4 12.0    0.000    0.000    1.673    1.673
 pbe_lda_eval                         4 13.0    1.673    1.673    1.673    1.673
 build_subspace                    2004 10.5    0.134    0.134    1.604    1.604
 pao_calc_grad_lnv_wrt_AB           311  7.0    0.019    0.019    1.598    1.598
 dbcsr_create_new                404853 10.7    0.792    0.792    1.427    1.427
 dbcsr_matrix_vector_mult         48086 11.5    0.256    0.256    1.422    1.422
 dbcsr_finalize                  124905  9.7    0.259    0.259    1.387    1.387
 fft3d_s                             70 13.5    1.307    1.307    1.318    1.318
 matrix_qs_to_ls                   2004  7.5    0.018    0.018    1.087    1.087
 dbcsr_merge_all                 117256 10.7    0.514    0.514    0.971    0.971
 multiply_cannon_multrec          52942 10.4    0.735    0.735    0.952    0.952
 dbcsr_add_d                      43910  8.1    0.032    0.032    0.913    0.913
 dbcsr_special_finalize          105884 11.4    0.133    0.133    0.911    0.911
 dbcsr_add_anytype                43910  9.1    0.228    0.228    0.881    0.881
 make_images_pack                105884 11.4    0.588    0.588    0.759    0.759
 dbcsr_copy                      154460  9.1    0.302    0.302    0.748    0.748
 setup_buffer_matrices           105884 10.4    0.281    0.281    0.735    0.735
 quick_finalize                  110511 12.4    0.358    0.358    0.719    0.719
 -------------------------------------------------------------------------------

 The number of warnings for this run is : 1
 
 -------------------------------------------------------------------------------
  **** **** ******  **  PROGRAM ENDED AT                 2019-02-14 01:19:50.271
 ***** ** ***  *** **   PROGRAM RAN ON                                      otto
 **    ****   ******    PROGRAM RAN BY                                       ole
 ***** **    ** ** **   PROGRAM PROCESS ID                                  6101
  **** **  *******  **  PROGRAM STOPPED IN /home/ole/git/pao_ml_equivar/2H2O_MD/
                                           frame_0425
