 DBCSR| CPU Multiplication driver                                           XSMM (U)
 DBCSR| Multrec recursion limit                                              512 (U)
 DBCSR| Multiplication stack size                                           1000 (D)
 DBCSR| Maximum elements for images                                    UNLIMITED (U)
 DBCSR| Multiplicative factor virtual images                                   1 (U)
 DBCSR| Use multiplication densification                                       T (D)
 DBCSR| Multiplication size stacks                                             3 (U)
 DBCSR| Use memory pool for CPU allocation                                     F (U)
 DBCSR| Number of 3D layers                                               SINGLE (U)
 DBCSR| Use MPI memory allocation                                              F (U)
 DBCSR| Use RMA algorithm                                                      F (U)
 DBCSR| Use Communication thread                                               T (U)
 DBCSR| Communication thread load                                             87 (D)
 DBCSR| MPI: My process id                                                     0
 DBCSR| MPI: Number of processes                                              32
 DBCSR| OMP: Current number of threads                                         1
 DBCSR| OMP: Max number of threads                                             1
 DBCSR| Split modifier for TAS multiplication algorithm                  1.0E+00 (U)


  **** **** ******  **  PROGRAM STARTED AT               2024-09-24 01:29:50.903
 ***** ** ***  *** **   PROGRAM STARTED ON                                moritz
 **    ****   ******    PROGRAM STARTED BY                                   ole
 ***** **    ** ** **   PROGRAM PROCESS ID                                166129
  **** **  *******  **  PROGRAM STARTED IN /home/ole/git/pao_ml_equivar/64H2O_MD
                                           /Frame2600

 CP2K| version string:                 CP2K version 2024.3 (Development Version)
 CP2K| source code revision number:                                  git:3f890bb
 CP2K| cp2kflags: omp libint fftw3 libxc libgrpp pexsi elpa parallel scalapack c
 CP2K|            osma quip deepmd xsmm plumed2 spglib libdftd4 sirius libvori l
 CP2K|            libbqb libvdwxc hdf5
 CP2K| is freely available from                            https://www.cp2k.org/
 CP2K| Program compiled at                          Mo 23 Sep 2024 17:17:04 CEST
 CP2K| Program compiled on                                                moritz
 CP2K| Program compiled for                                                local
 CP2K| Data directory path                               /home/ole/git/cp2k/data
 CP2K| Input file name                                           64H2O_pao44.inp

 GLOBAL| Force Environment number                                              1
 GLOBAL| Basis set file name                                        BASIS_MOLOPT
 GLOBAL| Potential file name                                      GTH_POTENTIALS
 GLOBAL| MM Potential file name                                     MM_POTENTIAL
 GLOBAL| Coordinate file name                                         coords.xyz
 GLOBAL| Method name                                                        CP2K
 GLOBAL| Project name                                                64H2O_pao44
 GLOBAL| Run type                                                         ENERGY
 GLOBAL| FFT library                                                       FFTW3
 GLOBAL| Diagonalization library                                            ELPA
 GLOBAL| DGEMM library                                                      BLAS
 GLOBAL| Minimum number of eigenvectors for ELPA usage                        16
 GLOBAL| Orthonormality check for eigenvectors                          DISABLED
 GLOBAL| Matrix multiplication library                                     COSMA
 GLOBAL| All-to-all communication in single precision                          F
 GLOBAL| FFTs using library dependent lengths                                  F
 GLOBAL| Grid backend                                                       AUTO
 GLOBAL| Global print level                                                  LOW
 GLOBAL| MPI I/O enabled                                                       T
 GLOBAL| Total number of message passing processes                            32
 GLOBAL| Number of threads for this process                                    1
 GLOBAL| This output is from process                                           0
 GLOBAL| Stack size for threads created by OpenMP (OMP_STACKSIZE)        default
 GLOBAL| CPU model name           AMD Ryzen Threadripper 3970X 32-Core Processor
 GLOBAL| CPUID                                                              1002

 MEMORY| system memory details [Kb]
 MEMORY|                        rank 0           min           max       average
 MEMORY| MemTotal            131752136     131752136     131752136     131752136
 MEMORY| MemFree             114300740     114300740     114300740     114300740
 MEMORY| Buffers               2000568       2000568       2000568       2000568
 MEMORY| Cached                8646796       8646796       8646800       8646797
 MEMORY| Slab                  1643588       1643588       1643588       1643588
 MEMORY| SReclaimable          1144140       1144140       1144140       1144140
 MEMORY| MemLikelyFree       126092244     126092244     126092248     126092245


 GENERATE|  Preliminary Number of Bonds generated:                             0
 GENERATE|  Achieved consistency in connectivity generation.

 *******************************************************************************
 *******************************************************************************
 **                                                                           **
 **     #####                         ##              ##                      **
 **    ##   ##            ##          ##              ##                      **
 **   ##     ##                       ##            ######                    **
 **   ##     ##  ##   ##  ##   #####  ##  ##   ####   ##    #####    #####    **
 **   ##     ##  ##   ##  ##  ##      ## ##   ##      ##   ##   ##  ##   ##   **
 **   ##  ## ##  ##   ##  ##  ##      ####     ###    ##   ######   ######    **
 **    ##  ###   ##   ##  ##  ##      ## ##      ##   ##   ##       ##        **
 **     #######   #####   ##   #####  ##  ##  ####    ##    #####   ##        **
 **           ##                                                    ##        **
 **                                                                           **
 **                                                ... make the atoms dance   **
 **                                                                           **
 **            Copyright (C) by CP2K developers group (2000-2024)             **
 **                      J. Chem. Phys. 152, 194103 (2020)                    **
 **                                                                           **
 *******************************************************************************


 TOTAL NUMBERS AND MAXIMUM NUMBERS

  Total number of            - Atomic kinds:                                   2
                             - Atoms:                                        192
                             - Shell sets:                                   192
                             - Shells:                                       704
                             - Primitive Cartesian functions:               1344
                             - Cartesian basis functions:                   1536
                             - Spherical basis functions:                   1472

  Maximum angular momentum of- Orbital basis functions:                        2
                             - Local part of the GTH pseudopotential:          2
                             - Non-local part of the GTH pseudopotential:      0

 ------------------------------ Linear scaling SCF -----------------------------
 eps_scf:                                                              0.100E-07
 eps_filter:                                                           0.100E-11
 mixing_fraction:                                                      0.450E+00
 max_scf:                                                                     25
 fixed chemical potential (mu)                                                 F
 has unit metric:                                                              F
 Computing inv(S):                                                             T
 Computing sqrt(S):                                                            T
 Computing S preconditioner                                                    F
 S sqrt method:                                                     NEWTONSCHULZ
 S sqrt order:                                                                 3
 Extrapolation order:                                                          1
 S preconditioner type                                                      NONE
 Polarized Atomic Orbitals (PAO)                                               T
 Purification method                                   Trace resetting 4th order
 Cluster type                                                             ATOMIC
 Computing Chebyshev                                                       FALSE
 Using PAO                                                                     T
 -------------------------------------------------------------------------------

 
 PAO|                                  EPS_PAO                           0.5E-06
 PAO|                                  MIXING                            0.5E+00
 PAO|                                  MAX_PAO                              1500
 PAO|                                  MAX_CYCLES                           1000
 PAO|                                  PARAMETERIZATION              EQUIVARIANT
 PAO|                                  PRECONDITION                            F
 PAO|                                  REGULARIZATION                    0.0E+00
 PAO|                                  EPS_PGF                           0.1E-09
 PAO|                                  PENALTY_DISTANCE                  0.1E+00
 PAO|                                  PENALTY_STRENGTH                  0.5E-02
 PAO|                                  LINPOT_PRECONDITION_DELTA         0.0E+00
 PAO|                                  LINPOT_INITGUESS_DELT             0.0E+00
 PAO|                                  LINPOT_REGULARIZATION_DELTA       0.0E+00
 PAO|                                  LINPOT_REGULARIZATION_STRENGTH    0.0E+00
 PAO|                                  OPTIMIZER                              CG
 PAO|                                  CG_INIT_STEPS                           2
 PAO|                                  CG_RESET_LIMIT                    0.1E+00
 PAO|                                  CHECK_UNITARY_TOL                -0.1E+01
 PAO|                                  CHECK_GRADIENT_TOL               -0.1E+01
 PAO|                                  NUM_GRADIENT_ORDER                      2
 PAO|                                  NUM_GRADIENT_EPS                  0.1E-07
 PAO|                                  PRINT%RESTART%WRITE_CYCLES            100
 PAO|                                  RESTART_FILE 
 PAO|                                  PREOPT_DM_FILE 64H2O_ref_LS_DM_SPIN_1_RESTART.dm
 PAO|                                  MACHINE_LEARNING%METHOD       GAUSSIAN_PR
 PAO|                                  MACHINE_LEARNING%PRIOR               ZERO
 PAO|                                  MACHINE_LEARNING%DESCRIPTOR     POTENTIAL
 PAO|                                  MACHINE_LEARNING%TOLERANCE        0.1E-01
 PAO|                                  MACHINE_LEARNING%GP_NOISE_VAR     0.1E+00
 PAO|                                  MACHINE_LEARNING%GP_SCALE         0.5E-01
 

 Calculating atomic Fock matrix for atomic kind: O

 Electronic structure
    Total number of core electrons                                          2.00
    Total number of valence electrons                                       6.00
    Total number of electrons                                               8.00
    Multiplicity                                                   not specified
    S   [  2.00] 2.00
    P      4.00


 *******************************************************************************
                  Iteration          Convergence                     Energy [au]
 *******************************************************************************
                          1        0.708315                     -15.576645311500
                          2        0.608879                     -15.587933561584
                          3        0.102828E-01                 -15.656849565404
                          4        0.113889E-02                 -15.656866888140
                          5        0.434197E-03                 -15.656867072159
                          6        0.263771E-03                 -15.656867091904
                          7        0.478536E-06                 -15.656867103452

 Energy components [Hartree]           Total Energy ::          -15.656867103452
                                        Band Energy ::           -3.000198112285
                                     Kinetic Energy ::           11.759971203220
                                   Potential Energy ::          -27.416838306672
                                      Virial (-V/T) ::            2.331369510426
                                        Core Energy ::          -26.140716385623
                                          XC Energy ::           -3.154051012914
                                     Coulomb Energy ::           13.637900295084
                       Total Pseudopotential Energy ::          -37.935781716540
                       Local Pseudopotential Energy ::          -39.218907440693
                    Nonlocal Pseudopotential Energy ::            1.283125724153
                                        Confinement ::            0.350941276976

 Orbital energies  State     L     Occupation   Energy[a.u.]          Energy[eV]

                       1     0          2.000      -0.864471          -23.523463

                       1     1          4.000      -0.317814           -8.648154


 Total Electron Density at R=0:                                         0.000068

 Calculating atomic Fock matrix for atomic kind: H

 Electronic structure
    Total number of core electrons                                          0.00
    Total number of valence electrons                                       1.00
    Total number of electrons                                               1.00
    Multiplicity                                                   not specified
    S      1.00


 *******************************************************************************
                  Iteration          Convergence                     Energy [au]
 *******************************************************************************
                          1        0.437545E-02                  -0.424159432110
                          2        0.531356E-03                  -0.424178438213
                          3        0.259176E-06                  -0.424178722480

 Energy components [Hartree]           Total Energy ::           -0.424178722480
                                        Band Energy ::           -0.199015229016
                                     Kinetic Energy ::            0.464007633961
                                   Potential Energy ::           -0.888186356441
                                      Virial (-V/T) ::            1.914163240935
                                        Core Energy ::           -0.479160803564
                                          XC Energy ::           -0.244352904054
                                     Coulomb Energy ::            0.299334985138
                       Total Pseudopotential Energy ::           -0.962295316385
                       Local Pseudopotential Energy ::           -0.962295316385
                    Nonlocal Pseudopotential Energy ::            0.000000000000
                                        Confinement ::            0.191268788606

 Orbital energies  State     L     Occupation   Energy[a.u.]          Energy[eV]

                       1     0          1.000      -0.199015           -5.415480


 Total Electron Density at R=0:                                         0.242907
 PAO| Made initial guess for matrix_X with norm:   27.712812921102035     

     Lanczos converged:  F threshold:   0.100E-02
     Est. extremal eigenvalues:    0.624E+01   0.949E-01
     Est. condition number :    0.658E+02

 Order=           3
     NS sqrt iter    1 1.00000000   0.153E+01       0.021     2710.355
     NS sqrt iter    2 1.00000000   0.827E+00       0.034     3374.643
     NS sqrt iter    3 1.00000000   0.332E+00       0.034     3374.942
     NS sqrt iter    4 1.00000000   0.929E-01       0.034     3358.661
     NS sqrt iter    5 1.00000000   0.338E-02       0.034     3365.286
     NS sqrt iter    6 1.00000000   0.284E-06       0.029     2936.757
     Symmetrizing Results
     Final NS sqrt iter    6 1.00000000   0.167E-12

 PAO| Read restart DM 64H2O_ref_LS_DM_SPIN_1_RESTART.dm with checksum:    6129.9248155740261     
 PAO| Quickstep energy from restart density:  -1103.1448145912848     
 PAO| ======================= Iteration:         1 =============================

     Lanczos converged:  F threshold:   0.100E-02
     Est. extremal eigenvalues:    0.624E+01   0.949E-01
     Est. condition number :    0.658E+02

 Order=           3
     NS sqrt iter    1 1.00000000   0.153E+01       0.021     2728.806
     NS sqrt iter    2 1.00000000   0.827E+00       0.033     3384.555
     NS sqrt iter    3 1.00000000   0.332E+00       0.033     3406.513
     NS sqrt iter    4 1.00000000   0.929E-01       0.033     3382.968
     NS sqrt iter    5 1.00000000   0.338E-02       0.033     3407.737
     NS sqrt iter    6 1.00000000   0.284E-06       0.029     2939.300
     Symmetrizing Results
     Final NS sqrt iter    6 1.00000000   0.167E-12

     Est. extremal eigenvalues     -0.81555     2.58438  converged:  F
     TRS4 it   1 1.00000000   0.271E+02       0.007     2099.059   0.100E-11
     TRS4 it   2 1.00000000   0.234E+02       0.013     2218.888   0.100E-11
     TRS4 it   3 1.00000000   0.160E+02       0.013     2195.838   0.100E-11
     TRS4 it   4 1.00000000   0.996E+01       0.013     2205.218   0.100E-11
     TRS4 it   5 1.00000000   0.479E+01       0.013     2195.238   0.100E-11
     TRS4 it   6 1.00000000   0.158E+01       0.013     2197.850   0.100E-11
     TRS4 it   7 1.00000000   0.305E+00       0.013     2207.201   0.100E-11
     TRS4 it   8 1.00000000   0.205E-01       0.013     2209.055   0.100E-11
     TRS4 it   9 1.00000000   0.148E-03       0.013     2206.526   0.100E-11
     TRS4 it  10 1.00000000   0.564E-08       0.013     2222.299   0.100E-11
     TRS4 it  11 1.00000000   0.160E-13       0.013     2205.946   0.100E-11
     Final TRS4 iteration   11 1.00000000   0.160E-13
     Chemical potential (mu):       0.00692
 
 PAO| energy:  -186.32741550629780      penalty:   1.2923760298816105E-031
 PAO|CG| warming up with steepest descent
 PAO|CG| beta:    0.0000000000000000     
 PAO| norm of gradient:   3.9796042754002658     
 PAO|LS| adapt:  T F F
 PAO|LS| adapt: scan_steps:    0.0000000000000000        0.0000000000000000        0.0000000000000000     
 PAO|LS| adapt: energies:   -186.32741550629780        0.0000000000000000        0.0000000000000000     
 PAO| ======================= Iteration:         2 =============================

     Lanczos converged:  T threshold:   0.100E-02
     Est. extremal eigenvalues:    0.602E+01   0.101E+00
     Est. condition number :    0.594E+02

 Order=           3
     NS sqrt iter    1 1.00000000   0.148E+01       0.021     2696.165
     NS sqrt iter    2 1.00000000   0.797E+00       0.034     3379.528
     NS sqrt iter    3 1.00000000   0.312E+00       0.033     3391.803
     NS sqrt iter    4 1.00000000   0.781E-01       0.034     3377.079
     NS sqrt iter    5 1.00000000   0.210E-02       0.033     3394.720
     NS sqrt iter    6 1.00000000   0.798E-07       0.029     2951.080
     Symmetrizing Results
     Final NS sqrt iter    6 1.00000000   0.146E-13

     Est. extremal eigenvalues     -0.81908     2.58635  converged:  F
     TRS4 it   1 1.00000000   0.274E+02       0.007     2177.180   0.100E-11
     TRS4 it   2 1.00000000   0.234E+02       0.013     2213.662   0.100E-11
     TRS4 it   3 1.00000000   0.158E+02       0.013     2198.445   0.100E-11
     TRS4 it   4 1.00000000   0.976E+01       0.013     2216.848   0.100E-11
     TRS4 it   5 1.00000000   0.458E+01       0.013     2232.557   0.100E-11
     TRS4 it   6 1.00000000   0.145E+01       0.013     2193.294   0.100E-11
     TRS4 it   7 1.00000000   0.262E+00       0.013     2183.450   0.100E-11
     TRS4 it   8 1.00000000   0.148E-01       0.013     2219.158   0.100E-11
     TRS4 it   9 1.00000000   0.700E-04       0.013     2211.405   0.100E-11
     TRS4 it  10 1.00000000   0.142E-08       0.013     2192.916   0.100E-11
     TRS4 it  11 1.00000000   0.178E-13       0.013     2242.549   0.100E-11
     Final TRS4 iteration   11 1.00000000   0.178E-13
     Chemical potential (mu):       0.01232
 
 PAO| energy:  -187.78145761913947      penalty:   4.7088519108692758E-007
 PAO|LS| adapt:  T T F
 PAO|LS| adapt: scan_steps:    0.0000000000000000       0.10000000000000001        0.0000000000000000     
 PAO|LS| adapt: energies:   -186.32741550629780       -187.78145761913947        0.0000000000000000     
 PAO| ======================= Iteration:         3 =============================

     Lanczos converged:  F threshold:   0.100E-02
     Est. extremal eigenvalues:    0.580E+01   0.107E+00
     Est. condition number :    0.543E+02

 Order=           3
     NS sqrt iter    1 1.00000000   0.144E+01       0.021     2696.746
     NS sqrt iter    2 1.00000000   0.768E+00       0.034     3372.559
     NS sqrt iter    3 1.00000000   0.291E+00       0.034     3378.597
     NS sqrt iter    4 1.00000000   0.654E-01       0.034     3377.602
     NS sqrt iter    5 1.00000000   0.132E-02       0.033     3385.304
     NS sqrt iter    6 1.00000000   0.238E-07       0.029     2939.008
     Symmetrizing Results
     Final NS sqrt iter    6 1.00000000   0.313E-14

     Est. extremal eigenvalues     -0.82239     2.59129  converged:  F
     TRS4 it   1 1.00000000   0.276E+02       0.007     2119.667   0.100E-11
     TRS4 it   2 1.00000000   0.234E+02       0.013     2229.068   0.100E-11
     TRS4 it   3 1.00000000   0.158E+02       0.013     2207.058   0.100E-11
     TRS4 it   4 1.00000000   0.957E+01       0.013     2207.006   0.100E-11
     TRS4 it   5 1.00000000   0.438E+01       0.013     2229.236   0.100E-11
     TRS4 it   6 1.00000000   0.133E+01       0.013     2216.313   0.100E-11
     TRS4 it   7 1.00000000   0.222E+00       0.013     2207.724   0.100E-11
     TRS4 it   8 1.00000000   0.103E-01       0.013     2199.666   0.100E-11
     TRS4 it   9 1.00000000   0.308E-04       0.013     2212.958   0.100E-11
     TRS4 it  10 1.00000000   0.318E-09       0.013     2224.660   0.100E-11
     TRS4 it  11 1.00000000   0.266E-13       0.013     2191.207   0.100E-11
     Final TRS4 iteration   11 1.00000000   0.266E-13
     Chemical potential (mu):       0.01837
 
 PAO| energy:  -188.95987850613986      penalty:   7.5341630573803516E-006
 PAO|LS| adapt:  T T F
 PAO|LS| adapt: scan_steps:    0.0000000000000000       0.20000000000000001        0.0000000000000000     
 PAO|LS| adapt: energies:   -186.32741550629780       -188.95987850613986        0.0000000000000000     
 PAO| ======================= Iteration:         4 =============================

     Lanczos converged:  F threshold:   0.100E-02
     Est. extremal eigenvalues:    0.538E+01   0.116E+00
     Est. condition number :    0.462E+02

 Order=           3
     NS sqrt iter    1 1.00000000   0.135E+01       0.021     2747.599
     NS sqrt iter    2 1.00000000   0.710E+00       0.033     3391.003
     NS sqrt iter    3 1.00000000   0.253E+00       0.034     3351.718
     NS sqrt iter    4 1.00000000   0.458E-01       0.034     3367.644
     NS sqrt iter    5 1.00000000   0.538E-03       0.033     3391.932
     NS sqrt iter    6 1.00000000   0.217E-08       0.029     2867.670
     Symmetrizing Results
     Final NS sqrt iter    6 1.00000000   0.149E-13

     Est. extremal eigenvalues     -0.82765     2.60168  converged:  T
     TRS4 it   1 1.00000000   0.281E+02       0.007     2130.709   0.100E-11
     TRS4 it   2 1.00000000   0.235E+02       0.013     2179.079   0.100E-11
     TRS4 it   3 1.00000000   0.156E+02       0.013     2215.852   0.100E-11
     TRS4 it   4 1.00000000   0.925E+01       0.013     2234.285   0.100E-11
     TRS4 it   5 1.00000000   0.402E+01       0.013     2199.644   0.100E-11
     TRS4 it   6 1.00000000   0.112E+01       0.013     2217.453   0.100E-11
     TRS4 it   7 1.00000000   0.158E+00       0.013     2206.712   0.100E-11
     TRS4 it   8 1.00000000   0.486E-02       0.013     2239.667   0.100E-11
     TRS4 it   9 1.00000000   0.558E-05       0.013     2221.383   0.100E-11
     TRS4 it  10 1.00000000   0.128E-10       0.013     2205.494   0.100E-11
     Final TRS4 iteration   10 1.00000000   0.128E-10
     Chemical potential (mu):       0.03751
 
 PAO| energy:  -190.44801530402850      penalty:   1.2054660891799759E-004
 PAO|LS| Need extra step
 PAO|LS| adapt:  T T F
 PAO|LS| adapt: scan_steps:    0.0000000000000000       0.40000000000000002        0.0000000000000000     
 PAO|LS| adapt: energies:   -186.32741550629780       -190.44801530402850        0.0000000000000000     
 PAO| ======================= Iteration:         5 =============================

     Lanczos converged:  F threshold:   0.100E-02
     Est. extremal eigenvalues:    0.469E+01   0.132E+00
     Est. condition number :    0.357E+02

 Order=           3
     NS sqrt iter    1 1.00000000   0.122E+01       0.021     2695.440
     NS sqrt iter    2 1.00000000   0.618E+00       0.034     3378.468
     NS sqrt iter    3 1.00000000   0.195E+00       0.034     3380.471
     NS sqrt iter    4 1.00000000   0.238E-01       0.034     3374.884
     NS sqrt iter    5 1.00000000   0.101E-03       0.033     3409.190
     NS sqrt iter    6 1.00000000   0.205E-10       0.018     2212.132
     Symmetrizing Results
     Final NS sqrt iter    6 1.00000000   0.200E-11

     Est. extremal eigenvalues     -0.83042     2.60630  converged:  T
     TRS4 it   1 1.00000000   0.287E+02       0.007     2139.442   0.100E-11
     TRS4 it   2 1.00000000   0.235E+02       0.013     2209.431   0.100E-11
     TRS4 it   3 1.00000000   0.153E+02       0.013     2213.870   0.100E-11
     TRS4 it   4 1.00000000   0.875E+01       0.013     2199.122   0.100E-11
     TRS4 it   5 1.00000000   0.350E+01       0.013     2224.844   0.100E-11
     TRS4 it   6 1.00000000   0.828E+00       0.013     2220.129   0.100E-11
     TRS4 it   7 1.00000000   0.859E-01       0.013     2205.354   0.100E-11
     TRS4 it   8 1.00000000   0.132E-02       0.013     2204.758   0.100E-11
     TRS4 it   9 1.00000000   0.367E-06       0.013     2214.747   0.100E-11
     TRS4 it  10 1.00000000   0.693E-13       0.013     2212.960   0.100E-11
     Final TRS4 iteration   10 1.00000000   0.693E-13
     Chemical potential (mu):       0.05928
 
 PAO| energy:  -190.07653679106883      penalty:   1.9287457426872651E-003
 PAO|LS| Need extra step
 PAO|LS| adapt:  T T T
 PAO|LS| adapt: scan_steps:    0.0000000000000000       0.40000000000000002       0.80000000000000004     
 PAO|LS| adapt: energies:   -186.32741550629780       -190.44801530402850       -190.07653679106883     
 PAO|LS| adapt: suggested step_size:   0.56692145708362973     
 PAO|LS| adapt: predicted energy  -190.83914579630178     
 PAO| ======================= Iteration:         6 =============================

     Lanczos converged:  F threshold:   0.100E-02
     Est. extremal eigenvalues:    0.506E+01   0.123E+00
     Est. condition number :    0.412E+02

 Order=           3
     NS sqrt iter    1 1.00000000   0.129E+01       0.021     2700.036
     NS sqrt iter    2 1.00000000   0.667E+00       0.033     3383.182
     NS sqrt iter    3 1.00000000   0.226E+00       0.033     3400.983
     NS sqrt iter    4 1.00000000   0.344E-01       0.033     3385.825
     NS sqrt iter    5 1.00000000   0.261E-03       0.034     3352.471
     NS sqrt iter    6 1.00000000   0.297E-09       0.028     2697.618
     Symmetrizing Results
     Final NS sqrt iter    6 1.00000000   0.381E-12

     Est. extremal eigenvalues     -0.83018     2.60610  converged:  T
     TRS4 it   1 1.00000000   0.284E+02       0.007     2150.525   0.100E-11
     TRS4 it   2 1.00000000   0.235E+02       0.013     2217.401   0.100E-11
     TRS4 it   3 1.00000000   0.155E+02       0.013     2185.587   0.100E-11
     TRS4 it   4 1.00000000   0.902E+01       0.013     2198.197   0.100E-11
     TRS4 it   5 1.00000000   0.378E+01       0.013     2225.453   0.100E-11
     TRS4 it   6 1.00000000   0.976E+00       0.013     2217.126   0.100E-11
     TRS4 it   7 1.00000000   0.120E+00       0.013     2232.658   0.100E-11
     TRS4 it   8 1.00000000   0.267E-02       0.013     2238.584   0.100E-11
     TRS4 it   9 1.00000000   0.155E-05       0.013     2211.462   0.100E-11
     TRS4 it  10 1.00000000   0.988E-12       0.013     2211.948   0.100E-11
     Final TRS4 iteration   10 1.00000000   0.988E-12
     Chemical potential (mu):       0.04757
 
 PAO| energy:  -190.81256818554806      penalty:   4.8641461018803059E-004
 PAO|CG| warming up with steepest descent
 PAO|CG| beta:    0.0000000000000000     
 PAO| norm of gradient:   2.0949434928221597     
 PAO| energy improvement:  -4.4851526792502625     
 PAO| step      6                 -190.812568186  0.409E-02  0.567E+00     2.555
 PAO|LS| adapt:  T F F
 PAO|LS| adapt: scan_steps:    0.0000000000000000        0.0000000000000000        0.0000000000000000     
 PAO|LS| adapt: energies:   -190.81256818554806        0.0000000000000000        0.0000000000000000     
 PAO| ======================= Iteration:         7 =============================

     Lanczos converged:  F threshold:   0.100E-02
     Est. extremal eigenvalues:    0.491E+01   0.131E+00
     Est. condition number :    0.375E+02

 Order=           3
     NS sqrt iter    1 1.00000000   0.126E+01       0.021     2696.091
     NS sqrt iter    2 1.00000000   0.643E+00       0.033     3398.499
     NS sqrt iter    3 1.00000000   0.208E+00       0.034     3363.523
     NS sqrt iter    4 1.00000000   0.278E-01       0.034     3362.128
     NS sqrt iter    5 1.00000000   0.146E-03       0.033     3384.216
     NS sqrt iter    6 1.00000000   0.542E-10       0.023     2392.210
     Symmetrizing Results
     Final NS sqrt iter    6 1.00000000   0.204E-11

     Est. extremal eigenvalues     -0.83042     2.59057  converged:  T
     TRS4 it   1 1.00000000   0.284E+02       0.007     2145.651   0.100E-11
     TRS4 it   2 1.00000000   0.235E+02       0.013     2223.402   0.100E-11
     TRS4 it   3 1.00000000   0.156E+02       0.013     2211.328   0.100E-11
     TRS4 it   4 1.00000000   0.914E+01       0.013     2198.175   0.100E-11
     TRS4 it   5 1.00000000   0.387E+01       0.013     2221.810   0.100E-11
     TRS4 it   6 1.00000000   0.998E+00       0.013     2210.861   0.100E-11
     TRS4 it   7 1.00000000   0.121E+00       0.013     2212.617   0.100E-11
     TRS4 it   8 1.00000000   0.269E-02       0.013     2224.898   0.100E-11
     TRS4 it   9 1.00000000   0.171E-05       0.013     2235.133   0.100E-11
     TRS4 it  10 1.00000000   0.138E-11       0.013     2234.641   0.100E-11
     Final TRS4 iteration   10 1.00000000   0.138E-11
     Chemical potential (mu):       0.04923
 
 PAO| energy:  -189.88499269909624      penalty:   6.8663399132358385E-004
 PAO|LS| adapt:  T F T
 PAO|LS| adapt: scan_steps:    0.0000000000000000        0.0000000000000000       0.56692145708362973     
 PAO|LS| adapt: energies:   -190.81256818554806        0.0000000000000000       -189.88499269909624     
 PAO| ======================= Iteration:         8 =============================

     Lanczos converged:  F threshold:   0.100E-02
     Est. extremal eigenvalues:    0.498E+01   0.129E+00
     Est. condition number :    0.386E+02

 Order=           3
     NS sqrt iter    1 1.00000000   0.127E+01       0.021     2675.863
     NS sqrt iter    2 1.00000000   0.655E+00       0.034     3372.893
     NS sqrt iter    3 1.00000000   0.217E+00       0.033     3385.370
     NS sqrt iter    4 1.00000000   0.310E-01       0.033     3394.387
     NS sqrt iter    5 1.00000000   0.196E-03       0.034     3375.121
     NS sqrt iter    6 1.00000000   0.130E-09       0.026     2571.901
     Symmetrizing Results
     Final NS sqrt iter    6 1.00000000   0.125E-11

     Est. extremal eigenvalues     -0.83166     2.59887  converged:  T
     TRS4 it   1 1.00000000   0.284E+02       0.007     2111.887   0.100E-11
     TRS4 it   2 1.00000000   0.235E+02       0.013     2214.029   0.100E-11
     TRS4 it   3 1.00000000   0.155E+02       0.013     2244.240   0.100E-11
     TRS4 it   4 1.00000000   0.905E+01       0.013     2207.727   0.100E-11
     TRS4 it   5 1.00000000   0.380E+01       0.013     2201.206   0.100E-11
     TRS4 it   6 1.00000000   0.979E+00       0.013     2208.145   0.100E-11
     TRS4 it   7 1.00000000   0.120E+00       0.013     2198.589   0.100E-11
     TRS4 it   8 1.00000000   0.268E-02       0.013     2213.963   0.100E-11
     TRS4 it   9 1.00000000   0.164E-05       0.013     2222.824   0.100E-11
     TRS4 it  10 1.00000000   0.118E-11       0.013     2226.305   0.100E-11
     Final TRS4 iteration   10 1.00000000   0.118E-11
     Chemical potential (mu):       0.04731
 
 PAO| energy:  -191.18897602143190      penalty:   5.1636399741044302E-004
 PAO|LS| adapt:  T T T
 PAO|LS| adapt: scan_steps:    0.0000000000000000       0.28346072854181487       0.56692145708362973     
 PAO|LS| adapt: energies:   -190.81256818554806       -191.18897602143190       -189.88499269909624     
 PAO|LS| adapt: suggested step_size:   0.20522560397541448     
 PAO|LS| adapt: predicted energy  -191.25297870012801     
 PAO| ======================= Iteration:         9 =============================

     Lanczos converged:  F threshold:   0.100E-02
     Est. extremal eigenvalues:    0.500E+01   0.127E+00
     Est. condition number :    0.393E+02

 Order=           3
     NS sqrt iter    1 1.00000000   0.128E+01       0.021     2697.555
     NS sqrt iter    2 1.00000000   0.658E+00       0.033     3389.993
     NS sqrt iter    3 1.00000000   0.219E+00       0.034     3370.660
     NS sqrt iter    4 1.00000000   0.319E-01       0.033     3382.949
     NS sqrt iter    5 1.00000000   0.213E-03       0.034     3365.813
     NS sqrt iter    6 1.00000000   0.163E-09       0.027     2603.814
     Symmetrizing Results
     Final NS sqrt iter    6 1.00000000   0.986E-12

     Est. extremal eigenvalues     -0.83153     2.60099  converged:  T
     TRS4 it   1 1.00000000   0.284E+02       0.007     2111.405   0.100E-11
     TRS4 it   2 1.00000000   0.235E+02       0.013     2229.140   0.100E-11
     TRS4 it   3 1.00000000   0.155E+02       0.013     2217.230   0.100E-11
     TRS4 it   4 1.00000000   0.904E+01       0.013     2205.935   0.100E-11
     TRS4 it   5 1.00000000   0.379E+01       0.013     2212.478   0.100E-11
     TRS4 it   6 1.00000000   0.977E+00       0.013     2210.150   0.100E-11
     TRS4 it   7 1.00000000   0.120E+00       0.013     2195.429   0.100E-11
     TRS4 it   8 1.00000000   0.268E-02       0.013     2203.979   0.100E-11
     TRS4 it   9 1.00000000   0.162E-05       0.013     2221.207   0.100E-11
     TRS4 it  10 1.00000000   0.108E-11       0.013     2191.359   0.100E-11
     Final TRS4 iteration   10 1.00000000   0.108E-11
     Chemical potential (mu):       0.04717
 
 PAO| energy:  -191.25736287467450      penalty:   4.9868289964954623E-004
 PAO|CG| trace_G_new   0.73031871849800445     
 PAO|CG| trace_G_prev    4.3887882381179102     
 PAO|CG| trace_G_mix   -4.2648032833430133E-002
 PAO|CG| trace_D    4.3887882381179102     
 PAO|CG| trace_D_Gnew   4.2648032833430133E-002
 PAO|CG| beta:   0.17612304567761827     
 PAO| norm of gradient:  0.85458687007114986     
 PAO| energy improvement: -0.44479468912643938     
 PAO| step      9                 -191.257362875  0.167E-02  0.205E+00     1.571
 PAO|LS| adapt:  T F F
 PAO|LS| adapt: scan_steps:    0.0000000000000000        0.0000000000000000        0.0000000000000000     
 PAO|LS| adapt: energies:   -191.25736287467450        0.0000000000000000        0.0000000000000000     
 PAO| ======================= Iteration:        10 =============================

     Lanczos converged:  F threshold:   0.100E-02
     Est. extremal eigenvalues:    0.495E+01   0.130E+00
     Est. condition number :    0.381E+02

 Order=           3
     NS sqrt iter    1 1.00000000   0.127E+01       0.021     2698.180
     NS sqrt iter    2 1.00000000   0.650E+00       0.033     3394.099
     NS sqrt iter    3 1.00000000   0.214E+00       0.034     3379.491
     NS sqrt iter    4 1.00000000   0.296E-01       0.034     3362.926
     NS sqrt iter    5 1.00000000   0.171E-03       0.034     3344.703
     NS sqrt iter    6 1.00000000   0.834E-10       0.025     2463.599
     Symmetrizing Results
     Final NS sqrt iter    6 1.00000000   0.181E-11

     Est. extremal eigenvalues     -0.83216     2.58462  converged:  T
     TRS4 it   1 1.00000000   0.284E+02       0.007     2166.031   0.100E-11
     TRS4 it   2 1.00000000   0.234E+02       0.013     2211.759   0.100E-11
     TRS4 it   3 1.00000000   0.155E+02       0.013     2200.665   0.100E-11
     TRS4 it   4 1.00000000   0.902E+01       0.013     2232.944   0.100E-11
     TRS4 it   5 1.00000000   0.376E+01       0.013     2218.053   0.100E-11
     TRS4 it   6 1.00000000   0.964E+00       0.013     2207.320   0.100E-11
     TRS4 it   7 1.00000000   0.116E+00       0.013     2212.098   0.100E-11
     TRS4 it   8 1.00000000   0.253E-02       0.013     2217.600   0.100E-11
     TRS4 it   9 1.00000000   0.147E-05       0.013     2215.542   0.100E-11
     TRS4 it  10 1.00000000   0.924E-12       0.013     2208.915   0.100E-11
     Final TRS4 iteration   10 1.00000000   0.924E-12
     Chemical potential (mu):       0.04795
 
 PAO| energy:  -191.35807593310557      penalty:   5.0115729938379273E-004
 PAO|LS| adapt:  T T F
 PAO|LS| adapt: scan_steps:    0.0000000000000000       0.20522560397541448        0.0000000000000000     
 PAO|LS| adapt: energies:   -191.25736287467450       -191.35807593310557        0.0000000000000000     
 PAO| ======================= Iteration:        11 =============================

     Lanczos converged:  F threshold:   0.100E-02
     Est. extremal eigenvalues:    0.490E+01   0.133E+00
     Est. condition number :    0.369E+02

 Order=           3
     NS sqrt iter    1 1.00000000   0.126E+01       0.021     2697.577
     NS sqrt iter    2 1.00000000   0.642E+00       0.034     3377.140
     NS sqrt iter    3 1.00000000   0.208E+00       0.034     3370.142
     NS sqrt iter    4 1.00000000   0.275E-01       0.034     3367.265
     NS sqrt iter    5 1.00000000   0.137E-03       0.033     3385.094
     NS sqrt iter    6 1.00000000   0.422E-10       0.021     2324.793
     Symmetrizing Results
     Final NS sqrt iter    6 1.00000000   0.222E-11

     Est. extremal eigenvalues     -0.83221     2.56792  converged:  T
     TRS4 it   1 1.00000000   0.283E+02       0.007     2137.292   0.100E-11
     TRS4 it   2 1.00000000   0.233E+02       0.013     2232.993   0.100E-11
     TRS4 it   3 1.00000000   0.155E+02       0.013     2212.968   0.100E-11
     TRS4 it   4 1.00000000   0.899E+01       0.013     2209.717   0.100E-11
     TRS4 it   5 1.00000000   0.374E+01       0.013     2239.579   0.100E-11
     TRS4 it   6 1.00000000   0.948E+00       0.013     2219.646   0.100E-11
     TRS4 it   7 1.00000000   0.113E+00       0.013     2205.818   0.100E-11
     TRS4 it   8 1.00000000   0.237E-02       0.013     2189.464   0.100E-11
     TRS4 it   9 1.00000000   0.129E-05       0.013     2222.758   0.100E-11
     TRS4 it  10 1.00000000   0.734E-12       0.013     2221.661   0.100E-11
     Final TRS4 iteration   10 1.00000000   0.734E-12
     Chemical potential (mu):       0.04880
 
 PAO| energy:  -191.36615846593008      penalty:   5.1352289171267222E-004
 PAO|LS| adapt:  T T F
 PAO|LS| adapt: scan_steps:    0.0000000000000000       0.41045120795082896        0.0000000000000000     
 PAO|LS| adapt: energies:   -191.25736287467450       -191.36615846593008        0.0000000000000000     
 PAO| ======================= Iteration:        12 =============================

     Lanczos converged:  F threshold:   0.100E-02
     Est. extremal eigenvalues:    0.480E+01   0.140E+00
     Est. condition number :    0.342E+02

 Order=           3
     NS sqrt iter    1 1.00000000   0.124E+01       0.021     2698.462
     NS sqrt iter    2 1.00000000   0.626E+00       0.034     3370.484
     NS sqrt iter    3 1.00000000   0.198E+00       0.034     3362.102
     NS sqrt iter    4 1.00000000   0.237E-01       0.033     3385.302
     NS sqrt iter    5 1.00000000   0.871E-04       0.034     3371.948
     NS sqrt iter    6 1.00000000   0.104E-10       0.015     2141.035
     Symmetrizing Results
     Final NS sqrt iter    6 1.00000000   0.168E-11

     Est. extremal eigenvalues     -0.83082     2.53428  converged:  T
     TRS4 it   1 1.00000000   0.282E+02       0.007     2125.775   0.100E-11
     TRS4 it   2 1.00000000   0.231E+02       0.013     2240.903   0.100E-11
     TRS4 it   3 1.00000000   0.154E+02       0.013     2203.065   0.100E-11
     TRS4 it   4 1.00000000   0.891E+01       0.013     2204.956   0.100E-11
     TRS4 it   5 1.00000000   0.366E+01       0.013     2227.320   0.100E-11
     TRS4 it   6 1.00000000   0.911E+00       0.013     2197.799   0.100E-11
     TRS4 it   7 1.00000000   0.104E+00       0.013     2212.347   0.100E-11
     TRS4 it   8 1.00000000   0.201E-02       0.013     2204.946   0.100E-11
     TRS4 it   9 1.00000000   0.952E-06       0.013     2220.810   0.100E-11
     TRS4 it  10 1.00000000   0.419E-12       0.013     2193.019   0.100E-11
     Final TRS4 iteration   10 1.00000000   0.419E-12
     Chemical potential (mu):       0.05070
 
 PAO| energy:  -191.12091700952485      penalty:   5.7500327730165737E-004
 PAO|LS| Need extra step
 PAO|LS| adapt:  T T T
 PAO|LS| adapt: scan_steps:    0.0000000000000000       0.41045120795082896       0.82090241590165791     
 PAO|LS| adapt: energies:   -191.25736287467450       -191.36615846593008       -191.12091700952485     
 PAO|LS| adapt: suggested step_size:   0.33135726772536334     
 PAO|LS| adapt: predicted energy  -191.37273174485648     
 PAO| ======================= Iteration:        13 =============================

     Lanczos converged:  F threshold:   0.100E-02
     Est. extremal eigenvalues:    0.492E+01   0.132E+00
     Est. condition number :    0.374E+02

 Order=           3
     NS sqrt iter    1 1.00000000   0.126E+01       0.021     2708.775
     NS sqrt iter    2 1.00000000   0.645E+00       0.034     3323.760
     NS sqrt iter    3 1.00000000   0.210E+00       0.034     3375.957
     NS sqrt iter    4 1.00000000   0.283E-01       0.033     3391.181
     NS sqrt iter    5 1.00000000   0.149E-03       0.033     3393.469
     NS sqrt iter    6 1.00000000   0.549E-10       0.023     2374.985
     Symmetrizing Results
     Final NS sqrt iter    6 1.00000000   0.211E-11

     Est. extremal eigenvalues     -0.83226     2.57439  converged:  T
     TRS4 it   1 1.00000000   0.283E+02       0.007     2135.589   0.100E-11
     TRS4 it   2 1.00000000   0.234E+02       0.013     2207.236   0.100E-11
     TRS4 it   3 1.00000000   0.155E+02       0.013     2221.420   0.100E-11
     TRS4 it   4 1.00000000   0.900E+01       0.013     2185.667   0.100E-11
     TRS4 it   5 1.00000000   0.375E+01       0.013     2202.646   0.100E-11
     TRS4 it   6 1.00000000   0.955E+00       0.013     2212.342   0.100E-11
     TRS4 it   7 1.00000000   0.114E+00       0.013     2217.700   0.100E-11
     TRS4 it   8 1.00000000   0.243E-02       0.013     2220.390   0.100E-11
     TRS4 it   9 1.00000000   0.136E-05       0.013     2213.404   0.100E-11
     TRS4 it  10 1.00000000   0.778E-12       0.013     2215.116   0.100E-11
     Final TRS4 iteration   10 1.00000000   0.778E-12
     Chemical potential (mu):       0.04847
 
 PAO| energy:  -191.37375739354192      penalty:   5.0750441395669128E-004
 PAO|CG| trace_G_new   0.27494603568051912     
 PAO|CG| trace_G_prev   0.73031871849800445     
 PAO|CG| trace_G_mix   -1.1984847385633105E-002
 PAO|CG| trace_D   0.85143337408046549     
 PAO|CG| trace_D_Gnew   1.1922475255181536E-002
 PAO|CG| beta:   0.39288447057233167     
 PAO| norm of gradient:  0.52435296860084535     
 PAO| energy improvement: -0.11639451886742336     
 PAO| step     13                 -191.373757394  0.102E-02  0.331E+00     2.052
 PAO|LS| adapt:  T F F
 PAO|LS| adapt: scan_steps:    0.0000000000000000        0.0000000000000000        0.0000000000000000     
 PAO|LS| adapt: energies:   -191.37375739354192        0.0000000000000000        0.0000000000000000     
 PAO| ======================= Iteration:        14 =============================

     Lanczos converged:  F threshold:   0.100E-02
     Est. extremal eigenvalues:    0.485E+01   0.134E+00
     Est. condition number :    0.362E+02

 Order=           3
     NS sqrt iter    1 1.00000000   0.125E+01       0.021     2667.512
     NS sqrt iter    2 1.00000000   0.634E+00       0.033     3386.448
     NS sqrt iter    3 1.00000000   0.204E+00       0.034     3360.568
     NS sqrt iter    4 1.00000000   0.262E-01       0.034     3372.246
     NS sqrt iter    5 1.00000000   0.120E-03       0.034     3367.380
     NS sqrt iter    6 1.00000000   0.288E-10       0.019     2240.285
     Symmetrizing Results
     Final NS sqrt iter    6 1.00000000   0.219E-11

     Est. extremal eigenvalues     -0.83283     2.56925  converged:  T
     TRS4 it   1 1.00000000   0.284E+02       0.007     2163.548   0.100E-11
     TRS4 it   2 1.00000000   0.233E+02       0.013     2214.545   0.100E-11
     TRS4 it   3 1.00000000   0.154E+02       0.013     2211.237   0.100E-11
     TRS4 it   4 1.00000000   0.895E+01       0.013     2212.342   0.100E-11
     TRS4 it   5 1.00000000   0.369E+01       0.013     2215.095   0.100E-11
     TRS4 it   6 1.00000000   0.926E+00       0.013     2205.542   0.100E-11
     TRS4 it   7 1.00000000   0.107E+00       0.013     2215.628   0.100E-11
     TRS4 it   8 1.00000000   0.215E-02       0.013     2205.942   0.100E-11
     TRS4 it   9 1.00000000   0.107E-05       0.013     2198.621   0.100E-11
     TRS4 it  10 1.00000000   0.487E-12       0.013     2221.670   0.100E-11
     Final TRS4 iteration   10 1.00000000   0.487E-12
     Chemical potential (mu):       0.05028
 
 PAO| energy:  -191.42574081212504      penalty:   5.0946501541568540E-004
 PAO|LS| adapt:  T T F
 PAO|LS| adapt: scan_steps:    0.0000000000000000       0.33135726772536334        0.0000000000000000     
 PAO|LS| adapt: energies:   -191.37375739354192       -191.42574081212504        0.0000000000000000     
 PAO| ======================= Iteration:        15 =============================

     Lanczos converged:  F threshold:   0.100E-02
     Est. extremal eigenvalues:    0.478E+01   0.137E+00
     Est. condition number :    0.350E+02

 Order=           3
     NS sqrt iter    1 1.00000000   0.123E+01       0.021     2705.164
     NS sqrt iter    2 1.00000000   0.624E+00       0.034     3374.262
     NS sqrt iter    3 1.00000000   0.198E+00       0.034     3369.064
     NS sqrt iter    4 1.00000000   0.242E-01       0.034     3358.132
     NS sqrt iter    5 1.00000000   0.966E-04       0.033     3384.797
     NS sqrt iter    6 1.00000000   0.151E-10       0.017     2159.741
     Symmetrizing Results
     Final NS sqrt iter    6 1.00000000   0.197E-11

     Est. extremal eigenvalues     -0.83291     2.56343  converged:  T
     TRS4 it   1 1.00000000   0.284E+02       0.007     2178.500   0.100E-11
     TRS4 it   2 1.00000000   0.233E+02       0.013     2209.978   0.100E-11
     TRS4 it   3 1.00000000   0.154E+02       0.013     2202.208   0.100E-11
     TRS4 it   4 1.00000000   0.889E+01       0.013     2199.350   0.100E-11
     TRS4 it   5 1.00000000   0.364E+01       0.013     2221.316   0.100E-11
     TRS4 it   6 1.00000000   0.897E+00       0.013     2225.323   0.100E-11
     TRS4 it   7 1.00000000   0.101E+00       0.013     2199.427   0.100E-11
     TRS4 it   8 1.00000000   0.190E-02       0.013     2201.765   0.100E-11
     TRS4 it   9 1.00000000   0.841E-06       0.013     2201.148   0.100E-11
     TRS4 it  10 1.00000000   0.279E-12       0.013     2222.055   0.100E-11
     Final TRS4 iteration   10 1.00000000   0.279E-12
     Chemical potential (mu):       0.05201
 
 PAO| energy:  -191.40377478999062      penalty:   5.2649677088129185E-004
 PAO|LS| adapt:  T T T
 PAO|LS| adapt: scan_steps:    0.0000000000000000       0.33135726772536334       0.66271453545072667     
 PAO|LS| adapt: energies:   -191.37375739354192       -191.42574081212504       -191.40377478999062     
 PAO|LS| adapt: suggested step_size:   0.39860917913238525     
 PAO|LS| adapt: predicted energy  -191.42726388667575     
 PAO| ======================= Iteration:        16 =============================

     Lanczos converged:  F threshold:   0.100E-02
     Est. extremal eigenvalues:    0.484E+01   0.135E+00
     Est. condition number :    0.359E+02

 Order=           3
     NS sqrt iter    1 1.00000000   0.124E+01       0.021     2714.178
     NS sqrt iter    2 1.00000000   0.632E+00       0.034     3369.781
     NS sqrt iter    3 1.00000000   0.203E+00       0.034     3363.081
     NS sqrt iter    4 1.00000000   0.258E-01       0.034     3326.610
     NS sqrt iter    5 1.00000000   0.114E-03       0.034     3369.097
     NS sqrt iter    6 1.00000000   0.252E-10       0.019     2214.037
     Symmetrizing Results
     Final NS sqrt iter    6 1.00000000   0.214E-11

     Est. extremal eigenvalues     -0.83289     2.56812  converged:  T
     TRS4 it   1 1.00000000   0.284E+02       0.007     2118.881   0.100E-11
     TRS4 it   2 1.00000000   0.233E+02       0.013     2242.515   0.100E-11
     TRS4 it   3 1.00000000   0.154E+02       0.013     2214.456   0.100E-11
     TRS4 it   4 1.00000000   0.893E+01       0.013     2185.983   0.100E-11
     TRS4 it   5 1.00000000   0.368E+01       0.013     2192.233   0.100E-11
     TRS4 it   6 1.00000000   0.920E+00       0.013     2208.812   0.100E-11
     TRS4 it   7 1.00000000   0.106E+00       0.013     2219.523   0.100E-11
     TRS4 it   8 1.00000000   0.210E-02       0.013     2218.248   0.100E-11
     TRS4 it   9 1.00000000   0.102E-05       0.013     2202.819   0.100E-11
     TRS4 it  10 1.00000000   0.433E-12       0.013     2247.559   0.100E-11
     Final TRS4 iteration   10 1.00000000   0.433E-12
     Chemical potential (mu):       0.05064
 
 PAO| energy:  -191.42720509080991      penalty:   5.1165381054189211E-004
 PAO|CG| trace_G_new   0.10356785914092606     
 PAO|CG| trace_G_prev   0.27494603568051912     
 PAO|CG| trace_G_mix    4.4089745276921395E-003
 PAO|CG| trace_D   0.39700345411112958     
 PAO|CG| trace_D_Gnew   8.0133951268859414E-004
 PAO|CG| beta:   0.36064853369427824     
 PAO| norm of gradient:  0.32181960652037045     
 PAO| energy improvement:  -5.3447697267984040E-002
 PAO| step     16                 -191.427205091  0.629E-03  0.399E+00     1.572
 PAO|LS| adapt:  T F F
 PAO|LS| adapt: scan_steps:    0.0000000000000000        0.0000000000000000        0.0000000000000000     
 PAO|LS| adapt: energies:   -191.42720509080991        0.0000000000000000        0.0000000000000000     
 PAO| ======================= Iteration:        17 =============================

     Lanczos converged:  F threshold:   0.100E-02
     Est. extremal eigenvalues:    0.480E+01   0.135E+00
     Est. condition number :    0.354E+02

 Order=           3
     NS sqrt iter    1 1.00000000   0.124E+01       0.021     2704.307
     NS sqrt iter    2 1.00000000   0.627E+00       0.033     3387.490
     NS sqrt iter    3 1.00000000   0.200E+00       0.034     3380.071
     NS sqrt iter    4 1.00000000   0.250E-01       0.034     3378.139
     NS sqrt iter    5 1.00000000   0.105E-03       0.034     3377.915
     NS sqrt iter    6 1.00000000   0.194E-10       0.018     2172.560
     Symmetrizing Results
     Final NS sqrt iter    6 1.00000000   0.208E-11

     Est. extremal eigenvalues     -0.83296     2.56615  converged:  T
     TRS4 it   1 1.00000000   0.284E+02       0.007     2137.915   0.100E-11
     TRS4 it   2 1.00000000   0.233E+02       0.013     2203.689   0.100E-11
     TRS4 it   3 1.00000000   0.154E+02       0.013     2210.339   0.100E-11
     TRS4 it   4 1.00000000   0.889E+01       0.013     2213.441   0.100E-11
     TRS4 it   5 1.00000000   0.364E+01       0.013     2198.008   0.100E-11
     TRS4 it   6 1.00000000   0.900E+00       0.013     2224.034   0.100E-11
     TRS4 it   7 1.00000000   0.102E+00       0.013     2206.014   0.100E-11
     TRS4 it   8 1.00000000   0.194E-02       0.013     2188.058   0.100E-11
     TRS4 it   9 1.00000000   0.872E-06       0.013     2215.414   0.100E-11
     TRS4 it  10 1.00000000   0.330E-12       0.013     2219.417   0.100E-11
     Final TRS4 iteration   10 1.00000000   0.330E-12
     Chemical potential (mu):       0.05172
 
 PAO| energy:  -191.43065640064299      penalty:   5.0409112201303501E-004
 PAO|LS| adapt:  T T F
 PAO|LS| adapt: scan_steps:    0.0000000000000000       0.39860917913238525        0.0000000000000000     
 PAO|LS| adapt: energies:   -191.42720509080991       -191.43065640064299        0.0000000000000000     
 PAO| ======================= Iteration:        18 =============================

     Lanczos converged:  F threshold:   0.100E-02
     Est. extremal eigenvalues:    0.476E+01   0.136E+00
     Est. condition number :    0.350E+02

 Order=           3
     NS sqrt iter    1 1.00000000   0.123E+01       0.021     2693.570
     NS sqrt iter    2 1.00000000   0.623E+00       0.034     3367.166
     NS sqrt iter    3 1.00000000   0.198E+00       0.033     3381.782
     NS sqrt iter    4 1.00000000   0.242E-01       0.034     3355.127
     NS sqrt iter    5 1.00000000   0.961E-04       0.034     3375.140
     NS sqrt iter    6 1.00000000   0.149E-10       0.017     2146.745
     Symmetrizing Results
     Final NS sqrt iter    6 1.00000000   0.196E-11

     Est. extremal eigenvalues     -0.83288     2.56397  converged:  T
     TRS4 it   1 1.00000000   0.284E+02       0.007     2139.377   0.100E-11
     TRS4 it   2 1.00000000   0.233E+02       0.013     2212.012   0.100E-11
     TRS4 it   3 1.00000000   0.154E+02       0.013     2209.213   0.100E-11
     TRS4 it   4 1.00000000   0.884E+01       0.013     2219.395   0.100E-11
     TRS4 it   5 1.00000000   0.360E+01       0.013     2210.083   0.100E-11
     TRS4 it   6 1.00000000   0.882E+00       0.013     2215.000   0.100E-11
     TRS4 it   7 1.00000000   0.980E-01       0.013     2207.049   0.100E-11
     TRS4 it   8 1.00000000   0.179E-02       0.013     2189.524   0.100E-11
     TRS4 it   9 1.00000000   0.748E-06       0.013     2247.511   0.100E-11
     TRS4 it  10 1.00000000   0.247E-12       0.013     2226.326   0.100E-11
     Final TRS4 iteration   10 1.00000000   0.247E-12
     Chemical potential (mu):       0.05285
 
 PAO| energy:  -191.35847874357742      penalty:   5.0418967802648418E-004
 PAO|LS| adapt:  T T T
 PAO|LS| adapt: scan_steps:    0.0000000000000000       0.39860917913238525       0.79721835826477050     
 PAO|LS| adapt: energies:   -191.42720509080991       -191.43065640064299       -191.35847874357742     
 PAO|LS| adapt: suggested step_size:   0.21749502420930966     
 PAO|LS| adapt: predicted energy  -191.43846311643856     
 PAO| ======================= Iteration:        19 =============================

     Lanczos converged:  F threshold:   0.100E-02
     Est. extremal eigenvalues:    0.482E+01   0.135E+00
     Est. condition number :    0.357E+02

 Order=           3
     NS sqrt iter    1 1.00000000   0.124E+01       0.021     2720.268
     NS sqrt iter    2 1.00000000   0.629E+00       0.034     3365.748
     NS sqrt iter    3 1.00000000   0.201E+00       0.034     3375.510
     NS sqrt iter    4 1.00000000   0.253E-01       0.034     3358.089
     NS sqrt iter    5 1.00000000   0.109E-03       0.033     3393.929
     NS sqrt iter    6 1.00000000   0.218E-10       0.018     2203.717
     Symmetrizing Results
     Final NS sqrt iter    6 1.00000000   0.211E-11

     Est. extremal eigenvalues     -0.83295     2.56707  converged:  T
     TRS4 it   1 1.00000000   0.284E+02       0.007     2154.253   0.100E-11
     TRS4 it   2 1.00000000   0.233E+02       0.013     2233.000   0.100E-11
     TRS4 it   3 1.00000000   0.154E+02       0.013     2207.970   0.100E-11
     TRS4 it   4 1.00000000   0.891E+01       0.013     2212.841   0.100E-11
     TRS4 it   5 1.00000000   0.366E+01       0.013     2201.107   0.100E-11
     TRS4 it   6 1.00000000   0.909E+00       0.013     2215.783   0.100E-11
     TRS4 it   7 1.00000000   0.104E+00       0.013     2222.912   0.100E-11
     TRS4 it   8 1.00000000   0.201E-02       0.013     2218.762   0.100E-11
     TRS4 it   9 1.00000000   0.936E-06       0.013     2229.627   0.100E-11
     TRS4 it  10 1.00000000   0.382E-12       0.013     2225.018   0.100E-11
     Final TRS4 iteration   10 1.00000000   0.382E-12
     Chemical potential (mu):       0.05123
 
 PAO| energy:  -191.43844709118872      penalty:   5.0659316069192868E-004
 PAO|CG| trace_G_new    2.0740669281739624E-002
 PAO|CG| trace_G_prev   0.10356785914092606     
 PAO|CG| trace_G_mix   -3.1386141021592494E-004
 PAO|CG| trace_D   0.15462704841533942     
 PAO|CG| trace_D_Gnew  -4.9923577057985383E-005
 PAO|CG| beta:   0.20329213007392952     
 PAO| norm of gradient:  0.14401621187123215     
 PAO| energy improvement:  -1.1242000378814510E-002
 PAO| step     19                 -191.438447091  0.281E-03  0.217E+00     1.568
 PAO|LS| adapt:  T F F
 PAO|LS| adapt: scan_steps:    0.0000000000000000        0.0000000000000000        0.0000000000000000     
 PAO|LS| adapt: energies:   -191.43844709118872        0.0000000000000000        0.0000000000000000     
 PAO| ======================= Iteration:        20 =============================

     Lanczos converged:  F threshold:   0.100E-02
     Est. extremal eigenvalues:    0.481E+01   0.135E+00
     Est. condition number :    0.356E+02

 Order=           3
     NS sqrt iter    1 1.00000000   0.124E+01       0.021     2715.289
     NS sqrt iter    2 1.00000000   0.629E+00       0.033     3386.951
     NS sqrt iter    3 1.00000000   0.201E+00       0.033     3397.645
     NS sqrt iter    4 1.00000000   0.253E-01       0.033     3388.730
     NS sqrt iter    5 1.00000000   0.109E-03       0.033     3388.840
     NS sqrt iter    6 1.00000000   0.216E-10       0.018     2204.573
     Symmetrizing Results
     Final NS sqrt iter    6 1.00000000   0.211E-11

     Est. extremal eigenvalues     -0.83296     2.56580  converged:  T
     TRS4 it   1 1.00000000   0.284E+02       0.007     2148.081   0.100E-11
     TRS4 it   2 1.00000000   0.233E+02       0.013     2238.902   0.100E-11
     TRS4 it   3 1.00000000   0.154E+02       0.013     2221.736   0.100E-11
     TRS4 it   4 1.00000000   0.890E+01       0.013     2238.381   0.100E-11
     TRS4 it   5 1.00000000   0.365E+01       0.013     2217.664   0.100E-11
     TRS4 it   6 1.00000000   0.905E+00       0.013     2236.747   0.100E-11
     TRS4 it   7 1.00000000   0.103E+00       0.013     2206.125   0.100E-11
     TRS4 it   8 1.00000000   0.198E-02       0.013     2225.507   0.100E-11
     TRS4 it   9 1.00000000   0.910E-06       0.013     2217.271   0.100E-11
     TRS4 it  10 1.00000000   0.369E-12       0.013     2211.041   0.100E-11
     Final TRS4 iteration   10 1.00000000   0.369E-12
     Chemical potential (mu):       0.05140
 
 PAO| energy:  -191.44209561699998      penalty:   4.9699355427218288E-004
 PAO|LS| adapt:  T T F
 PAO|LS| adapt: scan_steps:    0.0000000000000000       0.21749502420930966        0.0000000000000000     
 PAO|LS| adapt: energies:   -191.43844709118872       -191.44209561699998        0.0000000000000000     
 PAO| ======================= Iteration:        21 =============================

     Lanczos converged:  F threshold:   0.100E-02
     Est. extremal eigenvalues:    0.481E+01   0.135E+00
     Est. condition number :    0.356E+02

 Order=           3
     NS sqrt iter    1 1.00000000   0.124E+01       0.021     2724.629
     NS sqrt iter    2 1.00000000   0.629E+00       0.034     3367.178
     NS sqrt iter    3 1.00000000   0.201E+00       0.034     3374.143
     NS sqrt iter    4 1.00000000   0.253E-01       0.033     3394.979
     NS sqrt iter    5 1.00000000   0.109E-03       0.034     3380.000
     NS sqrt iter    6 1.00000000   0.214E-10       0.018     2208.531
     Symmetrizing Results
     Final NS sqrt iter    6 1.00000000   0.210E-11

     Est. extremal eigenvalues     -0.83297     2.56451  converged:  T
     TRS4 it   1 1.00000000   0.284E+02       0.007     2141.795   0.100E-11
     TRS4 it   2 1.00000000   0.233E+02       0.013     2221.671   0.100E-11
     TRS4 it   3 1.00000000   0.154E+02       0.013     2209.270   0.100E-11
     TRS4 it   4 1.00000000   0.889E+01       0.013     2213.667   0.100E-11
     TRS4 it   5 1.00000000   0.364E+01       0.013     2208.899   0.100E-11
     TRS4 it   6 1.00000000   0.901E+00       0.013     2227.910   0.100E-11
     TRS4 it   7 1.00000000   0.102E+00       0.013     2226.218   0.100E-11
     TRS4 it   8 1.00000000   0.195E-02       0.013     2224.125   0.100E-11
     TRS4 it   9 1.00000000   0.884E-06       0.013     2203.474   0.100E-11
     TRS4 it  10 1.00000000   0.300E-12       0.013     2237.106   0.100E-11
     Final TRS4 iteration   10 1.00000000   0.300E-12
     Chemical potential (mu):       0.05158
 
 PAO| energy:  -191.44400245746320      penalty:   4.8779822031991499E-004
 PAO|LS| adapt:  T T F
 PAO|LS| adapt: scan_steps:    0.0000000000000000       0.43499004841861932        0.0000000000000000     
 PAO|LS| adapt: energies:   -191.43844709118872       -191.44400245746320        0.0000000000000000     
 PAO| ======================= Iteration:        22 =============================

     Lanczos converged:  F threshold:   0.100E-02
     Est. extremal eigenvalues:    0.480E+01   0.135E+00
     Est. condition number :    0.356E+02

 Order=           3
     NS sqrt iter    1 1.00000000   0.124E+01       0.021     2713.719
     NS sqrt iter    2 1.00000000   0.628E+00       0.034     3366.412
     NS sqrt iter    3 1.00000000   0.201E+00       0.034     3361.872
     NS sqrt iter    4 1.00000000   0.253E-01       0.034     3369.120
     NS sqrt iter    5 1.00000000   0.108E-03       0.034     3375.907
     NS sqrt iter    6 1.00000000   0.211E-10       0.018     2210.498
     Symmetrizing Results
     Final NS sqrt iter    6 1.00000000   0.209E-11

     Est. extremal eigenvalues     -0.83297     2.56187  converged:  T
     TRS4 it   1 1.00000000   0.284E+02       0.007     2115.932   0.100E-11
     TRS4 it   2 1.00000000   0.233E+02       0.013     2211.682   0.100E-11
     TRS4 it   3 1.00000000   0.154E+02       0.013     2225.147   0.100E-11
     TRS4 it   4 1.00000000   0.886E+01       0.013     2230.059   0.100E-11
     TRS4 it   5 1.00000000   0.362E+01       0.013     2198.716   0.100E-11
     TRS4 it   6 1.00000000   0.893E+00       0.013     2221.649   0.100E-11
     TRS4 it   7 1.00000000   0.101E+00       0.013     2229.547   0.100E-11
     TRS4 it   8 1.00000000   0.189E-02       0.013     2193.774   0.100E-11
     TRS4 it   9 1.00000000   0.836E-06       0.013     2211.352   0.100E-11
     TRS4 it  10 1.00000000   0.302E-12       0.013     2214.866   0.100E-11
     Final TRS4 iteration   10 1.00000000   0.302E-12
     Chemical potential (mu):       0.05193
 
 PAO| energy:  -191.44251654879059      penalty:   4.7059499115441398E-004
 PAO|LS| Need extra step
 PAO|LS| adapt:  T T T
 PAO|LS| adapt: scan_steps:    0.0000000000000000       0.43499004841861932       0.86998009683723865     
 PAO|LS| adapt: energies:   -191.43844709118872       -191.44400245746320       -191.44251654879059     
 PAO|LS| adapt: suggested step_size:   0.56068983805748551     
 PAO|LS| adapt: predicted energy  -191.44429644692707     
 PAO| ======================= Iteration:        23 =============================

     Lanczos converged:  F threshold:   0.100E-02
     Est. extremal eigenvalues:    0.481E+01   0.135E+00
     Est. condition number :    0.356E+02

 Order=           3
     NS sqrt iter    1 1.00000000   0.124E+01       0.021     2691.461
     NS sqrt iter    2 1.00000000   0.629E+00       0.033     3383.414
     NS sqrt iter    3 1.00000000   0.201E+00       0.034     3378.630
     NS sqrt iter    4 1.00000000   0.253E-01       0.034     3372.043
     NS sqrt iter    5 1.00000000   0.109E-03       0.034     3376.683
     NS sqrt iter    6 1.00000000   0.213E-10       0.018     2200.531
     Symmetrizing Results
     Final NS sqrt iter    6 1.00000000   0.209E-11

     Est. extremal eigenvalues     -0.83297     2.56376  converged:  T
     TRS4 it   1 1.00000000   0.284E+02       0.007     2122.718   0.100E-11
     TRS4 it   2 1.00000000   0.233E+02       0.013     2219.391   0.100E-11
     TRS4 it   3 1.00000000   0.154E+02       0.013     2200.670   0.100E-11
     TRS4 it   4 1.00000000   0.888E+01       0.013     2204.867   0.100E-11
     TRS4 it   5 1.00000000   0.363E+01       0.013     2229.566   0.100E-11
     TRS4 it   6 1.00000000   0.899E+00       0.013     2200.973   0.100E-11
     TRS4 it   7 1.00000000   0.102E+00       0.013     2193.289   0.100E-11
     TRS4 it   8 1.00000000   0.193E-02       0.013     2194.791   0.100E-11
     TRS4 it   9 1.00000000   0.870E-06       0.013     2216.729   0.100E-11
     TRS4 it  10 1.00000000   0.304E-12       0.013     2212.583   0.100E-11
     Final TRS4 iteration   10 1.00000000   0.304E-12
     Chemical potential (mu):       0.05168
 
 PAO| energy:  -191.44430304399540      penalty:   4.8266550541681925E-004
 PAO|CG| trace_G_new    1.5693467543526282E-002
 PAO|CG| trace_G_prev    2.0740669281739624E-002
 PAO|CG| trace_G_mix    1.0377954632317260E-004
 PAO|CG| trace_D    2.7151346168099180E-002
 PAO|CG| trace_D_Gnew  -4.2968289786689273E-005
 PAO|CG| beta:   0.75164826098107107     
 PAO| norm of gradient:  0.12527357081015245     
 PAO| energy improvement:  -5.8559528066837174E-003
 PAO| step     23                 -191.444303044  0.245E-03  0.561E+00     2.039
 PAO|LS| adapt:  T F F
 PAO|LS| adapt: scan_steps:    0.0000000000000000        0.0000000000000000        0.0000000000000000     
 PAO|LS| adapt: energies:   -191.44430304399540        0.0000000000000000        0.0000000000000000     
 PAO| ======================= Iteration:        24 =============================

     Lanczos converged:  F threshold:   0.100E-02
     Est. extremal eigenvalues:    0.479E+01   0.135E+00
     Est. condition number :    0.356E+02

 Order=           3
     NS sqrt iter    1 1.00000000   0.123E+01       0.021     2711.562
     NS sqrt iter    2 1.00000000   0.627E+00       0.033     3387.415
     NS sqrt iter    3 1.00000000   0.201E+00       0.034     3357.793
     NS sqrt iter    4 1.00000000   0.253E-01       0.034     3371.263
     NS sqrt iter    5 1.00000000   0.109E-03       0.034     3376.703
     NS sqrt iter    6 1.00000000   0.214E-10       0.018     2217.448
     Symmetrizing Results
     Final NS sqrt iter    6 1.00000000   0.207E-11

     Est. extremal eigenvalues     -0.83297     2.56059  converged:  T
     TRS4 it   1 1.00000000   0.284E+02       0.007     2144.940   0.100E-11
     TRS4 it   2 1.00000000   0.233E+02       0.013     2208.553   0.100E-11
     TRS4 it   3 1.00000000   0.154E+02       0.013     2210.254   0.100E-11
     TRS4 it   4 1.00000000   0.885E+01       0.013     2212.437   0.100E-11
     TRS4 it   5 1.00000000   0.361E+01       0.013     2223.131   0.100E-11
     TRS4 it   6 1.00000000   0.890E+00       0.013     2217.887   0.100E-11
     TRS4 it   7 1.00000000   0.999E-01       0.013     2212.636   0.100E-11
     TRS4 it   8 1.00000000   0.187E-02       0.013     2224.297   0.100E-11
     TRS4 it   9 1.00000000   0.821E-06       0.013     2224.262   0.100E-11
     TRS4 it  10 1.00000000   0.293E-12       0.013     2242.176   0.100E-11
     Final TRS4 iteration   10 1.00000000   0.293E-12
     Chemical potential (mu):       0.05204
 
 PAO| energy:  -191.44734668497605      penalty:   4.4551433873953207E-004
 PAO|LS| adapt:  T T F
 PAO|LS| adapt: scan_steps:    0.0000000000000000       0.56068983805748551        0.0000000000000000     
 PAO|LS| adapt: energies:   -191.44430304399540       -191.44734668497605        0.0000000000000000     
 PAO| ======================= Iteration:        25 =============================

     Lanczos converged:  F threshold:   0.100E-02
     Est. extremal eigenvalues:    0.478E+01   0.134E+00
     Est. condition number :    0.356E+02

 Order=           3
     NS sqrt iter    1 1.00000000   0.123E+01       0.021     2699.921
     NS sqrt iter    2 1.00000000   0.627E+00       0.033     3382.296
     NS sqrt iter    3 1.00000000   0.201E+00       0.034     3372.756
     NS sqrt iter    4 1.00000000   0.253E-01       0.034     3372.020
     NS sqrt iter    5 1.00000000   0.109E-03       0.033     3381.891
     NS sqrt iter    6 1.00000000   0.216E-10       0.018     2213.199
     Symmetrizing Results
     Final NS sqrt iter    6 1.00000000   0.209E-11

     Est. extremal eigenvalues     -0.83296     2.55721  converged:  T
     TRS4 it   1 1.00000000   0.284E+02       0.007     2163.387   0.100E-11
     TRS4 it   2 1.00000000   0.232E+02       0.013     2214.570   0.100E-11
     TRS4 it   3 1.00000000   0.154E+02       0.013     2189.991   0.100E-11
     TRS4 it   4 1.00000000   0.883E+01       0.013     2236.508   0.100E-11
     TRS4 it   5 1.00000000   0.359E+01       0.013     2203.324   0.100E-11
     TRS4 it   6 1.00000000   0.881E+00       0.013     2202.059   0.100E-11
     TRS4 it   7 1.00000000   0.981E-01       0.013     2211.752   0.100E-11
     TRS4 it   8 1.00000000   0.180E-02       0.013     2209.432   0.100E-11
     TRS4 it   9 1.00000000   0.775E-06       0.013     2199.938   0.100E-11
     TRS4 it  10 1.00000000   0.268E-12       0.013     2196.273   0.100E-11
     Final TRS4 iteration   10 1.00000000   0.268E-12
     Chemical potential (mu):       0.05242
 
 PAO| energy:  -191.43865301184297      penalty:   4.1211281950892683E-004
 PAO|LS| adapt:  T T T
 PAO|LS| adapt: scan_steps:    0.0000000000000000       0.56068983805748551        1.1213796761149710     
 PAO|LS| adapt: energies:   -191.44430304399540       -191.44734668497605       -191.43865301184297     
 PAO|LS| adapt: suggested step_size:   0.42573921895203581     
 PAO|LS| adapt: predicted energy  -191.44768665695574     
 PAO| ======================= Iteration:        26 =============================

     Lanczos converged:  F threshold:   0.100E-02
     Est. extremal eigenvalues:    0.480E+01   0.135E+00
     Est. condition number :    0.356E+02

 Order=           3
     NS sqrt iter    1 1.00000000   0.123E+01       0.021     2705.079
     NS sqrt iter    2 1.00000000   0.628E+00       0.034     3358.666
     NS sqrt iter    3 1.00000000   0.201E+00       0.034     3363.515
     NS sqrt iter    4 1.00000000   0.253E-01       0.034     3349.628
     NS sqrt iter    5 1.00000000   0.109E-03       0.034     3364.064
     NS sqrt iter    6 1.00000000   0.214E-10       0.018     2187.956
     Symmetrizing Results
     Final NS sqrt iter    6 1.00000000   0.206E-11

     Est. extremal eigenvalues     -0.83297     2.56138  converged:  T
     TRS4 it   1 1.00000000   0.284E+02       0.007     2100.952   0.100E-11
     TRS4 it   2 1.00000000   0.233E+02       0.013     2205.886   0.100E-11
     TRS4 it   3 1.00000000   0.154E+02       0.013     2206.661   0.100E-11
     TRS4 it   4 1.00000000   0.886E+01       0.013     2203.802   0.100E-11
     TRS4 it   5 1.00000000   0.362E+01       0.013     2213.407   0.100E-11
     TRS4 it   6 1.00000000   0.892E+00       0.013     2222.905   0.100E-11
     TRS4 it   7 1.00000000   0.100E+00       0.013     2214.783   0.100E-11
     TRS4 it   8 1.00000000   0.188E-02       0.013     2178.006   0.100E-11
     TRS4 it   9 1.00000000   0.832E-06       0.013     2226.932   0.100E-11
     TRS4 it  10 1.00000000   0.290E-12       0.013     2184.332   0.100E-11
     Final TRS4 iteration   10 1.00000000   0.290E-12
     Chemical potential (mu):       0.05196
 
 PAO| energy:  -191.44767582076977      penalty:   4.5410705985241787E-004
 PAO|CG| trace_G_new    1.2382362679884646E-002
 PAO|CG| trace_G_prev    1.5693467543526282E-002
 PAO|CG| trace_G_mix    2.3078501459530419E-004
 PAO|CG| trace_D    3.1097896364188637E-002
 PAO|CG| trace_D_Gnew  -7.0275474058159495E-005
 PAO|CG| beta:   0.77430801265472993     
 PAO| norm of gradient:  0.11127606517074841     
 PAO| energy improvement:  -3.3727767743698678E-003
 PAO| step     26                 -191.447675821  0.217E-03  0.426E+00     1.571
 PAO|LS| adapt:  T F F
 PAO|LS| adapt: scan_steps:    0.0000000000000000        0.0000000000000000        0.0000000000000000     
 PAO|LS| adapt: energies:   -191.44767582076977        0.0000000000000000        0.0000000000000000     
 PAO| ======================= Iteration:        27 =============================

     Lanczos converged:  F threshold:   0.100E-02
     Est. extremal eigenvalues:    0.479E+01   0.134E+00
     Est. condition number :    0.356E+02

 Order=           3
     NS sqrt iter    1 1.00000000   0.123E+01       0.021     2686.762
     NS sqrt iter    2 1.00000000   0.626E+00       0.034     3364.916
     NS sqrt iter    3 1.00000000   0.201E+00       0.034     3368.261
     NS sqrt iter    4 1.00000000   0.252E-01       0.034     3379.689
     NS sqrt iter    5 1.00000000   0.109E-03       0.034     3372.513
     NS sqrt iter    6 1.00000000   0.216E-10       0.018     2202.885
     Symmetrizing Results
     Final NS sqrt iter    6 1.00000000   0.208E-11

     Est. extremal eigenvalues     -0.83298     2.55902  converged:  T
     TRS4 it   1 1.00000000   0.284E+02       0.007     2134.627   0.100E-11
     TRS4 it   2 1.00000000   0.233E+02       0.013     2204.056   0.100E-11
     TRS4 it   3 1.00000000   0.154E+02       0.013     2231.661   0.100E-11
     TRS4 it   4 1.00000000   0.884E+01       0.013     2224.203   0.100E-11
     TRS4 it   5 1.00000000   0.360E+01       0.013     2236.139   0.100E-11
     TRS4 it   6 1.00000000   0.884E+00       0.013     2218.302   0.100E-11
     TRS4 it   7 1.00000000   0.986E-01       0.013     2220.027   0.100E-11
     TRS4 it   8 1.00000000   0.182E-02       0.013     2235.182   0.100E-11
     TRS4 it   9 1.00000000   0.783E-06       0.013     2241.392   0.100E-11
     TRS4 it  10 1.00000000   0.282E-12       0.013     2212.352   0.100E-11
     Final TRS4 iteration   10 1.00000000   0.282E-12
     Chemical potential (mu):       0.05236
 
 PAO| energy:  -191.45008068701790      penalty:   4.1856985655476043E-004
 PAO|LS| adapt:  T T F
 PAO|LS| adapt: scan_steps:    0.0000000000000000       0.42573921895203581        0.0000000000000000     
 PAO|LS| adapt: energies:   -191.44767582076977       -191.45008068701790        0.0000000000000000     
 PAO| ======================= Iteration:        28 =============================

     Lanczos converged:  F threshold:   0.100E-02
     Est. extremal eigenvalues:    0.477E+01   0.134E+00
     Est. condition number :    0.356E+02

 Order=           3
     NS sqrt iter    1 1.00000000   0.123E+01       0.021     2669.530
     NS sqrt iter    2 1.00000000   0.625E+00       0.034     3374.072
     NS sqrt iter    3 1.00000000   0.200E+00       0.033     3389.567
     NS sqrt iter    4 1.00000000   0.251E-01       0.034     3364.163
     NS sqrt iter    5 1.00000000   0.109E-03       0.034     3378.748
     NS sqrt iter    6 1.00000000   0.218E-10       0.018     2233.073
     Symmetrizing Results
     Final NS sqrt iter    6 1.00000000   0.207E-11

     Est. extremal eigenvalues     -0.83298     2.55646  converged:  T
     TRS4 it   1 1.00000000   0.284E+02       0.007     2161.297   0.100E-11
     TRS4 it   2 1.00000000   0.232E+02       0.013     2214.756   0.100E-11
     TRS4 it   3 1.00000000   0.153E+02       0.013     2226.259   0.100E-11
     TRS4 it   4 1.00000000   0.882E+01       0.013     2186.799   0.100E-11
     TRS4 it   5 1.00000000   0.358E+01       0.013     2201.880   0.100E-11
     TRS4 it   6 1.00000000   0.876E+00       0.013     2186.846   0.100E-11
     TRS4 it   7 1.00000000   0.969E-01       0.013     2236.745   0.100E-11
     TRS4 it   8 1.00000000   0.176E-02       0.013     2187.661   0.100E-11
     TRS4 it   9 1.00000000   0.737E-06       0.013     2181.291   0.100E-11
     TRS4 it  10 1.00000000   0.245E-12       0.013     2224.163   0.100E-11
     Final TRS4 iteration   10 1.00000000   0.245E-12
     Chemical potential (mu):       0.05276
 
 PAO| energy:  -191.44665496705593      penalty:   3.8592597452386521E-004
 PAO|LS| adapt:  T T T
 PAO|LS| adapt: scan_steps:    0.0000000000000000       0.42573921895203581       0.85147843790407163     
 PAO|LS| adapt: energies:   -191.44767582076977       -191.45008068701790       -191.44665496705593     
 PAO|LS| adapt: suggested step_size:   0.38846874158203543     
 PAO|LS| adapt: predicted energy  -191.45010302916043     
 PAO| ======================= Iteration:        29 =============================

     Lanczos converged:  F threshold:   0.100E-02
     Est. extremal eigenvalues:    0.479E+01   0.134E+00
     Est. condition number :    0.356E+02

 Order=           3
     NS sqrt iter    1 1.00000000   0.123E+01       0.021     2713.072
     NS sqrt iter    2 1.00000000   0.626E+00       0.034     3379.843
     NS sqrt iter    3 1.00000000   0.201E+00       0.034     3362.584
     NS sqrt iter    4 1.00000000   0.252E-01       0.033     3388.916
     NS sqrt iter    5 1.00000000   0.109E-03       0.034     3375.975
     NS sqrt iter    6 1.00000000   0.215E-10       0.018     2211.500
     Symmetrizing Results
     Final NS sqrt iter    6 1.00000000   0.207E-11

     Est. extremal eigenvalues     -0.83298     2.55923  converged:  T
     TRS4 it   1 1.00000000   0.284E+02       0.007     2132.318   0.100E-11
     TRS4 it   2 1.00000000   0.233E+02       0.013     2225.831   0.100E-11
     TRS4 it   3 1.00000000   0.154E+02       0.013     2202.277   0.100E-11
     TRS4 it   4 1.00000000   0.884E+01       0.013     2218.730   0.100E-11
     TRS4 it   5 1.00000000   0.360E+01       0.013     2226.205   0.100E-11
     TRS4 it   6 1.00000000   0.885E+00       0.013     2221.113   0.100E-11
     TRS4 it   7 1.00000000   0.987E-01       0.013     2227.985   0.100E-11
     TRS4 it   8 1.00000000   0.182E-02       0.013     2221.716   0.100E-11
     TRS4 it   9 1.00000000   0.788E-06       0.013     2210.857   0.100E-11
[...]
     Symmetrizing Results
     Final NS sqrt iter    6 1.00000000   0.184E-11

     Est. extremal eigenvalues     -0.83292     2.50621  converged:  T
     TRS4 it   1 1.00000000   0.285E+02       0.007     2169.598   0.100E-11
     TRS4 it   2 1.00000000   0.231E+02       0.013     2242.763   0.100E-11
     TRS4 it   3 1.00000000   0.155E+02       0.013     2212.094   0.100E-11
     TRS4 it   4 1.00000000   0.914E+01       0.013     2229.030   0.100E-11
     TRS4 it   5 1.00000000   0.406E+01       0.013     2227.533   0.100E-11
     TRS4 it   6 1.00000000   0.124E+01       0.013     2226.904   0.100E-11
     TRS4 it   7 1.00000000   0.208E+00       0.013     2212.906   0.100E-11
     TRS4 it   8 1.00000000   0.881E-02       0.013     2210.893   0.100E-11
     TRS4 it   9 1.00000000   0.206E-04       0.013     2217.745   0.100E-11
     TRS4 it  10 1.00000000   0.150E-09       0.013     2249.814   0.100E-11
     Final TRS4 iteration   10 1.00000000   0.150E-09
     Chemical potential (mu):       0.02791
 
 PAO| energy:  -191.07259609224201      penalty:   1.4709226759451366E-008
 PAO| Writing restart file.
     Est. extremal eigenvalues     -0.83292     2.50621  converged:  T
     TRS4 it   1 1.00000000   0.285E+02       0.007     2152.711   0.100E-11
     TRS4 it   2 1.00000000   0.231E+02       0.013     2219.802   0.100E-11
     TRS4 it   3 1.00000000   0.155E+02       0.013     2220.874   0.100E-11
     TRS4 it   4 1.00000000   0.914E+01       0.013     2217.012   0.100E-11
     TRS4 it   5 1.00000000   0.406E+01       0.013     2225.255   0.100E-11
     TRS4 it   6 1.00000000   0.124E+01       0.013     2199.156   0.100E-11
     TRS4 it   7 1.00000000   0.208E+00       0.013     2216.859   0.100E-11
     TRS4 it   8 1.00000000   0.881E-02       0.013     2241.166   0.100E-11
     TRS4 it   9 1.00000000   0.206E-04       0.013     2203.910   0.100E-11
     TRS4 it  10 1.00000000   0.150E-09       0.013     2194.365   0.100E-11
     Final TRS4 iteration   10 1.00000000   0.150E-09
     Chemical potential (mu):       0.02791

 SCF     1     -1103.052936884     -1103.052936884    1.764899

*********************************************************
 Using MIXING_FRACTION=0.450 to mix KS matrix:  iscf=  2
 KS_nw=0.450*KS + 0.550*KS_old
*********************************************************
     Est. extremal eigenvalues     -0.83292     2.50621  converged:  T
     TRS4 it   1 1.00000000   0.285E+02       0.007     2112.267   0.100E-11
     TRS4 it   2 1.00000000   0.231E+02       0.013     2229.070   0.100E-11
     TRS4 it   3 1.00000000   0.155E+02       0.013     2224.041   0.100E-11
     TRS4 it   4 1.00000000   0.914E+01       0.013     2213.214   0.100E-11
     TRS4 it   5 1.00000000   0.406E+01       0.013     2233.238   0.100E-11
     TRS4 it   6 1.00000000   0.124E+01       0.013     2232.702   0.100E-11
     TRS4 it   7 1.00000000   0.208E+00       0.013     2226.132   0.100E-11
     TRS4 it   8 1.00000000   0.881E-02       0.013     2204.838   0.100E-11
     TRS4 it   9 1.00000000   0.206E-04       0.013     2200.025   0.100E-11
     TRS4 it  10 1.00000000   0.149E-09       0.013     2211.723   0.100E-11
     Final TRS4 iteration   10 1.00000000   0.149E-09
     Chemical potential (mu):       0.02791

 SCF     2     -1103.052936885        -0.000000000    1.763500


 SCF run converged in     2 steps.

 PAO| Storing density matrix for ASPC guess in slot:           1

 ENERGY| Total FORCE_EVAL ( QS ) energy [a.u.]:            -1103.052936884628025

 -------------------------------------------------------------------------------
 -                                                                             -
 -                                DBCSR STATISTICS                             -
 -                                                                             -
 -------------------------------------------------------------------------------
 COUNTER                                    TOTAL       BLAS       SMM       ACC
 flops     5 x     5 x     4             23116800       0.0%    100.0%      0.0%     
 flops    13 x     5 x     4             29818880       0.0%    100.0%      0.0%     
 flops     5 x    13 x     4             29818880       0.0%    100.0%      0.0%     
 flops    13 x    13 x     4             39370240       0.0%    100.0%      0.0%     
 flops     4 x     4 x     5           6562775040       0.0%    100.0%      0.0%     
 flops     5 x     4 x     5           8083865600       0.0%    100.0%      0.0%     
 flops     4 x     4 x    13           8531607552       0.0%    100.0%      0.0%     
 flops    13 x     4 x     5          10509025280       0.0%    100.0%      0.0%     
 flops     5 x     4 x    13          10509025280       0.0%    100.0%      0.0%     
 flops    13 x     4 x    13          13661732864       0.0%    100.0%      0.0%     
 flops     5 x     4 x     4         412510552000       0.0%    100.0%      0.0%     
 flops    13 x     4 x     4         556893524096       0.0%    100.0%      0.0%     
 flops     4 x     4 x     4       29577362302592       0.0%    100.0%      0.0%     
 flops inhomo. stacks                           0       0.0%      0.0%      0.0%
 flops total                        30.604747E+12       0.0%    100.0%      0.0%
 flops max/rank                    966.087828E+09       0.0%    100.0%      0.0%
 matmuls inhomo. stacks                         0       0.0%      0.0%      0.0%
 matmuls total                       235142749191       0.0%    100.0%      0.0%
 number of processed stacks             240155092       0.0%    100.0%      0.0%
 average stack size                                     0.0     979.1       0.0
 marketing flops                    52.741372E+12
 -------------------------------------------------------------------------------
 # multiplications                          49306
 max memory usage/rank             618.758144E+06
 # max total images/rank                        2
 # max 3D layers                                1
 # MPI messages exchanged                20511296
 MPI messages size (bytes):
  total size                         2.438827E+12
  min size                           0.000000E+00
  max size                         541.696000E+03
  average size                     118.901641E+03
 MPI breakdown and total messages size (bytes):
             size <=      128              899598                    17664
       128 < size <=     8192              302451               1127947008
      8192 < size <=    32768               76150               1900365824
     32768 < size <=   131072             8797187             656909471744
    131072 < size <=  4194304            10435910            1779264649728
   4194304 < size <= 16777216                   0                        0
  16777216 < size                               0                        0
 -------------------------------------------------------------------------------

 *** WARNING in dbcsr_mm.F:301 :: Using a non-square number of MPI ranks ***
 *** might lead to poor performance. Used ranks: 32 Suggested: 36 64     ***

 -------------------------------------------------------------------------------
 -                                                                             -
 -                      DBCSR MESSAGE PASSING PERFORMANCE                      -
 -                                                                             -
 -------------------------------------------------------------------------------
 ROUTINE             CALLS      AVE VOLUME [Bytes]
 MP_Bcast               14                     12.
 MP_Allreduce       294904                     37.
 MP_Alltoall        128063                  14874.
 MP_ISend          1646824                  55442.
 MP_IRecv          1612308                  56691.
 -------------------------------------------------------------------------------

 -------------------------------------------------------------------------------
 -                                                                             -
 -                                DBM STATISTICS                               -
 -                                                                             -
 -------------------------------------------------------------------------------
    M  x    N  x    K                                          COUNT     PERCENT
 -------------------------------------------------------------------------------

 -------------------------------------------------------------------------------
 -                                                                             -
 -                                GRID STATISTICS                              -
 -                                                                             -
 -------------------------------------------------------------------------------
 LP    KERNEL             BACKEND                              COUNT     PERCENT
 2     collocate ortho    CPU                               11469962      28.82%
 2     integrate ortho    CPU                               11469962      28.82%
 3     collocate ortho    CPU                                7376362      18.54%
 3     integrate ortho    CPU                                7376362      18.54%
 4     collocate ortho    CPU                                1048852       2.64%
 4     integrate ortho    CPU                                1048852       2.64%
 0     collocate general  CPU                                   6144       0.02%
 -------------------------------------------------------------------------------

 MEMORY| Estimated peak process memory [MiB]                                 591

 -------------------------------------------------------------------------------
 -                                                                             -
 -                         MESSAGE PASSING PERFORMANCE                         -
 -                                                                             -
 -------------------------------------------------------------------------------

 ROUTINE             CALLS      AVE VOLUME [Bytes]
 MP_Group                5
 MP_Bcast           503049                   1663.
 MP_Allreduce      1248837                    514.
 MP_Sync                 5
 MP_Alltoall           369                1292631.
 MP_SendRecv          1302                  18832.
 MP_ISendRecv         1302                  18832.
 MP_Wait              3696
 MP_ISend             2166                 108220.
 MP_IRecv             2166                 108236.
 -------------------------------------------------------------------------------


 -------------------------------------------------------------------------------
 -                                                                             -
 -                           R E F E R E N C E S                               -
 -                                                                             -
 -------------------------------------------------------------------------------
 
 CP2K version 2024.3 (Development Version), the CP2K developers group (2024).
 CP2K is freely available from https://www.cp2k.org/ .
 
 T. D. Kuehne, M. Iannuzzi, M. Del Ben, V. V. Rybkin, P. Seewald, F. Stein, T. 
 Laino, R. Z. Khaliullin, O. Schuett, F. Schiffmann, D. Golze, J. Wilhelm, S. 
 Chulkov, M. H. Bani-Hashemian, V. Weber, U. Borstnik, M. Taillefumier, A. S. 
 Jakobovits, A. Lazzaro, H. Pabst, T. Mueller, R. Schade, M. Guidon, S. 
 Andermatt, N. Holmberg, G. K. Schenter, A. Hehn, A. Bussy, F. Belleflamme, G. 
 Tabacchi, A. Gloess, M. Lass, I. Bethune, C. J. Mundy, C. Plessl, M. Watkins, 
 J. VandeVondele, M. Krack, J. Hutter.
 J. Chem. Phys. 152, 194103 (2020).
 CP2K: An electronic structure and molecular dynamics software package - 
 Quickstep: Efficient and accurate electronic structure calculations.
 https://doi.org/10.1063/5.0007045

 O. Schuett, J. VandeVondele.
 J. Chem. Theory Comput. 14, 4168-4175 (2018).
 Machine Learning Adaptive Basis Sets for Efficient Large Scale Density 
 Functional Theory Simulation.
 https://doi.org/10.1021/acs.jctc.8b00378

 O. Schuett, P. Messmer, J. Hutter, J. VandeVondele.
 Electronic Structure Calculations on Graphics Processing Units, 173-190 (2016).
 GPU-Accelerated Sparse Matrix-Matrix Multiplication for Linear Scaling Density 
 Functional Theory.
 https://doi.org/10.1002/9781118670712.ch8

 A. Heinecke, G. Henry, M. Hutchinson, H. Pabst.
 Proceedings of Intl. Supercomputing Conference, 981-991 (2016).
 LIBXSMM: Accelerating Small Matrix Multiplications by Runtime Code Generation.
 https://doi.org/10.1109/SC.2016.83

 J. Hutter, M. Iannuzzi, F. Schiffmann, J. VandeVondele.
 WIREs Comput Mol Sci. 4, 15-25 (2014).
 CP2K: atomistic simulations of condensed matter systems.
 https://doi.org/10.1002/wcms.1159

 U. Borstnik, J. VandeVondele, V. Weber, J. Hutter.
 Parallel Comput. 40, 47-58 (2014).
 Sparse matrix multiplication: The distributed block-compressed sparse row 
 library.
 https://doi.org/10.1016/j.parco.2014.03.012

 A. Marek, V. Blum, R. Johanni, V. Havu, B. Lang, T. Auckenthaler, A. Heinecke, 
 H. Bungartz, H. Lederer.
 J. Phys. Condens. Matter 26, 213201 (2014).
 The ELPA library: scalable parallel eigenvalue solutions for electronic 
 structure theory and computational science.
 https://doi.org/10.1088/0953-8984/26/21/213201

 J. VandeVondele, U. Borstnik, J. Hutter.
 J. Chem. Theory Comput. 8, 3565-3573 (2012).
 Linear Scaling Self-Consistent Field Calculations with Millions of Atoms in the 
 Condensed Phase.
 https://doi.org/10.1021/ct200897x

 J. VandeVondele, J. Hutter.
 J. Chem. Phys. 127, 114105 (2007).
 Gaussian basis sets for accurate calculations on molecular systems in gas and 
 condensed phases.
 https://doi.org/10.1063/1.2770708

 J. VandeVondele, M. Krack, F. Mohamed, M. Parrinello, T. Chassaing, J. Hutter.
 Comput. Phys. Commun. 167, 103-128 (2005).
 QUICKSTEP: Fast and accurate density functional calculations using a mixed 
 Gaussian and plane waves approach.
 https://doi.org/10.1016/j.cpc.2004.12.014

 M. Krack.
 Theor. Chem. Acc. 114, 145-152 (2005).
 Pseudopotentials for H to Kr optimized for gradient-corrected 
 exchange-correlation functionals.
 https://doi.org/10.1007/s00214-005-0655-y

 M. Frigo, S. G. Johnson.
 Proc. IEEE 93, 216-231 (2005).
 The design and implementation of FFTW3.
 https://doi.org/10.1109/JPROC.2004.840301

 A. M. N. Niklasson, C. J. Tymczak, M. Challacombe.
 J. Chem. Phys. 118, 8611-8620 (2003).
 Trace resetting density matrix purification in O(N) self-consistent-field 
 theory.
 https://doi.org/10.1063/1.1559913

 C. Hartwigsen, S. Goedecker, J. Hutter.
 Phys. Rev. B 58, 3641-3662 (1998).
 Relativistic separable dual-space Gaussian pseudopotentials from H to Rn.
 https://doi.org/10.1103/PhysRevB.58.3641

 G. Lippert, J. Hutter, M. Parrinello.
 Mol. Phys. 92, 477-487 (1997).
 A hybrid Gaussian and plane wave density functional scheme.
 https://doi.org/10.1080/002689797170220

 S. Goedecker, M. Teter, J. Hutter.
 Phys. Rev. B 54, 1703-1710 (1996).
 Separable dual-space Gaussian pseudopotentials.
 https://doi.org/10.1103/PhysRevB.54.1703

 J. P. Perdew, K. Burke, M. Ernzerhof.
 Phys. Rev. Lett. 77, 3865-3868 (1996).
 Generalized gradient approximation made simple.
 https://doi.org/10.1103/PhysRevLett.77.3865


 -------------------------------------------------------------------------------
 -                                                                             -
 -                                T I M I N G                                  -
 -                                                                             -
 -------------------------------------------------------------------------------
 SUBROUTINE                       CALLS  ASD         SELF TIME        TOTAL TIME
                                MAXIMUM       AVERAGE  MAXIMUM  AVERAGE  MAXIMUM
 CP2K                                 1  1.0    0.012    0.016  458.715  458.716
 qs_energies                          1  2.0    0.000    0.000  458.563  458.564
 ls_scf                               1  3.0    0.000    0.000  457.467  457.468
 pao_update                           6  4.0    0.006    0.028  431.236  431.238
 pao_calc_energy                    825  5.0    0.003    0.021  388.455  388.456
 dbcsr_multiply_generic           49306  8.4    1.401    1.508  340.102  340.389
 multiply_cannon                  49306  9.4    2.572    2.967  274.780  278.033
 multiply_cannon_loop             49306 10.4    1.833    2.077  264.183  267.958
 ls_scf_init_matrix_S               831  7.0    0.009    0.011  213.747  213.807
 pao_rebuild_S                      825  6.0    0.003    0.003  212.194  212.254
 matrix_sqrt_Newton_Schulz          831  8.0    0.177    0.302  198.546  198.603
 multiply_cannon_multrec         394448 11.4  175.935  177.710  176.751  178.521
 pao_dm_trs4                        825  6.0    0.006    0.007  175.873  175.912
 density_matrix_trs4                838  7.0    0.205    0.361  169.877  169.984
 mp_waitall_1                   3157114 12.6   83.867   92.175   83.867   92.175
 arnoldi_extremal                  1669  8.5    0.013    0.015   83.442   83.500
 arnoldi_normal_ev                 1669  9.5    0.045    0.079   83.426   83.482
 multiply_cannon_metrocomm3      394448 11.4    0.684    0.729   66.878   73.715
 build_subspace                    8150 10.5    0.493    0.534   72.920   72.970
 dbcsr_matrix_vector_mult        247838 11.5    1.058    1.594   68.422   69.039
 dbcsr_matrix_vector_mult_local  247838 12.5   58.416   58.954   58.694   59.228
 make_m2s                         98612  9.4    0.545    0.722   49.823   50.975
 make_images                      98612 10.4    7.271    7.537   48.473   49.728
 pao_calc_AB                       1092  5.8    0.002    0.002   42.325   42.327
 pao_calc_AB_equi                  1092  6.8    0.041    0.100   42.323   42.325
 pao_calc_grad_lnv_wrt_AB           266  7.0    0.020    0.025   41.897   41.932
 make_images_data                 98612 11.4    0.837    1.011   20.735   23.231
 ls_scf_main                          6  4.0    0.000    0.001   22.973   22.974
 ls_scf_dm_to_ks                     13  5.0    0.000    0.000   20.304   20.306
 hybrid_alltoall_any             100270 12.4    0.887    1.703   16.296   19.841
 matrix_qs_to_ls                   1669  7.5    0.017    0.023   16.972   17.069
 mp_sum_l                        200971  9.5    7.992   14.888    7.992   14.888
 calculate_norms                 735040 11.4   11.449   12.342   11.449   12.342
 qs_ks_update_qs_env                 14  6.0    0.000    0.000   12.183   12.184
 rebuild_ks_matrix                   14  7.0    0.000    0.000   12.173   12.174
 qs_ks_build_kohn_sham_matrix        14  8.0    0.002    0.003   12.172   12.174
 make_images_pack                 98612 11.4   10.874   11.188   11.007   11.324
 dbcsr_multiply_generic_mpsum_f   35872  9.5    0.027    0.031    4.712   10.198
 qs_rho_update_rho_low               14  6.0    0.000    0.000    9.605    9.609
 calculate_rho_elec                  14  7.0    0.005    0.005    9.605    9.609
 sum_up_and_integrate                14  9.0    0.000    0.000    9.219    9.221
 integrate_v_rspace                  14 10.0    0.000    0.000    9.206    9.208
 -------------------------------------------------------------------------------

 The number of warnings for this run is : 1
 
 -------------------------------------------------------------------------------
  **** **** ******  **  PROGRAM ENDED AT                 2024-09-24 01:37:30.178
 ***** ** ***  *** **   PROGRAM RAN ON                                    moritz
 **    ****   ******    PROGRAM RAN BY                                       ole
 ***** **    ** ** **   PROGRAM PROCESS ID                                166129
  **** **  *******  **  PROGRAM STOPPED IN /home/ole/git/pao_ml_equivar/64H2O_MD
                                           /Frame2600
