 DBCSR| CPU Multiplication driver                                           XSMM (U)
 DBCSR| Multrec recursion limit                                              512 (U)
 DBCSR| Multiplication stack size                                           1000 (D)
 DBCSR| Maximum elements for images                                    UNLIMITED (U)
 DBCSR| Multiplicative factor virtual images                                   1 (U)
 DBCSR| Use multiplication densification                                       T (D)
 DBCSR| Multiplication size stacks                                             3 (U)
 DBCSR| Use memory pool for CPU allocation                                     F (U)
 DBCSR| OMP: Current number of threads                                         1
 DBCSR| OMP: Max number of threads                                             1
 DBCSR| Split modifier for TAS multiplication algorithm                  1.0E+00 (U)


  **** **** ******  **  PROGRAM STARTED AT               2023-02-01 10:45:19.662
 ***** ** ***  *** **   PROGRAM STARTED ON                                moritz
 **    ****   ******    PROGRAM STARTED BY                                   ole
 ***** **    ** ** **   PROGRAM PROCESS ID                                148568
  **** **  *******  **  PROGRAM STARTED IN /home/ole/git/pao_ml_equivar/2H2O_rot
                                           ations/phi_08

 CP2K| version string:                 CP2K version 2023.1 (Development Version)
 CP2K| source code revision number:                                  git:03b4147
 CP2K| cp2kflags: omp libint fftw3 libxc quip xsmm spglib libvori libbqb libtorc
 CP2K|            h
 CP2K| is freely available from                            https://www.cp2k.org/
 CP2K| Program compiled at                           Mi 01 Feb 2023 10:36:52 CET
 CP2K| Program compiled on                                                moritz
 CP2K| Program compiled for                                                local
 CP2K| Data directory path                               /home/ole/git/cp2k/data
 CP2K| Input file name                                            2H2O_pao44.inp

 GLOBAL| Force Environment number                                              1
 GLOBAL| Basis set file name                                        BASIS_MOLOPT
 GLOBAL| Potential file name                                      GTH_POTENTIALS
 GLOBAL| MM Potential file name                                     MM_POTENTIAL
 GLOBAL| Coordinate file name                                         coords.xyz
 GLOBAL| Method name                                                        CP2K
 GLOBAL| Project name                                                 2H2O_pao44
 GLOBAL| Run type                                                         ENERGY
 GLOBAL| FFT library                                                       FFTW3
 GLOBAL| Diagonalization library                                       ScaLAPACK
 GLOBAL| DGEMM library                                                      BLAS
 GLOBAL| Orthonormality check for eigenvectors                          DISABLED
 GLOBAL| Matrix multiplication library                                 ScaLAPACK
 GLOBAL| All-to-all communication in single precision                          F
 GLOBAL| FFTs using library dependent lengths                                  F
 GLOBAL| Grid backend                                                       AUTO
 GLOBAL| Global print level                                                  LOW
 GLOBAL| MPI I/O enabled                                                       T
 GLOBAL| Total number of message passing processes                             1
 GLOBAL| Number of threads for this process                                    1
 GLOBAL| This output is from process                                           0
 GLOBAL| Stack size for threads created by OpenMP (OMP_STACKSIZE)        default
 GLOBAL| CPU model name           AMD Ryzen Threadripper 3970X 32-Core Processor
 GLOBAL| CPUID                                                              1002
 GLOBAL| Compiled for CPUID                                                    0

 *** HINT in environment.F:884 :: The compiler target flags (generic) used ***
 *** to build this binary cannot exploit all extensions of this CPU model  ***
 *** (x86_avx2). Consider compiler target flags as part of FCFLAGS and     ***
 *** CFLAGS (ARCH file).                                                   ***


 MEMORY| system memory details [Kb]
 MEMORY|                        rank 0           min           max       average
 MEMORY| MemTotal            131773860     131773860     131773860     131773860
 MEMORY| MemFree             118762848     118762848     118762848     118762848
 MEMORY| Buffers                301580        301580        301580        301580
 MEMORY| Cached                7018548       7018548       7018548       7018548
 MEMORY| Slab                   776140        776140        776140        776140
 MEMORY| SReclaimable           331304        331304        331304        331304
 MEMORY| MemLikelyFree       126414280     126414280     126414280     126414280


 GENERATE|  Preliminary Number of Bonds generated:                             0
 GENERATE|  Achieved consistency in connectivity generation.

 *******************************************************************************
 *******************************************************************************
 **                                                                           **
 **     #####                         ##              ##                      **
 **    ##   ##            ##          ##              ##                      **
 **   ##     ##                       ##            ######                    **
 **   ##     ##  ##   ##  ##   #####  ##  ##   ####   ##    #####    #####    **
 **   ##     ##  ##   ##  ##  ##      ## ##   ##      ##   ##   ##  ##   ##   **
 **   ##  ## ##  ##   ##  ##  ##      ####     ###    ##   ######   ######    **
 **    ##  ###   ##   ##  ##  ##      ## ##      ##   ##   ##       ##        **
 **     #######   #####   ##   #####  ##  ##  ####    ##    #####   ##        **
 **           ##                                                    ##        **
 **                                                                           **
 **                                                ... make the atoms dance   **
 **                                                                           **
 **            Copyright (C) by CP2K developers group (2000-2023)             **
 **                      J. Chem. Phys. 152, 194103 (2020)                    **
 **                                                                           **
 *******************************************************************************


 TOTAL NUMBERS AND MAXIMUM NUMBERS

  Total number of            - Atomic kinds:                                   2
                             - Atoms:                                          6
                             - Shell sets:                                     6
                             - Shells:                                        22
                             - Primitive Cartesian functions:                 42
                             - Cartesian basis functions:                     48
                             - Spherical basis functions:                     46

  Maximum angular momentum of- Orbital basis functions:                        2
                             - Local part of the GTH pseudopotential:          2
                             - Non-local part of the GTH pseudopotential:      0

 ------------------------------ Linear scaling SCF -----------------------------
 eps_scf:                                                              0.100E-07
 eps_filter:                                                           0.100E-07
 mixing_fraction:                                                      0.450E+00
 max_scf:                                                                     25
 fixed chemical potential (mu)                                                 F
 has unit metric:                                                              F
 Computing inv(S):                                                             T
 Computing sqrt(S):                                                            T
 Computing S preconditioner                                                    F
 S sqrt method:                                                     NEWTONSCHULZ
 S sqrt order:                                                                 3
 Extrapolation order:                                                          1
 Use single precision matrices                                                 F
 S preconditioner type                                                      NONE
 Polarized Atomic Orbitals (PAO)                                               T
 Purification method                                   Trace resetting 4th order
 Cluster type                                                             ATOMIC
 Computing Chebyshev                                                       FALSE
 Using PAO                                                                     T
 -------------------------------------------------------------------------------

 
 PAO|                                  EPS_PAO                           0.1E-04
 PAO|                                  MIXING                            0.5E+00
 PAO|                                  MAX_PAO                              1000
 PAO|                                  MAX_CYCLES                           1000
 PAO|                                  PARAMETERIZATION              EQUIVARIANT
 PAO|                                  PRECONDITION                            F
 PAO|                                  REGULARIZATION                    0.0E+00
 PAO|                                  EPS_PGF                           0.1E-09
 PAO|                                  PENALTY_DISTANCE                  0.1E+00
 PAO|                                  PENALTY_STRENGTH                  0.5E-02
 PAO|                                  LINPOT_PRECONDITION_DELTA         0.0E+00
 PAO|                                  LINPOT_INITGUESS_DELT             0.0E+00
 PAO|                                  LINPOT_REGULARIZATION_DELTA       0.0E+00
 PAO|                                  LINPOT_REGULARIZATION_STRENGTH    0.0E+00
 PAO|                                  OPTIMIZER                              CG
 PAO|                                  CG_INIT_STEPS                           2
 PAO|                                  CG_RESET_LIMIT                    0.1E+00
 PAO|                                  CHECK_UNITARY_TOL                -0.1E+01
 PAO|                                  CHECK_GRADIENT_TOL               -0.1E+01
 PAO|                                  NUM_GRADIENT_ORDER                      2
 PAO|                                  NUM_GRADIENT_EPS                  0.1E-07
 PAO|                                  PRINT%RESTART%WRITE_CYCLES            100
 PAO|                                  RESTART_FILE 
 PAO|                                  PREOPT_DM_FILE 2H2O_ref_LS_DM_SPIN_1_RESTART.dm
 PAO|                                  MACHINE_LEARNING%METHOD       GAUSSIAN_PR
 PAO|                                  MACHINE_LEARNING%PRIOR               ZERO
 PAO|                                  MACHINE_LEARNING%DESCRIPTOR     POTENTIAL
 PAO|                                  MACHINE_LEARNING%TOLERANCE        0.1E-01
 PAO|                                  MACHINE_LEARNING%GP_NOISE_VAR     0.1E+00
 PAO|                                  MACHINE_LEARNING%GP_SCALE         0.5E-01
 

 Calculating atomic Fock matrix for atomic kind: O

 Electronic structure
    Total number of core electrons                                          2.00
    Total number of valence electrons                                       6.00
    Total number of electrons                                               8.00
    Multiplicity                                                   not specified
    S   [  2.00] 2.00
    P      4.00


 *******************************************************************************
                  Iteration          Convergence                     Energy [au]
 *******************************************************************************
                          1        0.708315                     -15.576645311500
                          2        0.608879                     -15.587933561584
                          3        0.102828E-01                 -15.656849565404
                          4        0.113889E-02                 -15.656866888140
                          5        0.434197E-03                 -15.656867072159
                          6        0.263771E-03                 -15.656867091904
                          7        0.478536E-06                 -15.656867103452

 Energy components [Hartree]           Total Energy ::          -15.656867103452
                                        Band Energy ::           -3.000198112285
                                     Kinetic Energy ::           11.759971203220
                                   Potential Energy ::          -27.416838306672
                                      Virial (-V/T) ::            2.331369510426
                                        Core Energy ::          -26.140716385623
                                          XC Energy ::           -3.154051012914
                                     Coulomb Energy ::           13.637900295084
                       Total Pseudopotential Energy ::          -37.935781716540
                       Local Pseudopotential Energy ::          -39.218907440693
                    Nonlocal Pseudopotential Energy ::            1.283125724153
                                        Confinement ::            0.350941276976

 Orbital energies  State     L     Occupation   Energy[a.u.]          Energy[eV]

                       1     0          2.000      -0.864471          -23.523463

                       1     1          4.000      -0.317814           -8.648154


 Total Electron Density at R=0:                                         0.000068

 Calculating atomic Fock matrix for atomic kind: H

 Electronic structure
    Total number of core electrons                                          0.00
    Total number of valence electrons                                       1.00
    Total number of electrons                                               1.00
    Multiplicity                                                   not specified
    S      1.00


 *******************************************************************************
                  Iteration          Convergence                     Energy [au]
 *******************************************************************************
                          1        0.437545E-02                  -0.424159432110
                          2        0.531356E-03                  -0.424178438213
                          3        0.259176E-06                  -0.424178722480

 Energy components [Hartree]           Total Energy ::           -0.424178722480
                                        Band Energy ::           -0.199015229016
                                     Kinetic Energy ::            0.464007633961
                                   Potential Energy ::           -0.888186356441
                                      Virial (-V/T) ::            1.914163240935
                                        Core Energy ::           -0.479160803564
                                          XC Energy ::           -0.244352904054
                                     Coulomb Energy ::            0.299334985138
                       Total Pseudopotential Energy ::           -0.962295316385
                       Local Pseudopotential Energy ::           -0.962295316385
                    Nonlocal Pseudopotential Energy ::            0.000000000000
                                        Confinement ::            0.191268788606

 Orbital energies  State     L     Occupation   Energy[a.u.]          Energy[eV]

                       1     0          1.000      -0.199015           -5.415480


 Total Electron Density at R=0:                                         0.242907
 PAO| Made initial guess for matrix_X with norm:   4.8989794855663558     

     Lanczos converged:  T threshold:   0.100E-02
     Est. extremal eigenvalues:    0.336E+01   0.114E+00
     Est. condition number :    0.294E+02

 Order=           3
     NS sqrt iter    1 1.00000000   0.821E+00       0.001       64.512
     NS sqrt iter    2 1.00000000   0.440E+00       0.001      110.592
     NS sqrt iter    3 1.00000000   0.170E+00       0.001      110.592
     NS sqrt iter    4 1.00000000   0.206E-01       0.001      110.592
     NS sqrt iter    5 1.00000000   0.535E-04       0.001       91.392
     Symmetrizing Results
     Final NS sqrt iter    5 1.00000000   0.425E-08

 PAO| Read restart DM 2H2O_ref_LS_DM_SPIN_1_RESTART.dm with checksum:    70.605262245556233     
 PAO| Quickstep energy from restart density:  -34.450519434072788     
 PAO| ======================= Iteration:         1 =============================

     Lanczos converged:  T threshold:   0.100E-02
     Est. extremal eigenvalues:    0.336E+01   0.114E+00
     Est. condition number :    0.294E+02

 Order=           3
     NS sqrt iter    1 1.00000000   0.821E+00       0.001       64.512
     NS sqrt iter    2 1.00000000   0.440E+00       0.001      110.592
     NS sqrt iter    3 1.00000000   0.170E+00       0.001      110.592
     NS sqrt iter    4 1.00000000   0.206E-01       0.001      110.592
     NS sqrt iter    5 1.00000000   0.535E-04       0.001       91.392
     Symmetrizing Results
     Final NS sqrt iter    5 1.00000000   0.425E-08

     Est. extremal eigenvalues     -0.91961     1.88619  converged:  T
     TRS4 it   1 1.00000000   0.883E+00       0.000       16.128   0.100E-07
     TRS4 it   2 1.00000000   0.691E+00       0.000       32.256   0.100E-07
     TRS4 it   3 1.00000000   0.499E+00       0.000       32.256   0.100E-07
     TRS4 it   4 1.00000000   0.312E+00       0.000       32.256   0.100E-07
     TRS4 it   5 1.00000000   0.155E+00       0.000       32.256   0.100E-07
     TRS4 it   6 1.00000000   0.484E-01       0.000       32.256   0.100E-07
     TRS4 it   7 1.00000000   0.663E-02       0.000       32.256   0.100E-07
     TRS4 it   8 1.00000000   0.175E-03       0.000       32.256   0.100E-07
     TRS4 it   9 1.00000000   0.135E-06       0.000       32.256   0.100E-07
     TRS4 it  10 1.00000000   0.832E-13       0.000       32.256   0.100E-07
     Final TRS4 iteration   10 1.00000000   0.832E-13
     Chemical potential (mu):      -0.06496
 
 PAO| energy:  -7.6199250786209332      penalty:   2.4651903288156617E-033
 PAO|CG| warming up with steepest descent
 PAO|CG| beta:    0.0000000000000000     
 PAO| norm of gradient:  0.78334434848445911     
 PAO|LS| adapt:  T F F
 PAO|LS| adapt: scan_steps:    0.0000000000000000        0.0000000000000000        0.0000000000000000     
 PAO|LS| adapt: energies:   -7.6199250786209332        0.0000000000000000        0.0000000000000000     
 PAO| ======================= Iteration:         2 =============================

     Lanczos converged:  T threshold:   0.100E-02
     Est. extremal eigenvalues:    0.327E+01   0.127E+00
     Est. condition number :    0.258E+02

 Order=           3
     NS sqrt iter    1 1.00000000   0.804E+00       0.001       64.512
     NS sqrt iter    2 1.00000000   0.425E+00       0.001      110.592
     NS sqrt iter    3 1.00000000   0.153E+00       0.001      110.592
     NS sqrt iter    4 1.00000000   0.142E-01       0.001      110.592
     NS sqrt iter    5 1.00000000   0.170E-04       0.001       82.944
     Symmetrizing Results
     Final NS sqrt iter    5 1.00000000   0.438E-09

     Est. extremal eigenvalues     -0.92327     1.83183  converged:  T
     TRS4 it   1 1.00000000   0.880E+00       0.000       16.128   0.100E-07
     TRS4 it   2 1.00000000   0.673E+00       0.000       32.256   0.100E-07
     TRS4 it   3 1.00000000   0.483E+00       0.000       32.256   0.100E-07
     TRS4 it   4 1.00000000   0.292E+00       0.000       32.256   0.100E-07
     TRS4 it   5 1.00000000   0.135E+00       0.000       32.256   0.100E-07
     TRS4 it   6 1.00000000   0.372E-01       0.000       32.256   0.100E-07
     TRS4 it   7 1.00000000   0.397E-02       0.000       32.256   0.100E-07
     TRS4 it   8 1.00000000   0.630E-04       0.000       32.256   0.100E-07
     TRS4 it   9 1.00000000   0.176E-07       0.000       32.256   0.100E-07
     Final TRS4 iteration    9 1.00000000   0.176E-07
     Chemical potential (mu):      -0.05293
 
 PAO| energy:  -7.6754112950570983      penalty:   2.2478521700220358E-008
 PAO|LS| adapt:  T T F
 PAO|LS| adapt: scan_steps:    0.0000000000000000       0.10000000000000001        0.0000000000000000     
 PAO|LS| adapt: energies:   -7.6199250786209332       -7.6754112950570983        0.0000000000000000     
 PAO| ======================= Iteration:         3 =============================

     Lanczos converged:  T threshold:   0.100E-02
     Est. extremal eigenvalues:    0.318E+01   0.139E+00
     Est. condition number :    0.229E+02

 Order=           3
     NS sqrt iter    1 1.00000000   0.787E+00       0.001       64.512
     NS sqrt iter    2 1.00000000   0.408E+00       0.001      110.592
     NS sqrt iter    3 1.00000000   0.136E+00       0.001      110.592
     NS sqrt iter    4 1.00000000   0.980E-02       0.001      110.592
     NS sqrt iter    5 1.00000000   0.566E-05       0.001       82.944
     Symmetrizing Results
     Final NS sqrt iter    5 1.00000000   0.492E-10

     Est. extremal eigenvalues     -0.92670     1.78794  converged:  T
     TRS4 it   1 1.00000000   0.877E+00       0.000       16.128   0.100E-07
     TRS4 it   2 1.00000000   0.657E+00       0.000       32.256   0.100E-07
     TRS4 it   3 1.00000000   0.467E+00       0.000       32.256   0.100E-07
     TRS4 it   4 1.00000000   0.272E+00       0.000       32.256   0.100E-07
     TRS4 it   5 1.00000000   0.117E+00       0.000       32.256   0.100E-07
     TRS4 it   6 1.00000000   0.277E-01       0.000       32.256   0.100E-07
     TRS4 it   7 1.00000000   0.220E-02       0.000       32.256   0.100E-07
     TRS4 it   8 1.00000000   0.194E-04       0.000       32.256   0.100E-07
     TRS4 it   9 1.00000000   0.167E-08       0.000       32.256   0.100E-07
     Final TRS4 iteration    9 1.00000000   0.167E-08
     Chemical potential (mu):      -0.03992
 
 PAO| energy:  -7.7184839568936701      penalty:   3.5965621447301751E-007
 PAO|LS| adapt:  T T F
 PAO|LS| adapt: scan_steps:    0.0000000000000000       0.20000000000000001        0.0000000000000000     
 PAO|LS| adapt: energies:   -7.6199250786209332       -7.7184839568936701        0.0000000000000000     
 PAO| ======================= Iteration:         4 =============================

     Lanczos converged:  T threshold:   0.100E-02
     Est. extremal eigenvalues:    0.299E+01   0.157E+00
     Est. condition number :    0.191E+02

 Order=           3
     NS sqrt iter    1 1.00000000   0.750E+00       0.001       64.512
     NS sqrt iter    2 1.00000000   0.374E+00       0.001      110.592
     NS sqrt iter    3 1.00000000   0.106E+00       0.001      110.592
     NS sqrt iter    4 1.00000000   0.478E-02       0.001      110.592
     NS sqrt iter    5 1.00000000   0.810E-06       0.001       82.944
     Symmetrizing Results
     Final NS sqrt iter    5 1.00000000   0.111E-11

     Est. extremal eigenvalues     -0.93204     1.72397  converged:  T
     TRS4 it   1 1.00000000   0.872E+00       0.000       16.128   0.100E-07
     TRS4 it   2 1.00000000   0.630E+00       0.000       32.256   0.100E-07
     TRS4 it   3 1.00000000   0.438E+00       0.000       32.256   0.100E-07
     TRS4 it   4 1.00000000   0.235E+00       0.000       32.256   0.100E-07
     TRS4 it   5 1.00000000   0.853E-01       0.000       32.256   0.100E-07
     TRS4 it   6 1.00000000   0.142E-01       0.000       32.256   0.100E-07
     TRS4 it   7 1.00000000   0.552E-03       0.000       32.256   0.100E-07
     TRS4 it   8 1.00000000   0.119E-05       0.000       32.256   0.100E-07
     TRS4 it   9 1.00000000   0.631E-11       0.000       32.256   0.100E-07
     Final TRS4 iteration    9 1.00000000   0.631E-11
     Chemical potential (mu):      -0.01126
 
 PAO| energy:  -7.7657618475710271      penalty:   5.7544983697350671E-006
 PAO|LS| Need extra step
 PAO|LS| adapt:  T T F
 PAO|LS| adapt: scan_steps:    0.0000000000000000       0.40000000000000002        0.0000000000000000     
 PAO|LS| adapt: energies:   -7.6199250786209332       -7.7657618475710271        0.0000000000000000     
 PAO| ======================= Iteration:         5 =============================

     Lanczos converged:  T threshold:   0.100E-02
     Est. extremal eigenvalues:    0.263E+01   0.184E+00
     Est. condition number :    0.143E+02

 Order=           3
     NS sqrt iter    1 1.00000000   0.687E+00       0.001       64.512
     NS sqrt iter    2 1.00000000   0.313E+00       0.001      110.592
     NS sqrt iter    3 1.00000000   0.654E-01       0.001      110.592
     NS sqrt iter    4 1.00000000   0.132E-02       0.001      110.592
     NS sqrt iter    5 1.00000000   0.227E-07       0.001       55.936
     Symmetrizing Results
     Final NS sqrt iter    5 1.00000000   0.238E-08

     Est. extremal eigenvalues     -0.93330     1.65238  converged:  T
     TRS4 it   1 1.00000000   0.867E+00       0.000       16.128   0.100E-07
     TRS4 it   2 1.00000000   0.593E+00       0.000       32.256   0.100E-07
     TRS4 it   3 1.00000000   0.389E+00       0.000       32.256   0.100E-07
     TRS4 it   4 1.00000000   0.179E+00       0.000       32.256   0.100E-07
     TRS4 it   5 1.00000000   0.456E-01       0.000       32.256   0.100E-07
     TRS4 it   6 1.00000000   0.367E-02       0.000       32.256   0.100E-07
     TRS4 it   7 1.00000000   0.309E-04       0.000       32.256   0.100E-07
     TRS4 it   8 1.00000000   0.276E-08       0.000       32.256   0.100E-07
     Final TRS4 iteration    8 1.00000000   0.276E-08
     Chemical potential (mu):       0.03808
 
 PAO| energy:  -7.7110799217961485      penalty:   9.2071965421142043E-005
 PAO|LS| Need extra step
 PAO|LS| adapt:  T T T
 PAO|LS| adapt: scan_steps:    0.0000000000000000       0.40000000000000002       0.80000000000000004     
 PAO|LS| adapt: energies:   -7.6199250786209332       -7.7657618475710271       -7.7110799217961485     
 PAO|LS| adapt: suggested step_size:   0.49091904702475914     
 PAO|LS| adapt: predicted energy  -7.7709416672417655     
 PAO| ======================= Iteration:         6 =============================

     Lanczos converged:  T threshold:   0.100E-02
     Est. extremal eigenvalues:    0.290E+01   0.163E+00
     Est. condition number :    0.177E+02

 Order=           3
     NS sqrt iter    1 1.00000000   0.734E+00       0.001       64.512
     NS sqrt iter    2 1.00000000   0.359E+00       0.001      110.592
     NS sqrt iter    3 1.00000000   0.947E-01       0.001      110.592
     NS sqrt iter    4 1.00000000   0.351E-02       0.001      110.592
     NS sqrt iter    5 1.00000000   0.355E-06       0.001       82.432
     Symmetrizing Results
     Final NS sqrt iter    5 1.00000000   0.159E-09

     Est. extremal eigenvalues     -0.93352     1.70259  converged:  T
     TRS4 it   1 1.00000000   0.871E+00       0.000       16.128   0.100E-07
     TRS4 it   2 1.00000000   0.619E+00       0.000       32.256   0.100E-07
     TRS4 it   3 1.00000000   0.425E+00       0.000       32.256   0.100E-07
     TRS4 it   4 1.00000000   0.220E+00       0.000       32.256   0.100E-07
     TRS4 it   5 1.00000000   0.735E-01       0.000       32.256   0.100E-07
     TRS4 it   6 1.00000000   0.103E-01       0.000       32.256   0.100E-07
     TRS4 it   7 1.00000000   0.277E-03       0.000       32.256   0.100E-07
     TRS4 it   8 1.00000000   0.287E-06       0.000       32.256   0.100E-07
     TRS4 it   9 1.00000000   0.363E-12       0.000       32.256   0.100E-07
     Final TRS4 iteration    9 1.00000000   0.363E-12
     Chemical potential (mu):       0.00260
 
 PAO| energy:  -7.7702233744242362      penalty:   1.3055906198136518E-005
 PAO|CG| warming up with steepest descent
 PAO|CG| beta:    0.0000000000000000     
 PAO| norm of gradient:  0.41763005126451647     
 PAO| energy improvement: -0.15029829580330301     
 PAO| step      6                   -7.770223374  0.261E-01  0.491E+00     0.059
 PAO|LS| adapt:  T F F
 PAO|LS| adapt: scan_steps:    0.0000000000000000        0.0000000000000000        0.0000000000000000     
 PAO|LS| adapt: energies:   -7.7702233744242362        0.0000000000000000        0.0000000000000000     
 PAO| ======================= Iteration:         7 =============================

     Lanczos converged:  T threshold:   0.100E-02
     Est. extremal eigenvalues:    0.281E+01   0.177E+00
     Est. condition number :    0.159E+02

 Order=           3
     NS sqrt iter    1 1.00000000   0.716E+00       0.001       64.512
     NS sqrt iter    2 1.00000000   0.338E+00       0.001      110.592
     NS sqrt iter    3 1.00000000   0.791E-01       0.001      110.592
     NS sqrt iter    4 1.00000000   0.213E-02       0.001      110.592
     NS sqrt iter    5 1.00000000   0.887E-07       0.001       76.160
     Symmetrizing Results
     Final NS sqrt iter    5 1.00000000   0.925E-09

     Est. extremal eigenvalues     -0.93525     1.69003  converged:  T
     TRS4 it   1 1.00000000   0.870E+00       0.000       16.128   0.100E-07
     TRS4 it   2 1.00000000   0.618E+00       0.000       32.256   0.100E-07
     TRS4 it   3 1.00000000   0.425E+00       0.000       32.256   0.100E-07
     TRS4 it   4 1.00000000   0.221E+00       0.000       32.256   0.100E-07
     TRS4 it   5 1.00000000   0.741E-01       0.000       32.256   0.100E-07
     TRS4 it   6 1.00000000   0.102E-01       0.000       32.256   0.100E-07
     TRS4 it   7 1.00000000   0.258E-03       0.000       32.256   0.100E-07
     TRS4 it   8 1.00000000   0.234E-06       0.000       32.256   0.100E-07
     TRS4 it   9 1.00000000   0.238E-12       0.000       32.256   0.100E-07
     Final TRS4 iteration    9 1.00000000   0.238E-12
     Chemical potential (mu):       0.00480
 
 PAO| energy:  -7.7642828927826510      penalty:   1.9795155465452485E-005
 PAO|LS| adapt:  T F T
 PAO|LS| adapt: scan_steps:    0.0000000000000000        0.0000000000000000       0.49091904702475914     
 PAO|LS| adapt: energies:   -7.7702233744242362        0.0000000000000000       -7.7642828927826510     
 PAO| ======================= Iteration:         8 =============================

     Lanczos converged:  T threshold:   0.100E-02
     Est. extremal eigenvalues:    0.285E+01   0.170E+00
     Est. condition number :    0.168E+02

 Order=           3
     NS sqrt iter    1 1.00000000   0.725E+00       0.001       64.512
     NS sqrt iter    2 1.00000000   0.349E+00       0.001      110.592
     NS sqrt iter    3 1.00000000   0.867E-01       0.001      110.592
     NS sqrt iter    4 1.00000000   0.275E-02       0.001      110.592
     NS sqrt iter    5 1.00000000   0.181E-06       0.001       80.128
     Symmetrizing Results
     Final NS sqrt iter    5 1.00000000   0.846E-09

     Est. extremal eigenvalues     -0.93534     1.69566  converged:  T
     TRS4 it   1 1.00000000   0.870E+00       0.000       16.128   0.100E-07
     TRS4 it   2 1.00000000   0.618E+00       0.000       32.256   0.100E-07
     TRS4 it   3 1.00000000   0.425E+00       0.000       32.256   0.100E-07
     TRS4 it   4 1.00000000   0.220E+00       0.000       32.256   0.100E-07
     TRS4 it   5 1.00000000   0.736E-01       0.000       32.256   0.100E-07
     TRS4 it   6 1.00000000   0.103E-01       0.000       32.256   0.100E-07
     TRS4 it   7 1.00000000   0.274E-03       0.000       32.256   0.100E-07
     TRS4 it   8 1.00000000   0.275E-06       0.000       32.256   0.100E-07
     TRS4 it   9 1.00000000   0.332E-12       0.000       32.256   0.100E-07
     Final TRS4 iteration    9 1.00000000   0.332E-12
     Chemical potential (mu):       0.00324
 
 PAO| energy:  -7.7899023012665873      penalty:   1.4163619724225336E-005
 PAO|LS| adapt:  T T T
 PAO|LS| adapt: scan_steps:    0.0000000000000000       0.24545952351237957       0.49091904702475914     
 PAO|LS| adapt: energies:   -7.7702233744242362       -7.7899023012665873       -7.7642828927826510     
 PAO|LS| adapt: suggested step_size:   0.22936458555633363     
 PAO|LS| adapt: predicted energy  -7.7899996815618016     
 PAO| ======================= Iteration:         9 =============================

     Lanczos converged:  T threshold:   0.100E-02
     Est. extremal eigenvalues:    0.286E+01   0.170E+00
     Est. condition number :    0.168E+02

 Order=           3
     NS sqrt iter    1 1.00000000   0.726E+00       0.001       64.512
     NS sqrt iter    2 1.00000000   0.349E+00       0.001      110.592
     NS sqrt iter    3 1.00000000   0.872E-01       0.001      110.592
     NS sqrt iter    4 1.00000000   0.280E-02       0.001      110.592
     NS sqrt iter    5 1.00000000   0.189E-06       0.001       80.128
     Symmetrizing Results
     Final NS sqrt iter    5 1.00000000   0.887E-09

     Est. extremal eigenvalues     -0.93528     1.69607  converged:  T
     TRS4 it   1 1.00000000   0.870E+00       0.000       16.128   0.100E-07
     TRS4 it   2 1.00000000   0.618E+00       0.000       32.256   0.100E-07
     TRS4 it   3 1.00000000   0.425E+00       0.000       32.256   0.100E-07
     TRS4 it   4 1.00000000   0.220E+00       0.000       32.256   0.100E-07
     TRS4 it   5 1.00000000   0.736E-01       0.000       32.256   0.100E-07
     TRS4 it   6 1.00000000   0.103E-01       0.000       32.256   0.100E-07
     TRS4 it   7 1.00000000   0.275E-03       0.000       32.256   0.100E-07
     TRS4 it   8 1.00000000   0.277E-06       0.000       32.256   0.100E-07
     TRS4 it   9 1.00000000   0.337E-12       0.000       32.256   0.100E-07
     Final TRS4 iteration    9 1.00000000   0.337E-12
     Chemical potential (mu):       0.00316
 
 PAO| energy:  -7.7900238632588970      penalty:   1.3990858463673267E-005
 PAO|CG| trace_G_new    3.6930549052996614E-002
 PAO|CG| trace_G_prev   0.17441485971920265     
 PAO|CG| trace_G_mix   -1.4546483940827701E-003
 PAO|CG| trace_D   0.17441485971920265     
 PAO|CG| trace_D_Gnew   1.4546483940827701E-003
 PAO|CG| beta:   0.22007985735204685     
 PAO| norm of gradient:  0.19217322668102499     
 PAO| energy improvement:  -1.9800488834660790E-002
 PAO| step      9                   -7.790023863  0.120E-01  0.229E+00     0.037
 PAO|LS| adapt:  T F F
 PAO|LS| adapt: scan_steps:    0.0000000000000000        0.0000000000000000        0.0000000000000000     
 PAO|LS| adapt: energies:   -7.7900238632588970        0.0000000000000000        0.0000000000000000     
 PAO| ======================= Iteration:        10 =============================

     Lanczos converged:  T threshold:   0.100E-02
     Est. extremal eigenvalues:    0.282E+01   0.176E+00
     Est. condition number :    0.161E+02

 Order=           3
     NS sqrt iter    1 1.00000000   0.718E+00       0.001       64.512
     NS sqrt iter    2 1.00000000   0.341E+00       0.001      110.592
     NS sqrt iter    3 1.00000000   0.816E-01       0.001      110.592
     NS sqrt iter    4 1.00000000   0.230E-02       0.001      110.592
     NS sqrt iter    5 1.00000000   0.106E-06       0.001       76.800
     Symmetrizing Results
     Final NS sqrt iter    5 1.00000000   0.108E-08

     Est. extremal eigenvalues     -0.93617     1.69254  converged:  T
     TRS4 it   1 1.00000000   0.868E+00       0.000       16.128   0.100E-07
     TRS4 it   2 1.00000000   0.617E+00       0.000       32.256   0.100E-07
     TRS4 it   3 1.00000000   0.423E+00       0.000       32.256   0.100E-07
     TRS4 it   4 1.00000000   0.218E+00       0.000       32.256   0.100E-07
     TRS4 it   5 1.00000000   0.716E-01       0.000       32.256   0.100E-07
     TRS4 it   6 1.00000000   0.973E-02       0.000       32.256   0.100E-07
     TRS4 it   7 1.00000000   0.240E-03       0.000       32.256   0.100E-07
     TRS4 it   8 1.00000000   0.205E-06       0.000       32.256   0.100E-07
     TRS4 it   9 1.00000000   0.183E-12       0.000       32.256   0.100E-07
     Final TRS4 iteration    9 1.00000000   0.183E-12
     Chemical potential (mu):       0.00635
 
 PAO| energy:  -7.7950725065409765      penalty:   1.4533386148129070E-005
 PAO|LS| adapt:  T T F
 PAO|LS| adapt: scan_steps:    0.0000000000000000       0.22936458555633363        0.0000000000000000     
 PAO|LS| adapt: energies:   -7.7900238632588970       -7.7950725065409765        0.0000000000000000     
 PAO| ======================= Iteration:        11 =============================

     Lanczos converged:  T threshold:   0.100E-02
     Est. extremal eigenvalues:    0.278E+01   0.181E+00
     Est. condition number :    0.153E+02

 Order=           3
     NS sqrt iter    1 1.00000000   0.710E+00       0.001       64.512
     NS sqrt iter    2 1.00000000   0.333E+00       0.001      110.592
     NS sqrt iter    3 1.00000000   0.762E-01       0.001      110.592
     NS sqrt iter    4 1.00000000   0.188E-02       0.001      110.592
     NS sqrt iter    5 1.00000000   0.582E-07       0.001       72.192
     Symmetrizing Results
     Final NS sqrt iter    5 1.00000000   0.543E-09

     Est. extremal eigenvalues     -0.93608     1.69042  converged:  T
     TRS4 it   1 1.00000000   0.867E+00       0.000       16.128   0.100E-07
     TRS4 it   2 1.00000000   0.616E+00       0.000       32.256   0.100E-07
     TRS4 it   3 1.00000000   0.421E+00       0.000       32.256   0.100E-07
     TRS4 it   4 1.00000000   0.215E+00       0.000       32.256   0.100E-07
     TRS4 it   5 1.00000000   0.698E-01       0.000       32.256   0.100E-07
     TRS4 it   6 1.00000000   0.918E-02       0.000       32.256   0.100E-07
     TRS4 it   7 1.00000000   0.209E-03       0.000       32.256   0.100E-07
     TRS4 it   8 1.00000000   0.152E-06       0.000       32.256   0.100E-07
     TRS4 it   9 1.00000000   0.980E-13       0.000       32.256   0.100E-07
     Final TRS4 iteration    9 1.00000000   0.980E-13
     Chemical potential (mu):       0.00965
 
 PAO| energy:  -7.7936670427271704      penalty:   1.5748388370988691E-005
 PAO|LS| adapt:  T T T
 PAO|LS| adapt: scan_steps:    0.0000000000000000       0.22936458555633363       0.45872917111266726     
 PAO|LS| adapt: energies:   -7.7900238632588970       -7.7950725065409765       -7.7936670427271704     
 PAO|LS| adapt: suggested step_size:   0.29409982595702050     
 PAO|LS| adapt: predicted energy  -7.7953295668213709     
 PAO| ======================= Iteration:        12 =============================

     Lanczos converged:  T threshold:   0.100E-02
     Est. extremal eigenvalues:    0.281E+01   0.177E+00
     Est. condition number :    0.159E+02

 Order=           3
     NS sqrt iter    1 1.00000000   0.716E+00       0.001       64.512
     NS sqrt iter    2 1.00000000   0.339E+00       0.001      110.592
     NS sqrt iter    3 1.00000000   0.801E-01       0.001      110.592
     NS sqrt iter    4 1.00000000   0.217E-02       0.001      110.592
     NS sqrt iter    5 1.00000000   0.895E-07       0.001       75.776
     Symmetrizing Results
     Final NS sqrt iter    5 1.00000000   0.854E-09

     Est. extremal eigenvalues     -0.93624     1.69180  converged:  T
     TRS4 it   1 1.00000000   0.868E+00       0.000       16.128   0.100E-07
     TRS4 it   2 1.00000000   0.617E+00       0.000       32.256   0.100E-07
     TRS4 it   3 1.00000000   0.423E+00       0.000       32.256   0.100E-07
     TRS4 it   4 1.00000000   0.217E+00       0.000       32.256   0.100E-07
     TRS4 it   5 1.00000000   0.711E-01       0.000       32.256   0.100E-07
     TRS4 it   6 1.00000000   0.957E-02       0.000       32.256   0.100E-07
     TRS4 it   7 1.00000000   0.231E-03       0.000       32.256   0.100E-07
     TRS4 it   8 1.00000000   0.189E-06       0.000       32.256   0.100E-07
     TRS4 it   9 1.00000000   0.153E-12       0.000       32.256   0.100E-07
     Final TRS4 iteration    9 1.00000000   0.153E-12
     Chemical potential (mu):       0.00727
 
 PAO| energy:  -7.7953133733726476      penalty:   1.4800498204644632E-005
 PAO|CG| trace_G_new    1.1852229054592595E-002
 PAO|CG| trace_G_prev    3.6930549052996614E-002
 PAO|CG| trace_G_mix   -4.5563427003699657E-004
 PAO|CG| trace_D    4.4738080209445766E-002
 PAO|CG| trace_D_Gnew   2.0799398725533289E-004
 PAO|CG| beta:   0.33327052102494825     
 PAO| norm of gradient:  0.10886794319078778     
 PAO| energy improvement:  -5.2895101137506728E-003
 PAO| step     12                   -7.795313373  0.680E-02  0.294E+00     0.037
 PAO|LS| adapt:  T F F
 PAO|LS| adapt: scan_steps:    0.0000000000000000        0.0000000000000000        0.0000000000000000     
 PAO|LS| adapt: energies:   -7.7953133733726476        0.0000000000000000        0.0000000000000000     
 PAO| ======================= Iteration:        13 =============================

     Lanczos converged:  T threshold:   0.100E-02
     Est. extremal eigenvalues:    0.278E+01   0.181E+00
     Est. condition number :    0.153E+02

 Order=           3
     NS sqrt iter    1 1.00000000   0.709E+00       0.001       64.512
     NS sqrt iter    2 1.00000000   0.332E+00       0.001      110.592
     NS sqrt iter    3 1.00000000   0.757E-01       0.001      110.592
     NS sqrt iter    4 1.00000000   0.185E-02       0.001      110.592
     NS sqrt iter    5 1.00000000   0.562E-07       0.001       71.680
     Symmetrizing Results
     Final NS sqrt iter    5 1.00000000   0.552E-09

     Est. extremal eigenvalues     -0.93673     1.68585  converged:  T
     TRS4 it   1 1.00000000   0.867E+00       0.000       16.128   0.100E-07
     TRS4 it   2 1.00000000   0.614E+00       0.000       32.256   0.100E-07
     TRS4 it   3 1.00000000   0.419E+00       0.000       32.256   0.100E-07
     TRS4 it   4 1.00000000   0.212E+00       0.000       32.256   0.100E-07
     TRS4 it   5 1.00000000   0.676E-01       0.000       32.256   0.100E-07
     TRS4 it   6 1.00000000   0.860E-02       0.000       32.256   0.100E-07
     TRS4 it   7 1.00000000   0.183E-03       0.000       32.256   0.100E-07
     TRS4 it   8 1.00000000   0.116E-06       0.000       32.256   0.100E-07
     TRS4 it   9 1.00000000   0.571E-13       0.000       32.256   0.100E-07
     Final TRS4 iteration    9 1.00000000   0.571E-13
     Chemical potential (mu):       0.01185
 
 PAO| energy:  -7.7973875469487428      penalty:   1.5112623388233539E-005
 PAO|LS| adapt:  T T F
 PAO|LS| adapt: scan_steps:    0.0000000000000000       0.29409982595702050        0.0000000000000000     
 PAO|LS| adapt: energies:   -7.7953133733726476       -7.7973875469487428        0.0000000000000000     
 PAO| ======================= Iteration:        14 =============================

     Lanczos converged:  T threshold:   0.100E-02
     Est. extremal eigenvalues:    0.274E+01   0.185E+00
     Est. condition number :    0.148E+02

 Order=           3
     NS sqrt iter    1 1.00000000   0.702E+00       0.001       64.512
     NS sqrt iter    2 1.00000000   0.325E+00       0.001      110.592
     NS sqrt iter    3 1.00000000   0.716E-01       0.001      110.592
     NS sqrt iter    4 1.00000000   0.158E-02       0.001      110.592
     NS sqrt iter    5 1.00000000   0.351E-07       0.001       65.152
     Symmetrizing Results
     Final NS sqrt iter    5 1.00000000   0.224E-08

     Est. extremal eigenvalues     -0.93670     1.68022  converged:  T
     TRS4 it   1 1.00000000   0.867E+00       0.000       16.128   0.100E-07
     TRS4 it   2 1.00000000   0.611E+00       0.000       32.256   0.100E-07
     TRS4 it   3 1.00000000   0.415E+00       0.000       32.256   0.100E-07
     TRS4 it   4 1.00000000   0.207E+00       0.000       32.256   0.100E-07
     TRS4 it   5 1.00000000   0.643E-01       0.000       32.256   0.100E-07
     TRS4 it   6 1.00000000   0.772E-02       0.000       32.256   0.100E-07
     TRS4 it   7 1.00000000   0.146E-03       0.000       32.256   0.100E-07
     TRS4 it   8 1.00000000   0.716E-07       0.000       32.256   0.100E-07
     Final TRS4 iteration    8 1.00000000   0.716E-07
     Chemical potential (mu):       0.01363
 
 PAO| energy:  -7.7967292167654030      penalty:   1.5908822244027217E-005
 PAO|LS| adapt:  T T T
 PAO|LS| adapt: scan_steps:    0.0000000000000000       0.29409982595702050       0.58819965191404100     
 PAO|LS| adapt: energies:   -7.7953133733726476       -7.7973875469487428       -7.7967292167654030     
 PAO|LS| adapt: suggested step_size:   0.37029355377056333     
 PAO|LS| adapt: predicted energy  -7.7974792491333185     
 PAO| ======================= Iteration:        15 =============================

     Lanczos converged:  T threshold:   0.100E-02
     Est. extremal eigenvalues:    0.277E+01   0.182E+00
     Est. condition number :    0.152E+02

 Order=           3
     NS sqrt iter    1 1.00000000   0.707E+00       0.001       64.512
     NS sqrt iter    2 1.00000000   0.330E+00       0.001      110.592
     NS sqrt iter    3 1.00000000   0.746E-01       0.001      110.592
     NS sqrt iter    4 1.00000000   0.178E-02       0.001      110.592
     NS sqrt iter    5 1.00000000   0.498E-07       0.001       70.656
     Symmetrizing Results
     Final NS sqrt iter    5 1.00000000   0.367E-09

     Est. extremal eigenvalues     -0.93677     1.68436  converged:  T
     TRS4 it   1 1.00000000   0.867E+00       0.000       16.128   0.100E-07
     TRS4 it   2 1.00000000   0.613E+00       0.000       32.256   0.100E-07
     TRS4 it   3 1.00000000   0.418E+00       0.000       32.256   0.100E-07
     TRS4 it   4 1.00000000   0.211E+00       0.000       32.256   0.100E-07
     TRS4 it   5 1.00000000   0.667E-01       0.000       32.256   0.100E-07
     TRS4 it   6 1.00000000   0.836E-02       0.000       32.256   0.100E-07
     TRS4 it   7 1.00000000   0.173E-03       0.000       32.256   0.100E-07
     TRS4 it   8 1.00000000   0.102E-06       0.000       32.256   0.100E-07
     TRS4 it   9 1.00000000   0.447E-13       0.000       32.256   0.100E-07
     Final TRS4 iteration    9 1.00000000   0.447E-13
     Chemical potential (mu):       0.01302
 
 PAO| energy:  -7.7974762162049913      penalty:   1.5269391929673797E-005
 PAO|CG| trace_G_new    2.6188124758088301E-003
 PAO|CG| trace_G_prev    1.1852229054592595E-002
 PAO|CG| trace_G_mix    6.4798329020636581E-005
 PAO|CG| trace_D    1.6682617101752058E-002
 PAO|CG| trace_D_Gnew   3.4053998856052212E-005
 PAO|CG| beta:   0.21548808540774395     
 PAO| norm of gradient:   5.1174334151103812E-002
 PAO| energy improvement:  -2.1628428323436921E-003
 PAO| step     15                   -7.797476216  0.320E-02  0.370E+00     0.036
 PAO|LS| adapt:  T F F
 PAO|LS| adapt: scan_steps:    0.0000000000000000        0.0000000000000000        0.0000000000000000     
 PAO|LS| adapt: energies:   -7.7974762162049913        0.0000000000000000        0.0000000000000000     
 PAO| ======================= Iteration:        16 =============================

     Lanczos converged:  T threshold:   0.100E-02
     Est. extremal eigenvalues:    0.276E+01   0.183E+00
     Est. condition number :    0.151E+02

 Order=           3
     NS sqrt iter    1 1.00000000   0.705E+00       0.001       64.512
     NS sqrt iter    2 1.00000000   0.329E+00       0.001      110.592
     NS sqrt iter    3 1.00000000   0.740E-01       0.001      110.592
     NS sqrt iter    4 1.00000000   0.173E-02       0.001      110.592
     NS sqrt iter    5 1.00000000   0.454E-07       0.001       69.888
     Symmetrizing Results
     Final NS sqrt iter    5 1.00000000   0.338E-09

     Est. extremal eigenvalues     -0.93679     1.68418  converged:  T
     TRS4 it   1 1.00000000   0.868E+00       0.000       16.128   0.100E-07
     TRS4 it   2 1.00000000   0.612E+00       0.000       32.256   0.100E-07
     TRS4 it   3 1.00000000   0.416E+00       0.000       32.256   0.100E-07
     TRS4 it   4 1.00000000   0.209E+00       0.000       32.256   0.100E-07
     TRS4 it   5 1.00000000   0.656E-01       0.000       32.256   0.100E-07
     TRS4 it   6 1.00000000   0.810E-02       0.000       32.256   0.100E-07
     TRS4 it   7 1.00000000   0.163E-03       0.000       32.256   0.100E-07
     TRS4 it   8 1.00000000   0.919E-07       0.000       32.256   0.100E-07
     TRS4 it   9 1.00000000   0.365E-13       0.000       32.256   0.100E-07
     Final TRS4 iteration    9 1.00000000   0.365E-13
     Chemical potential (mu):       0.01386
 
 PAO| energy:  -7.7976028986853034      penalty:   1.5050743345969954E-005
 PAO|LS| adapt:  T T F
 PAO|LS| adapt: scan_steps:    0.0000000000000000       0.37029355377056333        0.0000000000000000     
 PAO|LS| adapt: energies:   -7.7974762162049913       -7.7976028986853034        0.0000000000000000     
 PAO| ======================= Iteration:        17 =============================

     Lanczos converged:  T threshold:   0.100E-02
     Est. extremal eigenvalues:    0.275E+01   0.184E+00
     Est. condition number :    0.150E+02

 Order=           3
     NS sqrt iter    1 1.00000000   0.703E+00       0.001       64.512
     NS sqrt iter    2 1.00000000   0.327E+00       0.001      110.592
     NS sqrt iter    3 1.00000000   0.733E-01       0.001      110.592
     NS sqrt iter    4 1.00000000   0.168E-02       0.001      110.592
     NS sqrt iter    5 1.00000000   0.415E-07       0.001       69.504
     Symmetrizing Results
     Final NS sqrt iter    5 1.00000000   0.337E-09

     Est. extremal eigenvalues     -0.93670     1.68409  converged:  T
     TRS4 it   1 1.00000000   0.868E+00       0.000       16.128   0.100E-07
     TRS4 it   2 1.00000000   0.611E+00       0.000       32.256   0.100E-07
     TRS4 it   3 1.00000000   0.415E+00       0.000       32.256   0.100E-07
     TRS4 it   4 1.00000000   0.208E+00       0.000       32.256   0.100E-07
     TRS4 it   5 1.00000000   0.646E-01       0.000       32.256   0.100E-07
     TRS4 it   6 1.00000000   0.784E-02       0.000       32.256   0.100E-07
     TRS4 it   7 1.00000000   0.154E-03       0.000       32.256   0.100E-07
     TRS4 it   8 1.00000000   0.826E-07       0.000       32.256   0.100E-07
     TRS4 it   9 1.00000000   0.294E-13       0.000       32.256   0.100E-07
     Final TRS4 iteration    9 1.00000000   0.294E-13
     Chemical potential (mu):       0.01467
 
 PAO| energy:  -7.7960431563284684      penalty:   1.4957598258736063E-005
 PAO|LS| adapt:  T T T
 PAO|LS| adapt: scan_steps:    0.0000000000000000       0.37029355377056333       0.74058710754112667     
 PAO|LS| adapt: energies:   -7.7974762162049913       -7.7976028986853034       -7.7960431563284684     
 PAO|LS| adapt: suggested step_size:   0.21296284363308771     
 PAO|LS| adapt: predicted energy  -7.7977551186778928     
 PAO| ======================= Iteration:        18 =============================

     Lanczos converged:  T threshold:   0.100E-02
     Est. extremal eigenvalues:    0.276E+01   0.183E+00
     Est. condition number :    0.151E+02

 Order=           3
     NS sqrt iter    1 1.00000000   0.706E+00       0.001       64.512
     NS sqrt iter    2 1.00000000   0.329E+00       0.001      110.592
     NS sqrt iter    3 1.00000000   0.743E-01       0.001      110.592
     NS sqrt iter    4 1.00000000   0.175E-02       0.001      110.592
     NS sqrt iter    5 1.00000000   0.472E-07       0.001       70.016
     Symmetrizing Results
     Final NS sqrt iter    5 1.00000000   0.349E-09

     Est. extremal eigenvalues     -0.93680     1.68425  converged:  T
     TRS4 it   1 1.00000000   0.867E+00       0.000       16.128   0.100E-07
     TRS4 it   2 1.00000000   0.612E+00       0.000       32.256   0.100E-07
     TRS4 it   3 1.00000000   0.417E+00       0.000       32.256   0.100E-07
     TRS4 it   4 1.00000000   0.210E+00       0.000       32.256   0.100E-07
     TRS4 it   5 1.00000000   0.661E-01       0.000       32.256   0.100E-07
     TRS4 it   6 1.00000000   0.821E-02       0.000       32.256   0.100E-07
     TRS4 it   7 1.00000000   0.167E-03       0.000       32.256   0.100E-07
     TRS4 it   8 1.00000000   0.962E-07       0.000       32.256   0.100E-07
     TRS4 it   9 1.00000000   0.392E-13       0.000       32.256   0.100E-07
     Final TRS4 iteration    9 1.00000000   0.392E-13
     Chemical potential (mu):       0.01351
 
 PAO| energy:  -7.7977546428538682      penalty:   1.5128578396007777E-005
 PAO|CG| trace_G_new    7.3147539651523751E-004
 PAO|CG| trace_G_prev    2.6188124758088301E-003
 PAO|CG| trace_G_mix    1.7406647778498910E-006
 PAO|CG| trace_D    3.3787952566125493E-003
 PAO|CG| trace_D_Gnew  -1.8155520962451507E-006
 PAO|CG| beta:   0.27865100631613809     
 PAO| norm of gradient:   2.7045801827922159E-002
 PAO| energy improvement:  -2.7842664887689494E-004
 PAO| step     18                   -7.797754643  0.169E-02  0.213E+00     0.036
 PAO|LS| adapt:  T F F
 PAO|LS| adapt: scan_steps:    0.0000000000000000        0.0000000000000000        0.0000000000000000     
 PAO|LS| adapt: energies:   -7.7977546428538682        0.0000000000000000        0.0000000000000000     
 PAO| ======================= Iteration:        19 =============================

     Lanczos converged:  T threshold:   0.100E-02
     Est. extremal eigenvalues:    0.276E+01   0.183E+00
     Est. condition number :    0.151E+02

 Order=           3
     NS sqrt iter    1 1.00000000   0.706E+00       0.001       64.512
     NS sqrt iter    2 1.00000000   0.329E+00       0.001      110.592
     NS sqrt iter    3 1.00000000   0.745E-01       0.001      110.592
     NS sqrt iter    4 1.00000000   0.176E-02       0.001      110.592
     NS sqrt iter    5 1.00000000   0.477E-07       0.001       70.016
     Symmetrizing Results
     Final NS sqrt iter    5 1.00000000   0.356E-09

     Est. extremal eigenvalues     -0.93680     1.68455  converged:  T
     TRS4 it   1 1.00000000   0.868E+00       0.000       16.128   0.100E-07
     TRS4 it   2 1.00000000   0.612E+00       0.000       32.256   0.100E-07
     TRS4 it   3 1.00000000   0.417E+00       0.000       32.256   0.100E-07
     TRS4 it   4 1.00000000   0.210E+00       0.000       32.256   0.100E-07
     TRS4 it   5 1.00000000   0.660E-01       0.000       32.256   0.100E-07
     TRS4 it   6 1.00000000   0.820E-02       0.000       32.256   0.100E-07
     TRS4 it   7 1.00000000   0.168E-03       0.000       32.256   0.100E-07
     TRS4 it   8 1.00000000   0.977E-07       0.000       32.256   0.100E-07
     TRS4 it   9 1.00000000   0.410E-13       0.000       32.256   0.100E-07
     Final TRS4 iteration    9 1.00000000   0.410E-13
     Chemical potential (mu):       0.01324
 
 PAO| energy:  -7.7978734893596613      penalty:   1.4838363937580594E-005
 PAO|LS| adapt:  T T F
 PAO|LS| adapt: scan_steps:    0.0000000000000000       0.21296284363308771        0.0000000000000000     
 PAO|LS| adapt: energies:   -7.7977546428538682       -7.7978734893596613        0.0000000000000000     
 PAO| ======================= Iteration:        20 =============================

     Lanczos converged:  T threshold:   0.100E-02
     Est. extremal eigenvalues:    0.276E+01   0.182E+00
     Est. condition number :    0.151E+02

 Order=           3
     NS sqrt iter    1 1.00000000   0.706E+00       0.001       64.512
     NS sqrt iter    2 1.00000000   0.329E+00       0.001      110.592
     NS sqrt iter    3 1.00000000   0.747E-01       0.001      110.592
     NS sqrt iter    4 1.00000000   0.177E-02       0.001      110.592
     NS sqrt iter    5 1.00000000   0.482E-07       0.001       70.272
     Symmetrizing Results
     Final NS sqrt iter    5 1.00000000   0.375E-09

     Est. extremal eigenvalues     -0.93680     1.68486  converged:  T
     TRS4 it   1 1.00000000   0.868E+00       0.000       16.128   0.100E-07
     TRS4 it   2 1.00000000   0.612E+00       0.000       32.256   0.100E-07
     TRS4 it   3 1.00000000   0.417E+00       0.000       32.256   0.100E-07
     TRS4 it   4 1.00000000   0.210E+00       0.000       32.256   0.100E-07
     TRS4 it   5 1.00000000   0.659E-01       0.000       32.256   0.100E-07
     TRS4 it   6 1.00000000   0.819E-02       0.000       32.256   0.100E-07
     TRS4 it   7 1.00000000   0.168E-03       0.000       32.256   0.100E-07
     TRS4 it   8 1.00000000   0.992E-07       0.000       32.256   0.100E-07
     TRS4 it   9 1.00000000   0.424E-13       0.000       32.256   0.100E-07
     Final TRS4 iteration    9 1.00000000   0.424E-13
     Chemical potential (mu):       0.01296
 
 PAO| energy:  -7.7979178530868163      penalty:   1.4560669703950959E-005
 PAO|LS| adapt:  T T F
 PAO|LS| adapt: scan_steps:    0.0000000000000000       0.42592568726617541        0.0000000000000000     
 PAO|LS| adapt: energies:   -7.7977546428538682       -7.7979178530868163        0.0000000000000000     
 PAO| ======================= Iteration:        21 =============================

     Lanczos converged:  T threshold:   0.100E-02
     Est. extremal eigenvalues:    0.276E+01   0.182E+00
     Est. condition number :    0.152E+02

 Order=           3
     NS sqrt iter    1 1.00000000   0.705E+00       0.001       64.512
     NS sqrt iter    2 1.00000000   0.330E+00       0.001      110.592
     NS sqrt iter    3 1.00000000   0.751E-01       0.001      110.592
     NS sqrt iter    4 1.00000000   0.179E-02       0.001      110.592
     NS sqrt iter    5 1.00000000   0.493E-07       0.001       70.784
     Symmetrizing Results
     Final NS sqrt iter    5 1.00000000   0.500E-09

     Est. extremal eigenvalues     -0.93679     1.68548  converged:  T
     TRS4 it   1 1.00000000   0.868E+00       0.000       16.128   0.100E-07
     TRS4 it   2 1.00000000   0.612E+00       0.000       32.256   0.100E-07
     TRS4 it   3 1.00000000   0.416E+00       0.000       32.256   0.100E-07
     TRS4 it   4 1.00000000   0.209E+00       0.000       32.256   0.100E-07
     TRS4 it   5 1.00000000   0.657E-01       0.000       32.256   0.100E-07
     TRS4 it   6 1.00000000   0.818E-02       0.000       32.256   0.100E-07
     TRS4 it   7 1.00000000   0.169E-03       0.000       32.256   0.100E-07
     TRS4 it   8 1.00000000   0.102E-06       0.000       32.256   0.100E-07
     TRS4 it   9 1.00000000   0.445E-13       0.000       32.256   0.100E-07
     Final TRS4 iteration    9 1.00000000   0.445E-13
     Chemical potential (mu):       0.01242
 
 PAO| energy:  -7.7977806714487246      penalty:   1.4042267485010990E-005
 PAO|LS| Need extra step
 PAO|LS| adapt:  T T T
 PAO|LS| adapt: scan_steps:    0.0000000000000000       0.42592568726617541       0.85185137453235082     
 PAO|LS| adapt: energies:   -7.7977546428538682       -7.7979178530868163       -7.7977806714487246     
 PAO|LS| adapt: suggested step_size:   0.44437866189958558     
 PAO|LS| adapt: predicted energy  -7.7979181350051272     
 PAO| ======================= Iteration:        22 =============================

     Lanczos converged:  T threshold:   0.100E-02
     Est. extremal eigenvalues:    0.276E+01   0.182E+00
     Est. condition number :    0.151E+02

 Order=           3
     NS sqrt iter    1 1.00000000   0.706E+00       0.001       64.512
     NS sqrt iter    2 1.00000000   0.329E+00       0.001      110.592
     NS sqrt iter    3 1.00000000   0.747E-01       0.001      110.592
     NS sqrt iter    4 1.00000000   0.177E-02       0.001      110.592
     NS sqrt iter    5 1.00000000   0.482E-07       0.001       70.272
     Symmetrizing Results
     Final NS sqrt iter    5 1.00000000   0.376E-09

     Est. extremal eigenvalues     -0.93680     1.68488  converged:  T
     TRS4 it   1 1.00000000   0.868E+00       0.000       16.128   0.100E-07
     TRS4 it   2 1.00000000   0.612E+00       0.000       32.256   0.100E-07
     TRS4 it   3 1.00000000   0.417E+00       0.000       32.256   0.100E-07
     TRS4 it   4 1.00000000   0.210E+00       0.000       32.256   0.100E-07
     TRS4 it   5 1.00000000   0.659E-01       0.000       32.256   0.100E-07
     TRS4 it   6 1.00000000   0.819E-02       0.000       32.256   0.100E-07
     TRS4 it   7 1.00000000   0.168E-03       0.000       32.256   0.100E-07
     TRS4 it   8 1.00000000   0.993E-07       0.000       32.256   0.100E-07
     TRS4 it   9 1.00000000   0.431E-13       0.000       32.256   0.100E-07
     Final TRS4 iteration    9 1.00000000   0.431E-13
     Chemical potential (mu):       0.01294
 
 PAO| energy:  -7.7979181702975371      penalty:   1.4537191470572695E-005
 PAO|CG| trace_G_new    2.2549893444272662E-004
 PAO|CG| trace_G_prev    7.3147539651523751E-004
 PAO|CG| trace_G_mix    3.1116157867520385E-006
 PAO|CG| trace_D    9.9483843901061655E-004
 PAO|CG| trace_D_Gnew  -1.9058884363092414E-006
 PAO|CG| beta:   0.30402569890310999     
 PAO| norm of gradient:   1.5016621938462945E-002
 PAO| energy improvement:  -1.6352744366887606E-004
 PAO| step     22                   -7.797918170  0.939E-03  0.444E+00     0.047
 PAO|LS| adapt:  T F F
 PAO|LS| adapt: scan_steps:    0.0000000000000000        0.0000000000000000        0.0000000000000000     
 PAO|LS| adapt: energies:   -7.7979181702975371        0.0000000000000000        0.0000000000000000     
 PAO| ======================= Iteration:        23 =============================

     Lanczos converged:  T threshold:   0.100E-02
     Est. extremal eigenvalues:    0.276E+01   0.182E+00
     Est. condition number :    0.151E+02

 Order=           3
     NS sqrt iter    1 1.00000000   0.705E+00       0.001       64.512
     NS sqrt iter    2 1.00000000   0.330E+00       0.001      110.592
     NS sqrt iter    3 1.00000000   0.747E-01       0.001      110.592
     NS sqrt iter    4 1.00000000   0.177E-02       0.001      110.592
     NS sqrt iter    5 1.00000000   0.483E-07       0.001       70.144
     Symmetrizing Results
     Final NS sqrt iter    5 1.00000000   0.380E-09

     Est. extremal eigenvalues     -0.93680     1.68468  converged:  T
     TRS4 it   1 1.00000000   0.867E+00       0.000       16.128   0.100E-07
     TRS4 it   2 1.00000000   0.612E+00       0.000       32.256   0.100E-07
     TRS4 it   3 1.00000000   0.417E+00       0.000       32.256   0.100E-07
     TRS4 it   4 1.00000000   0.210E+00       0.000       32.256   0.100E-07
     TRS4 it   5 1.00000000   0.660E-01       0.000       32.256   0.100E-07
     TRS4 it   6 1.00000000   0.822E-02       0.000       32.256   0.100E-07
     TRS4 it   7 1.00000000   0.170E-03       0.000       32.256   0.100E-07
     TRS4 it   8 1.00000000   0.102E-06       0.000       32.256   0.100E-07
     TRS4 it   9 1.00000000   0.447E-13       0.000       32.256   0.100E-07
     Final TRS4 iteration    9 1.00000000   0.447E-13
     Chemical potential (mu):       0.01265
 
 PAO| energy:  -7.7979682819427012      penalty:   1.3853108517390248E-005
 PAO|LS| adapt:  T T F
 PAO|LS| adapt: scan_steps:    0.0000000000000000       0.44437866189958558        0.0000000000000000     
 PAO|LS| adapt: energies:   -7.7979181702975371       -7.7979682819427012        0.0000000000000000     
 PAO| ======================= Iteration:        24 =============================

     Lanczos converged:  T threshold:   0.100E-02
     Est. extremal eigenvalues:    0.276E+01   0.182E+00
     Est. condition number :    0.151E+02

 Order=           3
     NS sqrt iter    1 1.00000000   0.705E+00       0.001       64.512
     NS sqrt iter    2 1.00000000   0.330E+00       0.001      110.592
     NS sqrt iter    3 1.00000000   0.748E-01       0.001      110.592
     NS sqrt iter    4 1.00000000   0.177E-02       0.001      110.592
     NS sqrt iter    5 1.00000000   0.484E-07       0.001       70.656
     Symmetrizing Results
     Final NS sqrt iter    5 1.00000000   0.489E-09

     Est. extremal eigenvalues     -0.93679     1.68446  converged:  T
     TRS4 it   1 1.00000000   0.867E+00       0.000       16.128   0.100E-07
     TRS4 it   2 1.00000000   0.612E+00       0.000       32.256   0.100E-07
     TRS4 it   3 1.00000000   0.417E+00       0.000       32.256   0.100E-07
     TRS4 it   4 1.00000000   0.210E+00       0.000       32.256   0.100E-07
     TRS4 it   5 1.00000000   0.661E-01       0.000       32.256   0.100E-07
     TRS4 it   6 1.00000000   0.826E-02       0.000       32.256   0.100E-07
     TRS4 it   7 1.00000000   0.172E-03       0.000       32.256   0.100E-07
     TRS4 it   8 1.00000000   0.104E-06       0.000       32.256   0.100E-07
     TRS4 it   9 1.00000000   0.469E-13       0.000       32.256   0.100E-07
     Final TRS4 iteration    9 1.00000000   0.469E-13
     Chemical potential (mu):       0.01236
 
 PAO| energy:  -7.7979170351571874      penalty:   1.3197605659750279E-005
 PAO|LS| adapt:  T T T
 PAO|LS| adapt: scan_steps:    0.0000000000000000       0.44437866189958558       0.88875732379917116     
 PAO|LS| adapt: energies:   -7.7979181702975371       -7.7979682819427012       -7.7979170351571874     
 PAO|LS| adapt: suggested step_size:   0.44189030377139782     
 PAO|LS| adapt: predicted energy  -7.7979682835317936     
 PAO| ======================= Iteration:        25 =============================

     Lanczos converged:  T threshold:   0.100E-02
     Est. extremal eigenvalues:    0.276E+01   0.182E+00
     Est. condition number :    0.151E+02

 Order=           3
     NS sqrt iter    1 1.00000000   0.705E+00       0.001       64.512
     NS sqrt iter    2 1.00000000   0.330E+00       0.001      110.592
     NS sqrt iter    3 1.00000000   0.747E-01       0.001      110.592
     NS sqrt iter    4 1.00000000   0.177E-02       0.001      110.592
     NS sqrt iter    5 1.00000000   0.483E-07       0.001       70.144
     Symmetrizing Results
     Final NS sqrt iter    5 1.00000000   0.380E-09

     Est. extremal eigenvalues     -0.93680     1.68468  converged:  T
     TRS4 it   1 1.00000000   0.867E+00       0.000       16.128   0.100E-07
     TRS4 it   2 1.00000000   0.612E+00       0.000       32.256   0.100E-07
     TRS4 it   3 1.00000000   0.417E+00       0.000       32.256   0.100E-07
     TRS4 it   4 1.00000000   0.210E+00       0.000       32.256   0.100E-07
     TRS4 it   5 1.00000000   0.660E-01       0.000       32.256   0.100E-07
     TRS4 it   6 1.00000000   0.822E-02       0.000       32.256   0.100E-07
     TRS4 it   7 1.00000000   0.170E-03       0.000       32.256   0.100E-07
     TRS4 it   8 1.00000000   0.102E-06       0.000       32.256   0.100E-07
     TRS4 it   9 1.00000000   0.447E-13       0.000       32.256   0.100E-07
     Final TRS4 iteration    9 1.00000000   0.447E-13
     Chemical potential (mu):       0.01265
 
 PAO| energy:  -7.7979682826233221      penalty:   1.3856858988467171E-005
 PAO|CG| trace_G_new    8.1626289904800775E-005
 PAO|CG| trace_G_prev    2.2549893444272662E-004
 PAO|CG| trace_G_mix    7.3872485867911415E-007
 PAO|CG| trace_D    3.1861234669116288E-004
 PAO|CG| trace_D_Gnew  -3.6516127431357439E-007
 PAO|CG| beta:   0.35870486592771855     
 PAO| norm of gradient:   9.0347268860104888E-003
 PAO| energy improvement:  -5.0112325785001133E-005
 PAO| step     25                   -7.797968283  0.565E-03  0.442E+00     0.036
 PAO|LS| adapt:  T F F
 PAO|LS| adapt: scan_steps:    0.0000000000000000        0.0000000000000000        0.0000000000000000     
 PAO|LS| adapt: energies:   -7.7979682826233221        0.0000000000000000        0.0000000000000000     
 PAO| ======================= Iteration:        26 =============================

     Lanczos converged:  T threshold:   0.100E-02
     Est. extremal eigenvalues:    0.276E+01   0.183E+00
     Est. condition number :    0.151E+02

 Order=           3
     NS sqrt iter    1 1.00000000   0.705E+00       0.001       64.512
     NS sqrt iter    2 1.00000000   0.329E+00       0.001      110.592
     NS sqrt iter    3 1.00000000   0.746E-01       0.001      110.592
     NS sqrt iter    4 1.00000000   0.176E-02       0.001      110.592
     NS sqrt iter    5 1.00000000   0.480E-07       0.001       69.888
     Symmetrizing Results
     Final NS sqrt iter    5 1.00000000   0.363E-09

     Est. extremal eigenvalues     -0.93680     1.68432  converged:  T
     TRS4 it   1 1.00000000   0.867E+00       0.000       16.128   0.100E-07
     TRS4 it   2 1.00000000   0.612E+00       0.000       32.256   0.100E-07
     TRS4 it   3 1.00000000   0.416E+00       0.000       32.256   0.100E-07
     TRS4 it   4 1.00000000   0.209E+00       0.000       32.256   0.100E-07
     TRS4 it   5 1.00000000   0.659E-01       0.000       32.256   0.100E-07
     TRS4 it   6 1.00000000   0.820E-02       0.000       32.256   0.100E-07
     TRS4 it   7 1.00000000   0.169E-03       0.000       32.256   0.100E-07
     TRS4 it   8 1.00000000   0.100E-06       0.000       32.256   0.100E-07
     TRS4 it   9 1.00000000   0.432E-13       0.000       32.256   0.100E-07
     Final TRS4 iteration    9 1.00000000   0.432E-13
     Chemical potential (mu):       0.01280
 
 PAO| energy:  -7.7979726944554253      penalty:   1.3130717720795779E-005
 PAO|LS| adapt:  T T F
 PAO|LS| adapt: scan_steps:    0.0000000000000000       0.44189030377139782        0.0000000000000000     
 PAO|LS| adapt: energies:   -7.7979682826233221       -7.7979726944554253        0.0000000000000000     
 PAO| ======================= Iteration:        27 =============================

     Lanczos converged:  T threshold:   0.100E-02
     Est. extremal eigenvalues:    0.276E+01   0.183E+00
     Est. condition number :    0.151E+02

 Order=           3
     NS sqrt iter    1 1.00000000   0.705E+00       0.001       64.512
     NS sqrt iter    2 1.00000000   0.329E+00       0.001      110.592
     NS sqrt iter    3 1.00000000   0.745E-01       0.001      110.592
     NS sqrt iter    4 1.00000000   0.176E-02       0.001      110.592
     NS sqrt iter    5 1.00000000   0.477E-07       0.001       69.888
     Symmetrizing Results
     Final NS sqrt iter    5 1.00000000   0.361E-09

     Est. extremal eigenvalues     -0.93680     1.68396  converged:  T
     TRS4 it   1 1.00000000   0.867E+00       0.000       16.128   0.100E-07
     TRS4 it   2 1.00000000   0.612E+00       0.000       32.256   0.100E-07
     TRS4 it   3 1.00000000   0.416E+00       0.000       32.256   0.100E-07
     TRS4 it   4 1.00000000   0.209E+00       0.000       32.256   0.100E-07
     TRS4 it   5 1.00000000   0.658E-01       0.000       32.256   0.100E-07
     TRS4 it   6 1.00000000   0.818E-02       0.000       32.256   0.100E-07
     TRS4 it   7 1.00000000   0.168E-03       0.000       32.256   0.100E-07
     TRS4 it   8 1.00000000   0.985E-07       0.000       32.256   0.100E-07
     TRS4 it   9 1.00000000   0.417E-13       0.000       32.256   0.100E-07
     Final TRS4 iteration    9 1.00000000   0.417E-13
     Chemical potential (mu):       0.01294
 
 PAO| energy:  -7.7979135699705262      penalty:   1.2428560682596099E-005
 PAO|LS| adapt:  T T T
 PAO|LS| adapt: scan_steps:    0.0000000000000000       0.44189030377139782       0.88378060754279564     
 PAO|LS| adapt: energies:   -7.7979682826233221       -7.7979726944554253       -7.7979135699705262     
 PAO|LS| adapt: suggested step_size:   0.25162911218201184     
 PAO|LS| adapt: predicted energy  -7.7979785837533058     
 PAO| ======================= Iteration:        28 =============================

     Lanczos converged:  T threshold:   0.100E-02
     Est. extremal eigenvalues:    0.276E+01   0.183E+00
     Est. condition number :    0.151E+02

 Order=           3
     NS sqrt iter    1 1.00000000   0.705E+00       0.001       64.512
     NS sqrt iter    2 1.00000000   0.329E+00       0.001      110.592
     NS sqrt iter    3 1.00000000   0.747E-01       0.001      110.592
     NS sqrt iter    4 1.00000000   0.177E-02       0.001      110.592
     NS sqrt iter    5 1.00000000   0.481E-07       0.001       70.144
     Symmetrizing Results
     Final NS sqrt iter    5 1.00000000   0.377E-09

     Est. extremal eigenvalues     -0.93680     1.68447  converged:  T
     TRS4 it   1 1.00000000   0.867E+00       0.000       16.128   0.100E-07
     TRS4 it   2 1.00000000   0.612E+00       0.000       32.256   0.100E-07
     TRS4 it   3 1.00000000   0.417E+00       0.000       32.256   0.100E-07
     TRS4 it   4 1.00000000   0.210E+00       0.000       32.256   0.100E-07
     TRS4 it   5 1.00000000   0.659E-01       0.000       32.256   0.100E-07
     TRS4 it   6 1.00000000   0.821E-02       0.000       32.256   0.100E-07
     TRS4 it   7 1.00000000   0.169E-03       0.000       32.256   0.100E-07
     TRS4 it   8 1.00000000   0.101E-06       0.000       32.256   0.100E-07
     TRS4 it   9 1.00000000   0.443E-13       0.000       32.256   0.100E-07
     Final TRS4 iteration    9 1.00000000   0.443E-13
     Chemical potential (mu):       0.01273
 
 PAO| energy:  -7.7979785753839890      penalty:   1.3440406760029755E-005
 PAO|CG| trace_G_new    3.3009918692047629E-005
 PAO|CG| trace_G_prev    8.1626289904800775E-005
 PAO|CG| trace_G_mix    6.2527055651602358E-008
 PAO|CG| trace_D    1.2288384981102299E-004
 PAO|CG| trace_D_Gnew  -3.1284274931792509E-008
 PAO|CG| beta:   0.40363701051244588     
 PAO| norm of gradient:   5.7454258930080748E-003
 PAO| energy improvement:  -1.0292760666885670E-005
 PAO| step     28                   -7.797978575  0.359E-03  0.252E+00     0.036
 PAO|LS| adapt:  T F F
 PAO|LS| adapt: scan_steps:    0.0000000000000000        0.0000000000000000        0.0000000000000000     
 PAO|LS| adapt: energies:   -7.7979785753839890        0.0000000000000000        0.0000000000000000     
 PAO| ======================= Iteration:        29 =============================

     Lanczos converged:  T threshold:   0.100E-02
     Est. extremal eigenvalues:    0.276E+01   0.182E+00
     Est. condition number :    0.151E+02

 Order=           3
     NS sqrt iter    1 1.00000000   0.705E+00       0.001       64.512
     NS sqrt iter    2 1.00000000   0.329E+00       0.001      110.592
     NS sqrt iter    3 1.00000000   0.746E-01       0.001      110.592
     NS sqrt iter    4 1.00000000   0.176E-02       0.001      110.592
     NS sqrt iter    5 1.00000000   0.480E-07       0.001       69.888
     Symmetrizing Results
     Final NS sqrt iter    5 1.00000000   0.363E-09

     Est. extremal eigenvalues     -0.93680     1.68439  converged:  T
     TRS4 it   1 1.00000000   0.868E+00       0.000       16.128   0.100E-07
     TRS4 it   2 1.00000000   0.612E+00       0.000       32.256   0.100E-07
     TRS4 it   3 1.00000000   0.416E+00       0.000       32.256   0.100E-07
     TRS4 it   4 1.00000000   0.209E+00       0.000       32.256   0.100E-07
     TRS4 it   5 1.00000000   0.658E-01       0.000       32.256   0.100E-07
     TRS4 it   6 1.00000000   0.819E-02       0.000       32.256   0.100E-07
     TRS4 it   7 1.00000000   0.168E-03       0.000       32.256   0.100E-07
     TRS4 it   8 1.00000000   0.993E-07       0.000       32.256   0.100E-07
     TRS4 it   9 1.00000000   0.430E-13       0.000       32.256   0.100E-07
     Final TRS4 iteration    9 1.00000000   0.430E-13
     Chemical potential (mu):       0.01288
 
 PAO| energy:  -7.7979858878595589      penalty:   1.3002275625200503E-005
 PAO|LS| adapt:  T T F
 PAO|LS| adapt: scan_steps:    0.0000000000000000       0.25162911218201184        0.0000000000000000     
 PAO|LS| adapt: energies:   -7.7979785753839890       -7.7979858878595589        0.0000000000000000     
 PAO| ======================= Iteration:        30 =============================

     Lanczos converged:  T threshold:   0.100E-02
     Est. extremal eigenvalues:    0.276E+01   0.182E+00
     Est. condition number :    0.151E+02

 Order=           3
     NS sqrt iter    1 1.00000000   0.705E+00       0.001       64.512
     NS sqrt iter    2 1.00000000   0.329E+00       0.001      110.592
     NS sqrt iter    3 1.00000000   0.745E-01       0.001      110.592
     NS sqrt iter    4 1.00000000   0.176E-02       0.001      110.592
     NS sqrt iter    5 1.00000000   0.480E-07       0.001       69.888
     Symmetrizing Results
     Final NS sqrt iter    5 1.00000000   0.362E-09

     Est. extremal eigenvalues     -0.93680     1.68430  converged:  T
     TRS4 it   1 1.00000000   0.868E+00       0.000       16.128   0.100E-07
     TRS4 it   2 1.00000000   0.612E+00       0.000       32.256   0.100E-07
     TRS4 it   3 1.00000000   0.416E+00       0.000       32.256   0.100E-07
     TRS4 it   4 1.00000000   0.209E+00       0.000       32.256   0.100E-07
     TRS4 it   5 1.00000000   0.657E-01       0.000       32.256   0.100E-07
     TRS4 it   6 1.00000000   0.816E-02       0.000       32.256   0.100E-07
     TRS4 it   7 1.00000000   0.167E-03       0.000       32.256   0.100E-07
     TRS4 it   8 1.00000000   0.979E-07       0.000       32.256   0.100E-07
     TRS4 it   9 1.00000000   0.406E-13       0.000       32.256   0.100E-07
     Final TRS4 iteration    9 1.00000000   0.406E-13
     Chemical potential (mu):       0.01303
 
 PAO| energy:  -7.7979912122488999      penalty:   1.2572279901584184E-005
 PAO|LS| adapt:  T T F
 PAO|LS| adapt: scan_steps:    0.0000000000000000       0.50325822436402368        0.0000000000000000     
 PAO|LS| adapt: energies:   -7.7979785753839890       -7.7979912122488999        0.0000000000000000     
 PAO| ======================= Iteration:        31 =============================

     Lanczos converged:  T threshold:   0.100E-02
     Est. extremal eigenvalues:    0.276E+01   0.182E+00
     Est. condition number :    0.151E+02

 Order=           3
     NS sqrt iter    1 1.00000000   0.704E+00       0.001       64.512
     NS sqrt iter    2 1.00000000   0.329E+00       0.001      110.592
     NS sqrt iter    3 1.00000000   0.744E-01       0.001      110.592
     NS sqrt iter    4 1.00000000   0.176E-02       0.001      110.592
     NS sqrt iter    5 1.00000000   0.478E-07       0.001       70.144
     Symmetrizing Results
     Final NS sqrt iter    5 1.00000000   0.434E-09

     Est. extremal eigenvalues     -0.93681     1.68412  converged:  T
     TRS4 it   1 1.00000000   0.868E+00       0.000       16.128   0.100E-07
     TRS4 it   2 1.00000000   0.612E+00       0.000       32.256   0.100E-07
     TRS4 it   3 1.00000000   0.416E+00       0.000       32.256   0.100E-07
     TRS4 it   4 1.00000000   0.209E+00       0.000       32.256   0.100E-07
     TRS4 it   5 1.00000000   0.656E-01       0.000       32.256   0.100E-07
     TRS4 it   6 1.00000000   0.812E-02       0.000       32.256   0.100E-07
     TRS4 it   7 1.00000000   0.165E-03       0.000       32.256   0.100E-07
     TRS4 it   8 1.00000000   0.951E-07       0.000       32.256   0.100E-07
     TRS4 it   9 1.00000000   0.394E-13       0.000       32.256   0.100E-07
     Final TRS4 iteration    9 1.00000000   0.394E-13
     Chemical potential (mu):       0.01332
 
 PAO| energy:  -7.7979958977246824      penalty:   1.1736519954951002E-005
 PAO|LS| Need extra step
 PAO|LS| adapt:  T T F
 PAO|LS| adapt: scan_steps:    0.0000000000000000        1.0065164487280474        0.0000000000000000     
 PAO|LS| adapt: energies:   -7.7979785753839890       -7.7979958977246824        0.0000000000000000     
 PAO| ======================= Iteration:        32 =============================

     Lanczos converged:  T threshold:   0.100E-02
     Est. extremal eigenvalues:    0.276E+01   0.182E+00
     Est. condition number :    0.151E+02

 Order=           3
     NS sqrt iter    1 1.00000000   0.704E+00       0.001       64.512
[...]
     TRS4 it   1 1.00000000   0.878E+00       0.000       16.128   0.100E-07
     TRS4 it   2 1.00000000   0.632E+00       0.000       32.256   0.100E-07
     TRS4 it   3 1.00000000   0.455E+00       0.000       32.256   0.100E-07
     TRS4 it   4 1.00000000   0.277E+00       0.000       32.256   0.100E-07
     TRS4 it   5 1.00000000   0.137E+00       0.000       32.256   0.100E-07
     TRS4 it   6 1.00000000   0.426E-01       0.000       32.256   0.100E-07
     TRS4 it   7 1.00000000   0.577E-02       0.000       32.256   0.100E-07
     TRS4 it   8 1.00000000   0.141E-03       0.000       32.256   0.100E-07
     TRS4 it   9 1.00000000   0.893E-07       0.000       32.256   0.100E-07
     TRS4 it  10 1.00000000   0.357E-13       0.000       32.256   0.100E-07
     Final TRS4 iteration   10 1.00000000   0.357E-13
     Chemical potential (mu):      -0.07485
 
 PAO| energy:  -7.7973074953208545      penalty:   2.4452756887057692E-008
 PAO|CG| warming up with steepest descent
 PAO|CG| beta:    0.0000000000000000     
 PAO| norm of gradient:   1.3091816469016913E-004
 PAO| energy improvement:  -5.2634145930596787E-009
 PAO| step    430                   -7.797307495  0.818E-05  0.259E+00     0.051
 PAO| converged after          430  steps :-)
 PAO| Recalculating energy after mixing.

     Lanczos converged:  T threshold:   0.100E-02
     Est. extremal eigenvalues:    0.251E+01   0.190E+00
     Est. condition number :    0.132E+02

 Order=           3
     NS sqrt iter    1 1.00000000   0.637E+00       0.001       64.512
     NS sqrt iter    2 1.00000000   0.277E+00       0.001      110.592
     NS sqrt iter    3 1.00000000   0.492E-01       0.001      110.592
     NS sqrt iter    4 1.00000000   0.793E-03       0.001      110.592
     NS sqrt iter    5 1.00000000   0.655E-08       0.001       38.272
     Symmetrizing Results
     Final NS sqrt iter    5 1.00000000   0.384E-09

     Est. extremal eigenvalues     -0.93650     1.63035  converged:  T
     TRS4 it   1 1.00000000   0.878E+00       0.000       16.128   0.100E-07
     TRS4 it   2 1.00000000   0.632E+00       0.000       32.256   0.100E-07
     TRS4 it   3 1.00000000   0.455E+00       0.000       32.256   0.100E-07
     TRS4 it   4 1.00000000   0.277E+00       0.000       32.256   0.100E-07
     TRS4 it   5 1.00000000   0.137E+00       0.000       32.256   0.100E-07
     TRS4 it   6 1.00000000   0.426E-01       0.001       32.256   0.100E-07
     TRS4 it   7 1.00000000   0.577E-02       0.000       32.256   0.100E-07
     TRS4 it   8 1.00000000   0.141E-03       0.000       32.256   0.100E-07
     TRS4 it   9 1.00000000   0.893E-07       0.000       32.256   0.100E-07
     TRS4 it  10 1.00000000   0.367E-13       0.000       32.256   0.100E-07
     Final TRS4 iteration   10 1.00000000   0.367E-13
     Chemical potential (mu):      -0.07485
 
 PAO| energy:  -7.7973074940049898      penalty:   2.4708767683397049E-008
 PAO| Writing restart file.
     Est. extremal eigenvalues     -0.93650     1.63035  converged:  T
     TRS4 it   1 1.00000000   0.878E+00       0.000       16.128   0.100E-07
     TRS4 it   2 1.00000000   0.632E+00       0.000       32.256   0.100E-07
     TRS4 it   3 1.00000000   0.455E+00       0.000       32.256   0.100E-07
     TRS4 it   4 1.00000000   0.277E+00       0.000       32.256   0.100E-07
     TRS4 it   5 1.00000000   0.137E+00       0.000       32.256   0.100E-07
     TRS4 it   6 1.00000000   0.426E-01       0.000       32.256   0.100E-07
     TRS4 it   7 1.00000000   0.577E-02       0.000       32.256   0.100E-07
     TRS4 it   8 1.00000000   0.141E-03       0.000       32.256   0.100E-07
     TRS4 it   9 1.00000000   0.893E-07       0.000       32.256   0.100E-07
     TRS4 it  10 1.00000000   0.367E-13       0.000       32.256   0.100E-07
     Final TRS4 iteration   10 1.00000000   0.367E-13
     Chemical potential (mu):      -0.07485

 SCF     1       -34.449976555       -34.449976555    1.780775

*********************************************************
 Using MIXING_FRACTION=0.450 to mix KS matrix:  iscf=  2
 KS_nw=0.450*KS + 0.550*KS_old
*********************************************************
     Est. extremal eigenvalues     -0.93650     1.63035  converged:  T
     TRS4 it   1 1.00000000   0.878E+00       0.000       16.128   0.100E-07
     TRS4 it   2 1.00000000   0.632E+00       0.000       32.256   0.100E-07
     TRS4 it   3 1.00000000   0.455E+00       0.000       32.256   0.100E-07
     TRS4 it   4 1.00000000   0.277E+00       0.000       32.256   0.100E-07
     TRS4 it   5 1.00000000   0.137E+00       0.000       32.256   0.100E-07
     TRS4 it   6 1.00000000   0.426E-01       0.000       32.256   0.100E-07
     TRS4 it   7 1.00000000   0.577E-02       0.000       32.256   0.100E-07
     TRS4 it   8 1.00000000   0.141E-03       0.000       32.256   0.100E-07
     TRS4 it   9 1.00000000   0.893E-07       0.000       32.256   0.100E-07
     TRS4 it  10 1.00000000   0.359E-13       0.000       32.256   0.100E-07
     Final TRS4 iteration   10 1.00000000   0.359E-13
     Chemical potential (mu):      -0.07486

 SCF     2       -34.449976555        -0.000000000    1.508139


 SCF run converged in     2 steps.

 PAO| Storing density matrix for ASPC guess in slot:           1

 ENERGY| Total FORCE_EVAL ( QS ) energy [a.u.]:              -34.449976554831551

 -------------------------------------------------------------------------------
 -                                                                             -
 -                                DBCSR STATISTICS                             -
 -                                                                             -
 -------------------------------------------------------------------------------
 COUNTER                                    TOTAL       BLAS       SMM       ACC
 flops     5 x     5 x     4                20000       0.0%    100.0%      0.0%
 flops    13 x     5 x     4                20800       0.0%    100.0%      0.0%
 flops     5 x    13 x     4                20800       0.0%    100.0%      0.0%
 flops    13 x    13 x     4                40560       0.0%    100.0%      0.0%
 flops     4 x     4 x     5              3375360       0.0%    100.0%      0.0%
 flops     5 x     4 x     5              4118400       0.0%    100.0%      0.0%
 flops     4 x     4 x    13              4387968       0.0%    100.0%      0.0%
 flops    13 x     4 x     5              5353920       0.0%    100.0%      0.0%
 flops     5 x     4 x    13              5353920       0.0%    100.0%      0.0%
 flops     5 x     4 x     4              6547840       0.0%    100.0%      0.0%
 flops    13 x     4 x    13              6960096       0.0%    100.0%      0.0%
 flops    13 x     4 x     4              8699392       0.0%    100.0%      0.0%
 flops     4 x     4 x     4            435276160       0.0%    100.0%      0.0%
 flops inhomo. stacks                           0       0.0%      0.0%      0.0%
 flops total                       480.175216E+06       0.0%    100.0%      0.0%
 flops max/rank                    480.175216E+06       0.0%    100.0%      0.0%
 matmuls inhomo. stacks                         0       0.0%      0.0%      0.0%
 matmuls total                            3540617       0.0%    100.0%      0.0%
 number of processed stacks                 28227       0.0%    100.0%      0.0%
 average stack size                                     0.0     125.4       0.0
 marketing flops                   781.072320E+06
 -------------------------------------------------------------------------------
 # multiplications                          23594
 max memory usage/rank             505.303040E+06
 # max total images/rank                        1
 # max 3D layers                                1
 # MPI messages exchanged                       0
 -------------------------------------------------------------------------------

 -------------------------------------------------------------------------------
 -                                                                             -
 -                                DBM STATISTICS                               -
 -                                                                             -
 -------------------------------------------------------------------------------
    M  x    N  x    K                                          COUNT     PERCENT
 -------------------------------------------------------------------------------

 -------------------------------------------------------------------------------
 -                                                                             -
 -                                GRID STATISTICS                              -
 -                                                                             -
 -------------------------------------------------------------------------------
 LP    KERNEL             BACKEND                              COUNT     PERCENT
 2     collocate ortho    REF                                  38100      30.77%
 2     integrate ortho    REF                                  38100      30.77%
 3     collocate ortho    REF                                  19610      15.84%
 3     integrate ortho    REF                                  19610      15.84%
 4     collocate ortho    REF                                   4190       3.38%
 4     integrate ortho    REF                                   4190       3.38%
 0     collocate general  REF                                      6       0.00%
 -------------------------------------------------------------------------------

 MEMORY| Estimated peak process memory [MiB]                                 482

 -------------------------------------------------------------------------------
 -                                                                             -
 -                           R E F E R E N C E S                               -
 -                                                                             -
 -------------------------------------------------------------------------------
 
 CP2K version 2023.1 (Development Version), the CP2K developers group (2023).
 CP2K is freely available from https://www.cp2k.org/ .

 Kuehne,Thomas D.; Iannuzzi,Marcella; Del Ben,Mauro;
 Rybkin,Vladimir V.; Seewald,Patrick; Stein,Frederick; Laino,Teodoro;
 Khaliullin,Rustam Z.; Schuett,Ole; Schiffmann,Florian; Golze,Dorothea;
 Wilhelm,Jan; Chulkov,Sergey; Bani-Hashemian,Mohammad Hossein;
 Weber,Valery; Borstnik,Urban; Taillefumier,Mathieu;
 Jakobovits,Alice Shoshana; Lazzaro,Alfio; Pabst,Hans; Mueller,Tiziano;
 Schade,Robert; Guidon,Manuel; Andermatt,Samuel; Holmberg,Nico;
 Schenter,Gregory K.; Hehn,Anna; Bussy,Augustin; Belleflamme,Fabian;
 Tabacchi,Gloria; Gloess,Andreas; Lass,Michael; Bethune,Iain;
 Mundy,Christopher J.; Plessl,Christian; Watkins,Matt;
 VandeVondele,Joost; Krack,Matthias; Hutter,Juerg. 
 The Journal of Chemical Physics, 152 (19), (2020). 
 CP2K: An electronic structure and molecular dynamics software package -
 Quickstep: Efficient and accurate electronic structure calculations.
 https://doi.org/10.1063/5.0007045

 Schuett, O; VandeVondele, J. 
 Journal of Chemical Theory and Computation, 14, (2018). 
 Machine Learning Adaptive Basis Sets for Efficient Large Scale
 Density Functional Theory Simulation.
 https://doi.org/10.1021/acs.jctc.8b00378

 Schuett, Ole; Messmer, Peter; Hutter, Juerg; VandeVondele, Joost. 
 Electronic Structure Calculations on Graphics Processing Units, John
 Wiley & Sons, Ltd, 173-190 (2016). 
 GPU-Accelerated Sparse Matrix-Matrix Multiplication for
 Linear Scaling Density Functional Theory.
 https://doi.org/10.1002/9781118670712.ch8

 Heinecke, A; Henry, G; Hutchinson, M; Pabst, H. 
 Proceedings of Intl. Supercomputing Conference, 981-991 (2016). 
 LIBXSMM: Accelerating Small Matrix Multiplications
 by Runtime Code Generation.
 https://doi.org/10.1109/SC.2016.83

 Borstnik, U; VandeVondele, J; Weber, V; Hutter, J. 
 PARALLEL COMPUTING, 40 (5-6), 47-58 (2014). 
 Sparse matrix multiplication: The distributed block-compressed sparse
 row library.
 https://doi.org/10.1016/j.parco.2014.03.012

 Hutter, J; Iannuzzi, M; Schiffmann, F; VandeVondele, J. 
 WIREs Comput Mol Sci., 4 (1), 15-25 (2014). 
 CP2K: atomistic simulations of condensed matter systems.
 https://doi.org/10.1002/wcms.1159

 VandeVondele, J; Borstnik, U; Hutter, J. 
 JOURNAL OF CHEMICAL THEORY AND COMPUTATION, 8 (10), 3565-3573 (2012). 
 Linear Scaling Self-Consistent Field Calculations with Millions of Atoms
 in the Condensed Phase.
 https://doi.org/10.1021/ct200897x

 VandeVondele, J; Hutter, J. 
 JOURNAL OF CHEMICAL PHYSICS, 127 (11), 114105 (2007). 
 Gaussian basis sets for accurate calculations on molecular systems in
 gas and condensed phases.
 https://doi.org/10.1063/1.2770708

 Krack, M. 
 THEORETICAL CHEMISTRY ACCOUNTS, 114 (1-3), 145-152 (2005). 
 Pseudopotentials for H to Kr optimized for gradient-corrected
 exchange-correlation functionals.
 https://doi.org/10.1007/s00214-005-0655-y

 VandeVondele, J; Krack, M; Mohamed, F; Parrinello, M; Chassaing, T;
 Hutter, J. COMPUTER PHYSICS COMMUNICATIONS, 167 (2), 103-128 (2005). 
 QUICKSTEP: Fast and accurate density functional calculations using a
 mixed Gaussian and plane waves approach.
 https://doi.org/10.1016/j.cpc.2004.12.014

 Frigo, M; Johnson, SG. 
 PROCEEDINGS OF THE IEEE, 93 (2), 216-231 (2005). 
 The design and implementation of FFTW3.
 https://doi.org/10.1109/JPROC.2004.840301

 Niklasson, AMN; Tymczak, CJ; Challacombe, M. 
 JOURNAL OF CHEMICAL PHYSICS, 118 (19), 8611-8620 (2003). 
 Trace resetting density matrix purification in O(N)
 self-consistent-field theory.
 https://doi.org/10.1063/1.1559913

 Hartwigsen, C; Goedecker, S; Hutter, J. 
 PHYSICAL REVIEW B, 58 (7), 3641-3662 (1998). 
 Relativistic separable dual-space Gaussian pseudopotentials from H to Rn.
 https://doi.org/10.1103/PhysRevB.58.3641

 Lippert, G; Hutter, J; Parrinello, M. 
 MOLECULAR PHYSICS, 92 (3), 477-487 (1997). 
 A hybrid Gaussian and plane wave density functional scheme.
 https://doi.org/10.1080/002689797170220

 Perdew, JP; Burke, K; Ernzerhof, M. 
 PHYSICAL REVIEW LETTERS, 77 (18), 3865-3868 (1996). 
 Generalized gradient approximation made simple.
 https://doi.org/10.1103/PhysRevLett.77.3865

 Goedecker, S; Teter, M; Hutter, J. 
 PHYSICAL REVIEW B, 54 (3), 1703-1710 (1996). 
 Separable dual-space Gaussian pseudopotentials.
 https://doi.org/10.1103/PhysRevB.54.1703


 -------------------------------------------------------------------------------
 -                                                                             -
 -                                T I M I N G                                  -
 -                                                                             -
 -------------------------------------------------------------------------------
 SUBROUTINE                       CALLS  ASD         SELF TIME        TOTAL TIME
                                MAXIMUM       AVERAGE  MAXIMUM  AVERAGE  MAXIMUM
 CP2K                                 1  1.0    0.009    0.009   23.970   23.970
 qs_energies                          1  2.0    0.000    0.000   23.606   23.606
 ls_scf                               1  3.0    0.000    0.000   23.486   23.486
 ls_scf_main                          4  4.0    0.001    0.001   15.846   15.846
 ls_scf_dm_to_ks                      9  5.0    0.000    0.000   15.781   15.781
 qs_ks_update_qs_env                 10  6.0    0.000    0.000   14.136   14.136
 rebuild_ks_matrix                   10  7.0    0.000    0.000   14.136   14.136
 qs_ks_build_kohn_sham_matrix        10  8.0    0.003    0.003   14.136   14.136
 qs_vxc_create                       10  9.0    0.000    0.000    9.134    9.134
 xc_vxc_pw_create                    10 10.0    0.184    0.184    9.134    9.134
 pw_transfer                        191 11.1    0.022    0.022    7.474    7.474
 fft_wrap_pw1pw2                    171 12.3    0.003    0.003    7.242    7.242
 fft_wrap_pw1pw2_200                111 13.7    0.880    0.880    7.048    7.048
 xc_pw_derive                        60 12.0    0.001    0.001    5.413    5.413
 pao_update                           4  4.0    0.005    0.005    5.343    5.343
 xc_rho_set_and_dset_create          10 11.0    0.231    0.231    5.050    5.050
 pao_calc_energy                    433  5.0    0.002    0.002    4.839    4.839
 qs_rho_update_rho_low               10  6.0    0.000    0.000    3.905    3.905
 calculate_rho_elec                  10  7.0    0.035    0.035    3.905    3.905
 dbcsr_multiply_generic           23594  8.4    0.244    0.244    3.837    3.837
 xc_pw_divergence                    10 11.0    0.001    0.001    3.754    3.754
 sum_up_and_integrate                10  9.0    0.140    0.140    3.639    3.639
 integrate_v_rspace                  10 10.0    0.001    0.001    3.498    3.498
 fft3d_s                            172 14.2    2.719    2.719    2.732    2.732
 grid_integrate_task_list            10 11.0    2.616    2.616    2.616    2.616
 pao_dm_trs4                        433  6.0    0.002    0.002    2.537    2.537
 density_matrix_trs4                442  7.0    0.088    0.088    2.452    2.452
 grid_collocate_task_list            10  8.0    2.319    2.319    2.319    2.319
 ls_scf_init_matrix_S               437  7.0    0.002    0.002    2.291    2.291
 pao_rebuild_S                      433  6.0    0.001    0.001    2.269    2.269
 pao_guess_initial_P                  1  4.0    0.000    0.000    2.264    2.264
 pao_read_preopt_dm                   1  5.0    0.000    0.000    2.264    2.264
 matrix_sqrt_Newton_Schulz          437  8.0    0.052    0.052    2.067    2.067
 xc_functional_eval                  10 12.0    0.000    0.000    1.948    1.948
 pbe_lda_eval                        10 13.0    1.947    1.947    1.947    1.947
 pw_gather_s                         81 13.8    1.824    1.824    1.824    1.824
 pw_scatter_s                        90 14.7    1.775    1.775    1.775    1.775
 density_rs2pw                       10  8.0    0.001    0.001    1.552    1.552
 make_m2s                         47188  9.4    0.091    0.091    1.457    1.457
 multiply_cannon                  23594  9.4    0.580    0.580    1.423    1.423
 make_images                      47188 10.4    0.374    0.374    1.297    1.297
 pw_derive                           60 13.0    1.192    1.192    1.192    1.192
 potential_pw2rs                     10 11.0    0.001    0.001    0.882    0.882
 pw_copy                            120 11.8    0.816    0.816    0.816    0.816
 arnoldi_extremal                   879  8.5    0.002    0.002    0.754    0.754
 arnoldi_normal_ev                  879  9.5    0.006    0.006    0.752    0.752
 pw_axpy                             90 10.3    0.617    0.617    0.617    0.617
 build_subspace                     879 10.5    0.033    0.033    0.589    0.589
 pw_poisson_solve                    10  9.0    0.098    0.098    0.558    0.558
 dbcsr_matrix_vector_mult         21091 11.5    0.067    0.067    0.546    0.546
 pao_calc_AB                        570  5.8    0.000    0.000    0.500    0.500
 pao_calc_AB_equi                   570  6.8    0.015    0.015    0.500    0.500
 -------------------------------------------------------------------------------

 The number of warnings for this run is : 0
 
 -------------------------------------------------------------------------------
  **** **** ******  **  PROGRAM ENDED AT                 2023-02-01 10:45:43.793
 ***** ** ***  *** **   PROGRAM RAN ON                                    moritz
 **    ****   ******    PROGRAM RAN BY                                       ole
 ***** **    ** ** **   PROGRAM PROCESS ID                                148568
  **** **  *******  **  PROGRAM STOPPED IN /home/ole/git/pao_ml_equivar/2H2O_rot
                                           ations/phi_08
