       6
 i =      800, time =      160.000, E =       -34.4466619897
  O         2.4689904900        4.2326218398        3.5757463379
  H         1.9690821931        4.3830393448        4.3680619959
  H         1.9614716583        3.6444061732        2.9922417753
  O         5.3961289506        4.2283845387        4.4409413928
  H         4.7977599686        3.8553591523        5.1465396078
  H         4.7400339599        4.5503305405        3.7787535731
