       6
 i =      775, time =      155.000, E =       -34.4474176592
  O         2.4886954616        4.2389880617        3.5997668002
  H         1.9379312431        4.4165804909        4.4066599634
  H         1.9158872144        3.6778631033        3.0573386782
  O         5.3859702831        4.2320699914        4.4142383684
  H         4.8095087398        3.9169310815        5.0993429924
  H         4.7480375097        4.5290267080        3.7618476632
